 Default number of threads is:           32

         
 *******************************************************************************
 *                                                                             *
 *                               CRYSTAL23                                     *
 *                      public : 1.0.1 - October 2022                          *
 *                       HTTP://WWW.CRYSTAL.UNITO.IT                           *
 *                                                                             *
 *                              MAIN AUTHORS                                   *
 *                                                                             *
 *  R. DOVESI(1,11), V.R. SAUNDERS(2), C. ROETTI(1,11), R. ORLANDO(1,11),      *
 *  C.M. ZICOVICH-WILSON(1,3), F. PASCALE(4), B. CIVALLERI(1,11),              *
 *  K. DOLL(5), N.M. HARRISON(6), I.J. BUSH(7), Ph. D'ARCO(8),                 *
 *  M. LLUNELL(9), M. CAUSA'(10), Y. NOEL(8), L. MASCHIO(1,11), A. ERBA(1,11)  *
 *  M. RE'RAT(14), S. CASASSA(1,11), B.G. SEARLE(2), J.K. DESMARAIS(1)         *
 *                                                                             *
 *        CONTRIBUTIONS TO THE CODE HAVE ALSO BEEN GIVEN BY                    *
 *                                                                             *
 *  M. FERRABONE(1,11), M. DE LA PIERRE(1,11), M. FERRERO(1,11),               *
 *  J. BAIMA(1,11), E. ALBANESE(1,11), M.F. PEINTINGER(12), R. BAST(13),       *
 *  B. KIRTMAN(15), V. LACIVITA(1,11), R. DEMICHELIS(1,16)                     *
 *  G. BRANDEBURG(17), S. SALUSTRO(1,11), G. SANSONE(1,11)                     *
 *  M.T. RUGGIERO(18), L.E. DAGA(1), L. DONA'(1), A. COSSARD(1)                *
 *                                                                             *
 * (1) THEORETICAL CHEMISTRY GROUP - UNIVERSITA' DI TORINO - TORINO (ITALY)    *
 * (2) SCIENTIFIC COMPUTING DEPARTMENT - STFC DARESBURY (UK)                   *
 * (3) UNIVERSIDAD AUTONOMA DEL ESTADO DE MORELOS - CUERNAVACA (MEXICO)        *
 * (4) UNIVERSITE' DE LORRAINE - NANCY (FRANCE)                                *
 * (5) UNIVERSITAET STUTTGART- STUTTGART (GERMANY)                             *
 * (6) IMPERIAL COLLEGE - LONDON (UK)                                          *
 * (7) SCIENTIFIC COMPUTING DEPARTMENT - STFC RAL (UK)                         *
 * (8) UPMC - SORBONNE UNIVERSITES - PARIS (FRANCE)                            *
 * (9) UNIVERSIDAD DE BARCELONA - BARCELONA (SPAIN)                            *
 *(10) UNIVERSITA' DI NAPOLI "FEDERICO II" - NAPOLI (ITALY)                    *
 *(11) NIS - NANOSTRUCTURED INTERFACES AND SURFACES - TORINO (ITALY)           *
 *(12) MPI FUER CHEMISCHE ENERGIEKONVERSION - MUELHEIM AN DER RUHR (GERMANY)   *
 *(13) UNIVERSITY OF TROMSO - TROMSO (NORWAY)                                  *
 *(14) UNIVERSITE' DE PAU ET DES PAYS DE L'ADOUR - PAU (FRANCE)                *
 *(15) UNIVERSITY OF CALIFORNIA SANTA BARBARA - SANTA BARBARA (USA)            *
 *(16) CURTIN UNIVERSITY - PERTH (AUSTRALIA)                                   *
 *(17) UNIVERSITY COLLEGE LONDON - LONDON (UK)                                 *
 *(18) UNIVERSITY OF VERMONT - BURLINGTON (USA)                                *
 *                                                                             *
 *******************************************************************************
 EEEEEEEEEE STARTING  DATE 19 02 2026 TIME 19:50:03.2
 cof-1_z32_L040_serr                                                             

 CRYSTAL CALCULATION
 (INPUT ACCORDING TO THE INTERNATIONAL TABLES FOR X-RAY CRYSTALLOGRAPHY)
 CRYSTAL FAMILY                       :  TRICLINIC   
 CRYSTAL CLASS  (GROTH - 1921)        :  TRICLINIC PEDIAL                     

 SPACE GROUP (NONCENTROSYMMETRIC)     :  P 1             

 LATTICE PARAMETERS  (ANGSTROMS AND DEGREES) - CONVENTIONAL CELL
        A           B           C        ALPHA        BETA       GAMMA
    15.02361    15.02392     6.40000    90.00032    89.99994   119.99596


 NUMBER OF IRREDUCIBLE ATOMS IN THE CONVENTIONAL CELL:   84

 INPUT COORDINATES

 ATOM AT. N.              COORDINATES
   1   5     6.136805400000E-01  2.273182200000E-01  2.507463700000E-01
   2   5     7.673736500000E-01  5.347356900000E-01  7.507463700000E-01
   3   5     7.727362000000E-01  3.863778800000E-01  2.507463800000E-01
   4   5     9.264293100000E-01  6.937953500000E-01  7.507463800000E-01
   5   5     6.136762700000E-01  3.863606700000E-01  2.491771200000E-01
   6   5     7.673693800000E-01  6.937781400000E-01  7.491771300000E-01
   7   5     2.272552500000E-01  6.136332200000E-01  2.507463700000E-01
   8   5     3.809483600000E-01  9.210506900000E-01  7.507463700000E-01
   9   5     3.863632200000E-01  6.136124500000E-01  2.507463700000E-01
  10   5     5.400563300000E-01  9.210299200000E-01  7.507463700000E-01
  11   5     3.863435000000E-01  7.727516500000E-01  2.491771300000E-01
  12   5     5.400366100000E-01  8.016912000000E-02  7.491771200000E-01
  13   1     9.030436200000E-01  3.089300500000E-01  2.474930100000E-01
  14   1     5.673673000000E-02  6.163475200000E-01  7.474930000000E-01
  15   1     9.663453000000E-02  6.910534400000E-01  2.469955100000E-01
  16   1     2.503276400000E-01  9.984709100000E-01  7.469955100000E-01
  17   1     9.029714200000E-01  5.940724300000E-01  2.469189400000E-01
  18   1     5.666453000000E-02  9.014899000000E-01  7.469189400000E-01
  19   1     9.673618000000E-02  4.056849400000E-01  2.469380400000E-01
  20   1     2.504292900000E-01  7.131024100000E-01  7.469380400000E-01
  21   1     6.910324000000E-01  9.700412000000E-02  2.525070200000E-01
  22   1     8.447255100000E-01  4.044215900000E-01  7.525070200000E-01
  23   1     3.089297200000E-01  9.034373100000E-01  2.530045500000E-01
  24   1     4.626228300000E-01  2.108547800000E-01  7.530045500000E-01
  25   1     4.058699900000E-01  9.704998000000E-02  2.530811600000E-01
  26   1     5.595631000000E-01  4.044674500000E-01  7.530811600000E-01
  27   1     5.943122100000E-01  9.033473200000E-01  2.530619400000E-01
  28   1     7.480053200000E-01  2.107647900000E-01  7.530619400000E-01
  29   1     6.910727400000E-01  5.940542100000E-01  2.474930300000E-01
  30   1     8.447658500000E-01  9.014716800000E-01  7.474930300000E-01
  31   1     3.089618300000E-01  4.056093300000E-01  2.469954700000E-01
  32   1     4.626549400000E-01  7.130268000000E-01  7.469954700000E-01
  33   1     4.058405700000E-01  3.088232500000E-01  2.469188800000E-01
  34   1     5.595336800000E-01  6.162407200000E-01  7.469188800000E-01
  35   1     5.942908800000E-01  6.909579300000E-01  2.469381000000E-01
  36   1     7.479839900000E-01  9.983754000000E-01  7.469381000000E-01
  37   6     8.918903100000E-01  4.459436900000E-01  2.491197000000E-01
  38   6     4.558342000000E-02  7.533611600000E-01  7.491197100000E-01
  39   6     9.464891100000E-01  3.927856300000E-01  2.475695600000E-01
  40   6     1.001822200000E-01  7.002031000000E-01  7.475695700000E-01
  41   6     5.338812000000E-02  6.071853000000E-01  2.474356500000E-01
  42   6     2.070812300000E-01  9.146027700000E-01  7.474356500000E-01
  43   6     9.464521100000E-01  5.536921900000E-01  2.478375300000E-01
  44   6     1.001452200000E-01  8.611096600000E-01  7.478375300000E-01
  45   6     5.342634000000E-02  4.462499700000E-01  2.468040800000E-01
  46   6     2.071194500000E-01  7.536674400000E-01  7.468040800000E-01
  47   6     1.080358900000E-01  5.540356300000E-01  2.478566500000E-01
  48   6     2.617290000000E-01  8.614531000000E-01  7.478566500000E-01
  49   6     5.540394200000E-01  1.081684600000E-01  2.508803400000E-01
  50   6     7.077325300000E-01  4.155859300000E-01  7.508803400000E-01
  51   6     6.071778500000E-01  5.355594000000E-02  2.524304500000E-01
  52   6     7.608709600000E-01  3.609734100000E-01  7.524304500000E-01
  53   6     3.927986700000E-01  9.466631600000E-01  2.525644100000E-01
  54   6     5.464917800000E-01  2.540806300000E-01  7.525644100000E-01
  55   6     4.462875800000E-01  5.360286000000E-02  2.521625500000E-01
  56   6     5.999806900000E-01  3.610203300000E-01  7.521625500000E-01
  57   6     5.537168500000E-01  9.466235600000E-01  2.531959200000E-01
  58   6     7.074099600000E-01  2.540410300000E-01  7.531959200000E-01
  59   6     4.459279100000E-01  8.919920600000E-01  2.521433800000E-01
  60   6     5.996210200000E-01  1.994095300000E-01  7.521433800000E-01
  61   6     5.540448700000E-01  4.458745500000E-01  2.491197000000E-01
  62   6     7.077379800000E-01  7.532920200000E-01  7.491197000000E-01
  63   6     6.072102200000E-01  5.536257800000E-01  2.475696000000E-01
  64   6     7.609033300000E-01  8.610432500000E-01  7.475696000000E-01
  65   6     3.928233700000E-01  4.461720300000E-01  2.474356200000E-01
  66   6     5.465164800000E-01  7.535895000000E-01  7.474356200000E-01
  67   6     4.462872600000E-01  3.926899900000E-01  2.478374900000E-01
  68   6     5.999803700000E-01  7.001074600000E-01  7.478374900000E-01
  69   6     5.537429600000E-01  6.070980000000E-01  2.468041200000E-01
  70   6     7.074360700000E-01  9.145154700000E-01  7.468041200000E-01
  71   6     4.459599800000E-01  5.539582300000E-01  2.478566500000E-01
  72   6     5.996530900000E-01  8.613757000000E-01  7.478566500000E-01
  73   8     5.607366800000E-01  2.803706300000E-01  2.495981300000E-01
  74   8     7.144297900000E-01  5.877881000000E-01  7.495981400000E-01
  75   8     7.196817000000E-01  2.803783300000E-01  2.529088600000E-01
  76   8     8.733748100000E-01  5.877958000000E-01  7.529088700000E-01
  77   8     7.196794200000E-01  4.393234600000E-01  2.479140800000E-01
  78   8     8.733725300000E-01  7.467409300000E-01  7.479140800000E-01
  79   8     2.803245100000E-01  7.196511100000E-01  2.495981500000E-01
  80   8     4.340176200000E-01  2.706858000000E-02  7.495981500000E-01
  81   8     2.803439700000E-01  5.606956100000E-01  2.529088600000E-01
  82   8     4.340370800000E-01  8.681130800000E-01  7.529088700000E-01
  83   8     4.392638400000E-01  7.196354200000E-01  2.479140600000E-01
  84   8     5.929569500000E-01  2.705289000000E-02  7.479140700000E-01

 *******************************************************************************

 << INFORMATION >>: FROM NOW ON, ALL COORDINATES REFER TO THE PRIMITIVE CELL

 *******************************************************************************

 LATTICE PARAMETERS  (ANGSTROMS AND DEGREES) - PRIMITIVE CELL
       A          B          C        ALPHA      BETA     GAMMA        VOLUME
   15.02361   15.02392    6.40000    90.00032  89.99994 119.99596   1251.081907

 COORDINATES OF THE EQUIVALENT ATOMS (FRACTIONAL UNITS)

 N. ATOM EQUIV AT. N.          X                  Y                  Z

   1   1   1    5 B    -3.86319460000E-01  2.27318220000E-01  2.50746370000E-01

   2   2   1    5 B    -2.32626350000E-01 -4.65264310000E-01 -2.49253630000E-01

   3   3   1    5 B    -2.27263800000E-01  3.86377880000E-01  2.50746380000E-01

   4   4   1    5 B    -7.35706900000E-02 -3.06204650000E-01 -2.49253620000E-01

   5   5   1    5 B    -3.86323730000E-01  3.86360670000E-01  2.49177120000E-01

   6   6   1    5 B    -2.32630620000E-01 -3.06221860000E-01 -2.50822870000E-01

   7   7   1    5 B     2.27255250000E-01 -3.86366780000E-01  2.50746370000E-01

   8   8   1    5 B     3.80948360000E-01 -7.89493100000E-02 -2.49253630000E-01

   9   9   1    5 B     3.86363220000E-01 -3.86387550000E-01  2.50746370000E-01

  10  10   1    5 B    -4.59943670000E-01 -7.89700800000E-02 -2.49253630000E-01

  11  11   1    5 B     3.86343500000E-01 -2.27248350000E-01  2.49177130000E-01

  12  12   1    5 B    -4.59963390000E-01  8.01691200000E-02 -2.50822880000E-01

  13  13   1    1 H    -9.69563800000E-02  3.08930050000E-01  2.47493010000E-01

  14  14   1    1 H     5.67367300000E-02 -3.83652480000E-01 -2.52507000000E-01

  15  15   1    1 H     9.66345300000E-02 -3.08946560000E-01  2.46995510000E-01

  16  16   1    1 H     2.50327640000E-01 -1.52909000000E-03 -2.53004490000E-01

  17  17   1    1 H    -9.70285800000E-02 -4.05927570000E-01  2.46918940000E-01

  18  18   1    1 H     5.66645300000E-02 -9.85101000000E-02 -2.53081060000E-01

  19  19   1    1 H     9.67361800000E-02  4.05684940000E-01  2.46938040000E-01

  20  20   1    1 H     2.50429290000E-01 -2.86897590000E-01 -2.53061960000E-01

  21  21   1    1 H    -3.08967600000E-01  9.70041200000E-02  2.52507020000E-01

  22  22   1    1 H    -1.55274490000E-01  4.04421590000E-01 -2.47492980000E-01

  23  23   1    1 H     3.08929720000E-01 -9.65626900000E-02  2.53004550000E-01

  24  24   1    1 H     4.62622830000E-01  2.10854780000E-01 -2.46995450000E-01

  25  25   1    1 H     4.05869990000E-01  9.70499800000E-02  2.53081160000E-01

  26  26   1    1 H    -4.40436900000E-01  4.04467450000E-01 -2.46918840000E-01

  27  27   1    1 H    -4.05687790000E-01 -9.66526800000E-02  2.53061940000E-01

  28  28   1    1 H    -2.51994680000E-01  2.10764790000E-01 -2.46938060000E-01

  29  29   1    1 H    -3.08927260000E-01 -4.05945790000E-01  2.47493030000E-01

  30  30   1    1 H    -1.55234150000E-01 -9.85283200000E-02 -2.52506970000E-01

  31  31   1    1 H     3.08961830000E-01  4.05609330000E-01  2.46995470000E-01

  32  32   1    1 H     4.62654940000E-01 -2.86973200000E-01 -2.53004530000E-01

  33  33   1    1 H     4.05840570000E-01  3.08823250000E-01  2.46918880000E-01

  34  34   1    1 H    -4.40466320000E-01 -3.83759280000E-01 -2.53081120000E-01

  35  35   1    1 H    -4.05709120000E-01 -3.09042070000E-01  2.46938100000E-01

  36  36   1    1 H    -2.52016010000E-01 -1.62460000000E-03 -2.53061900000E-01

  37  37   1    6 C    -1.08109690000E-01  4.45943690000E-01  2.49119700000E-01

  38  38   1    6 C     4.55834200000E-02 -2.46638840000E-01 -2.50880290000E-01

  39  39   1    6 C    -5.35108900000E-02  3.92785630000E-01  2.47569560000E-01

  40  40   1    6 C     1.00182220000E-01 -2.99796900000E-01 -2.52430430000E-01

  41  41   1    6 C     5.33881200000E-02 -3.92814700000E-01  2.47435650000E-01

  42  42   1    6 C     2.07081230000E-01 -8.53972300000E-02 -2.52564350000E-01

  43  43   1    6 C    -5.35478900000E-02 -4.46307810000E-01  2.47837530000E-01

  44  44   1    6 C     1.00145220000E-01 -1.38890340000E-01 -2.52162470000E-01

  45  45   1    6 C     5.34263400000E-02  4.46249970000E-01  2.46804080000E-01

  46  46   1    6 C     2.07119450000E-01 -2.46332560000E-01 -2.53195920000E-01

  47  47   1    6 C     1.08035890000E-01 -4.45964370000E-01  2.47856650000E-01

  48  48   1    6 C     2.61729000000E-01 -1.38546900000E-01 -2.52143350000E-01

  49  49   1    6 C    -4.45960580000E-01  1.08168460000E-01  2.50880340000E-01

  50  50   1    6 C    -2.92267470000E-01  4.15585930000E-01 -2.49119660000E-01

  51  51   1    6 C    -3.92822150000E-01  5.35559400000E-02  2.52430450000E-01

  52  52   1    6 C    -2.39129040000E-01  3.60973410000E-01 -2.47569550000E-01

  53  53   1    6 C     3.92798670000E-01 -5.33368400000E-02  2.52564410000E-01

  54  54   1    6 C    -4.53508220000E-01  2.54080630000E-01 -2.47435590000E-01

  55  55   1    6 C     4.46287580000E-01  5.36028600000E-02  2.52162550000E-01

  56  56   1    6 C    -4.00019310000E-01  3.61020330000E-01 -2.47837450000E-01

  57  57   1    6 C    -4.46283150000E-01 -5.33764400000E-02  2.53195920000E-01

  58  58   1    6 C    -2.92590040000E-01  2.54041030000E-01 -2.46804080000E-01

  59  59   1    6 C     4.45927910000E-01 -1.08007940000E-01  2.52143380000E-01

  60  60   1    6 C    -4.00378980000E-01  1.99409530000E-01 -2.47856620000E-01

  61  61   1    6 C    -4.45955130000E-01  4.45874550000E-01  2.49119700000E-01

  62  62   1    6 C    -2.92262020000E-01 -2.46707980000E-01 -2.50880300000E-01

  63  63   1    6 C    -3.92789780000E-01 -4.46374220000E-01  2.47569600000E-01

  64  64   1    6 C    -2.39096670000E-01 -1.38956750000E-01 -2.52430400000E-01

  65  65   1    6 C     3.92823370000E-01  4.46172030000E-01  2.47435620000E-01

  66  66   1    6 C    -4.53483520000E-01 -2.46410500000E-01 -2.52564380000E-01

  67  67   1    6 C     4.46287260000E-01  3.92689990000E-01  2.47837490000E-01

  68  68   1    6 C    -4.00019630000E-01 -2.99892540000E-01 -2.52162510000E-01

  69  69   1    6 C    -4.46257040000E-01 -3.92902000000E-01  2.46804120000E-01

  70  70   1    6 C    -2.92563930000E-01 -8.54845300000E-02 -2.53195880000E-01

  71  71   1    6 C     4.45959980000E-01 -4.46041770000E-01  2.47856650000E-01

  72  72   1    6 C    -4.00346910000E-01 -1.38624300000E-01 -2.52143350000E-01

  73  73   1    8 O    -4.39263320000E-01  2.80370630000E-01  2.49598130000E-01

  74  74   1    8 O    -2.85570210000E-01 -4.12211900000E-01 -2.50401860000E-01

  75  75   1    8 O    -2.80318300000E-01  2.80378330000E-01  2.52908860000E-01

  76  76   1    8 O    -1.26625190000E-01 -4.12204200000E-01 -2.47091130000E-01

  77  77   1    8 O    -2.80320580000E-01  4.39323460000E-01  2.47914080000E-01

  78  78   1    8 O    -1.26627470000E-01 -2.53259070000E-01 -2.52085920000E-01

  79  79   1    8 O     2.80324510000E-01 -2.80348890000E-01  2.49598150000E-01

  80  80   1    8 O     4.34017620000E-01  2.70685800000E-02 -2.50401850000E-01

  81  81   1    8 O     2.80343970000E-01 -4.39304390000E-01  2.52908860000E-01

  82  82   1    8 O     4.34037080000E-01 -1.31886920000E-01 -2.47091130000E-01

  83  83   1    8 O     4.39263840000E-01 -2.80364580000E-01  2.47914060000E-01

  84  84   1    8 O    -4.07043050000E-01  2.70528900000E-02 -2.52085930000E-01

 NUMBER OF SYMMETRY OPERATORS         :    1
 *******************************************************************************
 * GEOMETRY EDITING - INPUT COORDINATES ARE GIVEN IN ANGSTROM         
 *******************************************************************************

 GCALCO - MAX INDICES DIRECT LATTICE VECTOR    11    11    24
 NO.OF VECTORS CREATED 6999 STARS 3500 RMAX   241.85967 BOHR

 GEOMETRY FOR WAVE FUNCTION - DIMENSIONALITY OF THE SYSTEM    3
 (NON PERIODIC DIRECTION: LATTICE PARAMETER FORMALLY SET TO 500)
 *******************************************************************************
 LATTICE PARAMETERS (ANGSTROMS AND DEGREES) - BOHR = 0.5291772083 ANGSTROM
 PRIMITIVE CELL - CENTRING CODE 1/0 VOLUME=  1251.081907 - DENSITY  1.036 g/cm^3
         A              B              C           ALPHA      BETA       GAMMA 
    15.02361100    15.02391600     6.40000000    90.000323  89.999944 119.995964
 *******************************************************************************
 ATOMS IN THE ASYMMETRIC UNIT   84 - ATOMS IN THE UNIT CELL:   84
     ATOM                 X/A                 Y/B                 Z/C    
 *******************************************************************************
      1 T   5 B    -3.863194600000E-01  2.273182200000E-01  2.507463700000E-01
      2 T   5 B    -2.326263500000E-01 -4.652643100000E-01 -2.492536300000E-01
      3 T   5 B    -2.272638000000E-01  3.863778800000E-01  2.507463800000E-01
      4 T   5 B    -7.357069000000E-02 -3.062046500000E-01 -2.492536200000E-01
      5 T   5 B    -3.863237300000E-01  3.863606700000E-01  2.491771200000E-01
      6 T   5 B    -2.326306200000E-01 -3.062218600000E-01 -2.508228700000E-01
      7 T   5 B     2.272552500000E-01 -3.863667800000E-01  2.507463700000E-01
      8 T   5 B     3.809483600000E-01 -7.894931000000E-02 -2.492536300000E-01
      9 T   5 B     3.863632200000E-01 -3.863875500000E-01  2.507463700000E-01
     10 T   5 B    -4.599436700000E-01 -7.897008000000E-02 -2.492536300000E-01
     11 T   5 B     3.863435000000E-01 -2.272483500000E-01  2.491771300000E-01
     12 T   5 B    -4.599633900000E-01  8.016912000000E-02 -2.508228800000E-01
     13 T   1 H    -9.695638000000E-02  3.089300500000E-01  2.474930100000E-01
     14 T   1 H     5.673673000000E-02 -3.836524800000E-01 -2.525070000000E-01
     15 T   1 H     9.663453000000E-02 -3.089465600000E-01  2.469955100000E-01
     16 T   1 H     2.503276400000E-01 -1.529090000000E-03 -2.530044900000E-01
     17 T   1 H    -9.702858000000E-02 -4.059275700000E-01  2.469189400000E-01
     18 T   1 H     5.666453000000E-02 -9.851010000000E-02 -2.530810600000E-01
     19 T   1 H     9.673618000000E-02  4.056849400000E-01  2.469380400000E-01
     20 T   1 H     2.504292900000E-01 -2.868975900000E-01 -2.530619600000E-01
     21 T   1 H    -3.089676000000E-01  9.700412000000E-02  2.525070200000E-01
     22 T   1 H    -1.552744900000E-01  4.044215900000E-01 -2.474929800000E-01
     23 T   1 H     3.089297200000E-01 -9.656269000000E-02  2.530045500000E-01
     24 T   1 H     4.626228300000E-01  2.108547800000E-01 -2.469954500000E-01
     25 T   1 H     4.058699900000E-01  9.704998000000E-02  2.530811600000E-01
     26 T   1 H    -4.404369000000E-01  4.044674500000E-01 -2.469188400000E-01
     27 T   1 H    -4.056877900000E-01 -9.665268000000E-02  2.530619400000E-01
     28 T   1 H    -2.519946800000E-01  2.107647900000E-01 -2.469380600000E-01
     29 T   1 H    -3.089272600000E-01 -4.059457900000E-01  2.474930300000E-01
     30 T   1 H    -1.552341500000E-01 -9.852832000000E-02 -2.525069700000E-01
     31 T   1 H     3.089618300000E-01  4.056093300000E-01  2.469954700000E-01
     32 T   1 H     4.626549400000E-01 -2.869732000000E-01 -2.530045300000E-01
     33 T   1 H     4.058405700000E-01  3.088232500000E-01  2.469188800000E-01
     34 T   1 H    -4.404663200000E-01 -3.837592800000E-01 -2.530811200000E-01
     35 T   1 H    -4.057091200000E-01 -3.090420700000E-01  2.469381000000E-01
     36 T   1 H    -2.520160100000E-01 -1.624600000000E-03 -2.530619000000E-01
     37 T   6 C    -1.081096900000E-01  4.459436900000E-01  2.491197000000E-01
     38 T   6 C     4.558342000000E-02 -2.466388400000E-01 -2.508802900000E-01
     39 T   6 C    -5.351089000000E-02  3.927856300000E-01  2.475695600000E-01
     40 T   6 C     1.001822200000E-01 -2.997969000000E-01 -2.524304300000E-01
     41 T   6 C     5.338812000000E-02 -3.928147000000E-01  2.474356500000E-01
     42 T   6 C     2.070812300000E-01 -8.539723000000E-02 -2.525643500000E-01
     43 T   6 C    -5.354789000000E-02 -4.463078100000E-01  2.478375300000E-01
     44 T   6 C     1.001452200000E-01 -1.388903400000E-01 -2.521624700000E-01
     45 T   6 C     5.342634000000E-02  4.462499700000E-01  2.468040800000E-01
     46 T   6 C     2.071194500000E-01 -2.463325600000E-01 -2.531959200000E-01
     47 T   6 C     1.080358900000E-01 -4.459643700000E-01  2.478566500000E-01
     48 T   6 C     2.617290000000E-01 -1.385469000000E-01 -2.521433500000E-01
     49 T   6 C    -4.459605800000E-01  1.081684600000E-01  2.508803400000E-01
     50 T   6 C    -2.922674700000E-01  4.155859300000E-01 -2.491196600000E-01
     51 T   6 C    -3.928221500000E-01  5.355594000000E-02  2.524304500000E-01
     52 T   6 C    -2.391290400000E-01  3.609734100000E-01 -2.475695500000E-01
     53 T   6 C     3.927986700000E-01 -5.333684000000E-02  2.525644100000E-01
     54 T   6 C    -4.535082200000E-01  2.540806300000E-01 -2.474355900000E-01
     55 T   6 C     4.462875800000E-01  5.360286000000E-02  2.521625500000E-01
     56 T   6 C    -4.000193100000E-01  3.610203300000E-01 -2.478374500000E-01
     57 T   6 C    -4.462831500000E-01 -5.337644000000E-02  2.531959200000E-01
     58 T   6 C    -2.925900400000E-01  2.540410300000E-01 -2.468040800000E-01
     59 T   6 C     4.459279100000E-01 -1.080079400000E-01  2.521433800000E-01
     60 T   6 C    -4.003789800000E-01  1.994095300000E-01 -2.478566200000E-01
     61 T   6 C    -4.459551300000E-01  4.458745500000E-01  2.491197000000E-01
     62 T   6 C    -2.922620200000E-01 -2.467079800000E-01 -2.508803000000E-01
     63 T   6 C    -3.927897800000E-01 -4.463742200000E-01  2.475696000000E-01
     64 T   6 C    -2.390966700000E-01 -1.389567500000E-01 -2.524304000000E-01
     65 T   6 C     3.928233700000E-01  4.461720300000E-01  2.474356200000E-01
     66 T   6 C    -4.534835200000E-01 -2.464105000000E-01 -2.525643800000E-01
     67 T   6 C     4.462872600000E-01  3.926899900000E-01  2.478374900000E-01
     68 T   6 C    -4.000196300000E-01 -2.998925400000E-01 -2.521625100000E-01
     69 T   6 C    -4.462570400000E-01 -3.929020000000E-01  2.468041200000E-01
     70 T   6 C    -2.925639300000E-01 -8.548453000000E-02 -2.531958800000E-01
     71 T   6 C     4.459599800000E-01 -4.460417700000E-01  2.478566500000E-01
     72 T   6 C    -4.003469100000E-01 -1.386243000000E-01 -2.521433500000E-01
     73 T   8 O    -4.392633200000E-01  2.803706300000E-01  2.495981300000E-01
     74 T   8 O    -2.855702100000E-01 -4.122119000000E-01 -2.504018600000E-01
     75 T   8 O    -2.803183000000E-01  2.803783300000E-01  2.529088600000E-01
     76 T   8 O    -1.266251900000E-01 -4.122042000000E-01 -2.470911300000E-01
     77 T   8 O    -2.803205800000E-01  4.393234600000E-01  2.479140800000E-01
     78 T   8 O    -1.266274700000E-01 -2.532590700000E-01 -2.520859200000E-01
     79 T   8 O     2.803245100000E-01 -2.803488900000E-01  2.495981500000E-01
     80 T   8 O     4.340176200000E-01  2.706858000000E-02 -2.504018500000E-01
     81 T   8 O     2.803439700000E-01 -4.393043900000E-01  2.529088600000E-01
     82 T   8 O     4.340370800000E-01 -1.318869200000E-01 -2.470911300000E-01
     83 T   8 O     4.392638400000E-01 -2.803645800000E-01  2.479140600000E-01
     84 T   8 O    -4.070430500000E-01  2.705289000000E-02 -2.520859300000E-01

 T = ATOM BELONGING TO THE ASYMMETRIC UNIT

 ****    1 SYMMOPS - TRANSLATORS IN FRACTIONAL UNITS
 **** MATRICES AND TRANSLATORS IN THE CRYSTALLOGRAPHIC REFERENCE FRAME
   V INV                    ROTATION MATRICES                   TRANSLATORS
   1   1  1.00 -0.00  0.00  0.00  1.00  0.00  0.00  0.00  1.00  0.00  0.00  0.00

 DIRECT LATTICE VECTORS CARTESIAN COMPONENTS (ANGSTROM)
          X                    Y                    Z
   0.130113578931E+02  -0.751088897922E+01   0.000000000000E+00
   0.000000000000E+00   0.150239160000E+02   0.000000000000E+00
  -0.136044311046E-04  -0.360794462958E-04   0.639999999988E+01


 CARTESIAN COORDINATES - PRIMITIVE CELL
 *******************************************************************************
 *      ATOM          X(ANGSTROM)         Y(ANGSTROM)         Z(ANGSTROM)
 *******************************************************************************
    1     5 B    -5.026544166374E+00  6.316803370330E+00  1.604776767971E+00
    2     5 B    -3.026781304252E+00 -5.242852229815E+00 -1.595223231971E+00
    3     5 B    -2.957014049198E+00  7.511852937382E+00  1.604776831971E+00
    4     5 B    -9.572511870754E-01 -4.047802662762E+00 -1.595223167971E+00
    5     5 B    -5.026599703524E+00 -6.317640092322E+00  1.594733567971E+00
    6     5 B    -3.026836841401E+00 -2.853379692467E+00 -1.605266367971E+00
    7     5 B     2.956895979564E+00 -7.511640047395E+00  1.604776767971E+00
    8     5 B     4.956658841687E+00 -4.047379647540E+00 -1.595223231971E+00
    9     5 B     5.027106720872E+00  6.316921607491E+00  1.604776767971E+00
   10     5 B    -5.984488310062E+00  2.268154986563E+00 -1.595223231971E+00
   11     5 B     5.026850158243E+00 -6.315952248053E+00  1.594733631971E+00
   12     5 B     7.026613020366E+00 -2.851691848198E+00 -1.605266431971E+00
   13     1 H    -1.261537527197E+00  5.369558797672E+00  1.583955263971E+00
   14     1 H     7.382253349258E-01 -6.190096802473E+00 -1.616044799971E+00
   15     1 H     1.257343094424E+00 -5.367407303779E+00  1.580771263971E+00
   16     1 H     3.257105956546E+00 -1.903146903924E+00 -1.619228735971E+00
   17     1 H    -1.262476939427E+00 -5.369859730272E+00  1.580281215971E+00
   18     1 H     7.372859226957E-01 -1.905599330417E+00 -1.619718783971E+00
   19     1 H     1.258665699736E+00  5.368392843384E+00  1.580403455971E+00
   20     1 H     3.258428561858E+00 -6.191262756761E+00 -1.619596543971E+00
   21     1 H    -4.020091456173E+00  3.777993981995E+00  1.616044927971E+00
   22     1 H    -2.020328594051E+00  7.242254381851E+00 -1.583955071971E+00
   23     1 H     4.019591708739E+00 -3.771095700859E+00  1.619229119971E+00
   24     1 H     6.019354570861E+00 -3.068353010034E-01 -1.580770879971E+00
   25     1 H     5.280916254916E+00 -1.590382818592E+00  1.619719423971E+00
   26     1 H     7.280679117039E+00  1.873877581263E+00 -1.580280575971E+00
   27     1 H    -5.278552471297E+00  1.594965075084E+00  1.619596415971E+00
   28     1 H    -3.278789609174E+00  5.059225474939E+00 -1.580403583971E+00
   29     1 H    -4.019566509783E+00 -3.778586026412E+00  1.583955391971E+00
   30     1 H    -2.019803647661E+00 -3.143256265564E-01 -1.616044607971E+00
   31     1 H     4.020009585191E+00  3.773253587331E+00  1.580771007971E+00
   32     1 H    -6.991585445743E+00 -2.755130335974E-01 -1.619228991971E+00
   33     1 H     5.280533544601E+00  1.591502193619E+00  1.580280831971E+00
   34     1 H    -5.731061486333E+00 -2.457264427310E+00 -1.619719167971E+00
   35     1 H    -5.278829920249E+00 -1.595794851360E+00  1.580403839971E+00
   36     1 H    -3.279067058127E+00  1.868465548495E+00 -1.619596159971E+00
   37     6 C    -1.406657257429E+00  7.511811430357E+00  1.594366079971E+00
   38     6 C     5.931056046931E-01 -4.047844169788E+00 -1.605633855971E+00
   39     6 C    -6.962527090090E-01  6.303083732924E+00  1.584445183971E+00
   40     6 C     1.303510153113E+00 -5.256571867222E+00 -1.615554751971E+00
   41     6 C     6.946485703362E-01 -6.302616225836E+00  1.583588159971E+00
   42     6 C     2.694411432459E+00 -2.838355825980E+00 -1.616411839971E+00
   43     6 C    -6.967341328966E-01 -6.303107732564E+00  1.586160191971E+00
   44     6 C     1.303028729226E+00 -2.838847332708E+00 -1.613839807971E+00
   45     6 C     6.951458730270E-01  6.303133851422E+00  1.579546111971E+00
   46     6 C     2.694908735149E+00 -5.256521748723E+00 -1.620453887971E+00
   47     6 C     1.405690258136E+00 -7.511585751964E+00  1.586282559971E+00
   48     6 C     3.405453120259E+00 -4.047325352109E+00 -1.613717439971E+00
   49     6 C     7.208801767397E+00 -2.536223768464E+00  1.605634175971E+00
   50     6 C    -3.802793263537E+00 -6.584990389392E+00 -1.594365823971E+00
   51     6 C    -5.111153016143E+00  3.755054393537E+00  1.615554879971E+00
   52     6 C    -3.111390154020E+00  7.219314793392E+00 -1.584445119971E+00
   53     6 C     5.110840639292E+00 -3.751604517803E+00  1.616412223971E+00
   54     6 C     7.110603501414E+00 -2.873441179482E-01 -1.583587775971E+00
   55     6 C     5.806803996078E+00 -2.546700698069E+00  1.613840319971E+00
   56     6 C     7.806566858201E+00  9.175597017866E-01 -1.586159679971E+00
   57     6 C    -5.806753230877E+00  2.550050906837E+00  1.620453887971E+00
   58     6 C    -3.806990368755E+00  6.014311306693E+00 -1.579546111971E+00
   59     6 C     5.802124201245E+00 -4.972026339831E+00  1.613717631971E+00
   60     6 C     7.801887063368E+00 -1.507765939975E+00 -1.586282367971E+00
   61     6 C     7.208872703250E+00  2.537403289563E+00  1.594366079971E+00
   62     6 C    -3.802722327684E+00 -1.511363331366E+00 -1.605633919971E+00
   63     6 C    -5.110731772359E+00 -3.756097288269E+00  1.584445439971E+00
   64     6 C    -3.110968910236E+00 -2.918368884136E-01 -1.615554559971E+00
   65     6 C     5.111162089606E+00  3.752789452418E+00  1.583587967971E+00
   66     6 C    -5.900432941328E+00 -2.959771685107E-01 -1.616412031971E+00
   67     6 C     5.806799891284E+00  2.547718419263E+00  1.586159935971E+00
   68     6 C    -5.204795139651E+00 -1.501048201666E+00 -1.613840063971E+00
   69     6 C    -5.806413417366E+00 -2.551148465154E+00  1.579546367971E+00
   70     6 C    -3.806650555243E+00  9.131119347009E-01 -1.620453631971E+00
   71     6 C     5.802541533812E+00  4.973057073544E+00  1.586282559971E+00
   72     6 C    -5.209053497122E+00  9.242904526160E-01 -1.613717439971E+00
   73     8 O     7.295942231604E+00  6.248385703281E-04  1.597428031971E+00
   74     8 O    -3.715652799330E+00 -4.048141782358E+00 -1.602571903971E+00
   75     8 O    -3.647325165954E+00  6.317810983471E+00  1.618616703971E+00
   76     8 O    -1.647562303832E+00 -5.241844616674E+00 -1.581383231971E+00
   77     8 O    -3.647354763899E+00 -6.318109429764E+00  1.586650111971E+00
   78     8 O    -1.647591901777E+00 -2.853849029909E+00 -1.613349887971E+00
   79     8 O     3.647399130165E+00 -6.317433452180E+00  1.597428159971E+00
   80     8 O     5.647161992287E+00 -2.853173052324E+00 -1.602571839971E+00
   81     8 O     3.647652286149E+00  6.318202186734E+00  1.618616703971E+00
   82     8 O     5.647415148271E+00 -5.241453413411E+00 -1.581383231971E+00
   83     8 O    -7.295942234068E+00 -5.557995051377E-04  1.586649983971E+00
   84     8 O    -5.296179371946E+00  3.463704600350E+00 -1.613349951971E+00

 *******************************************************************************
 STARTING BASIS SET HANDLING 
 *******************************************************************************

 Loading internal basis set: SOLDEF2MSVP         

 Please cite in your publication:
 L. Dona', J. G. Brandenburg and B. Civalleri, J. Chem. Phys., 151, 121101 (2019
 )                                                                              
                                                                                
                    

 *******************************************************************************
 LOCAL ATOMIC FUNCTIONS BASIS SET
 *******************************************************************************
   ATOM   X(AU)   Y(AU)   Z(AU)  N. TYPE  EXPONENT  S COEF   P COEF   D/F/G COEF
 *******************************************************************************
   1 B   -9.499  11.937   3.033
                                  1 S  
                                         2.410E+03 1.755E-03 0.000E+00 0.000E+00
                                         3.619E+02 1.344E-02 0.000E+00 0.000E+00
                                         8.231E+01 6.637E-02 0.000E+00 0.000E+00
                                         2.311E+01 2.303E-01 0.000E+00 0.000E+00
                                         7.252E+00 5.150E-01 0.000E+00 0.000E+00
                                  2 S  
                                         2.367E+00 1.000E+00 0.000E+00 0.000E+00
                                  3 S  
                                         5.533E-01 1.000E+00 0.000E+00 0.000E+00
                                  4 S  
                                         1.716E-01 1.000E+00 0.000E+00 0.000E+00
                           5-     7 P  
                                         6.002E+00 0.000E+00-3.555E-02 0.000E+00
                                         1.240E+00 0.000E+00-1.983E-01 0.000E+00
                                         3.367E-01 0.000E+00-5.048E-01 0.000E+00
                           8-    10 P  
                                         1.256E-01 0.000E+00 1.000E+00 0.000E+00
                          11-    15 D  
                                         8.880E-01 0.000E+00 0.000E+00 1.000E+00
   2 B   -5.720  -9.908  -3.015
   3 B   -5.588  14.195   3.033
   4 B   -1.809  -7.649  -3.015
   5 B   -9.499 -11.939   3.014
   6 B   -5.720  -5.392  -3.034
   7 B    5.588 -14.195   3.033
   8 B    9.367  -7.648  -3.015
   9 B    9.500  11.937   3.033
  10 B  -11.309   4.286  -3.015
  11 B    9.499 -11.935   3.014
  12 B   13.278  -5.389  -3.034
  13 H   -2.384  10.147   2.993
                                181 S  
                                         1.874E+01 1.968E-02 0.000E+00 0.000E+00
                                         2.826E+00 1.380E-01 0.000E+00 0.000E+00
                                         6.401E-01 4.783E-01 0.000E+00 0.000E+00
                                182 S  
                                         1.756E-01 1.000E+00 0.000E+00 0.000E+00
  14 H    1.395 -11.698  -3.054
  15 H    2.376 -10.143   2.987
  16 H    6.155  -3.596  -3.060
  17 H   -2.386 -10.148   2.986
  18 H    1.393  -3.601  -3.061
  19 H    2.379  10.145   2.987
  20 H    6.158 -11.700  -3.061
  21 H   -7.597   7.139   3.054
  22 H   -3.818  13.686  -2.993
  23 H    7.596  -7.126   3.060
  24 H   11.375  -0.580  -2.987
  25 H    9.979  -3.005   3.061
  26 H   13.758   3.541  -2.986
  27 H   -9.975   3.014   3.061
  28 H   -6.196   9.561  -2.987
  29 H   -7.596  -7.140   2.993
  30 H   -3.817  -0.594  -3.054
  31 H    7.597   7.130   2.987
  32 H  -13.212  -0.521  -3.060
  33 H    9.979   3.008   2.986
  34 H  -10.830  -4.644  -3.061
  35 H   -9.976  -3.016   2.987
  36 H   -6.197   3.531  -3.061
  37 C   -2.658  14.195   3.013
                                229 S  
                                         3.624E+03 1.634E-03 0.000E+00 0.000E+00
                                         5.440E+02 1.252E-02 0.000E+00 0.000E+00
                                         1.237E+02 6.211E-02 0.000E+00 0.000E+00
                                         3.476E+01 2.182E-01 0.000E+00 0.000E+00
                                         1.093E+01 4.980E-01 0.000E+00 0.000E+00
                                230 S  
                                         3.574E+00 1.000E+00 0.000E+00 0.000E+00
                                231 S  
                                         7.742E-01 1.000E+00 0.000E+00 0.000E+00
                                232 S  
                                         2.330E-01 1.000E+00 0.000E+00 0.000E+00
                         233-   235 P  
                                         9.443E+00 0.000E+00 3.790E-02 0.000E+00
                                         2.002E+00 0.000E+00 2.082E-01 0.000E+00
                                         5.463E-01 0.000E+00 5.047E-01 0.000E+00
                         236-   238 P  
                                         1.820E-01 0.000E+00 1.000E+00 0.000E+00
                         239-   243 D  
                                         8.880E-01 0.000E+00 0.000E+00 1.000E+00
  38 C    1.121  -7.649  -3.034
  39 C   -1.316  11.911   2.994
  40 C    2.463  -9.933  -3.053
  41 C    1.313 -11.910   2.993
  42 C    5.092  -5.364  -3.055
  43 C   -1.317 -11.911   2.997
  44 C    2.462  -5.365  -3.050
  45 C    1.314  11.911   2.985
  46 C    5.093  -9.933  -3.062
  47 C    2.656 -14.195   2.998
  48 C    6.435  -7.648  -3.049
  49 C   13.623  -4.793   3.034
  50 C   -7.186 -12.444  -3.013
  51 C   -9.659   7.096   3.053
  52 C   -5.880  13.643  -2.994
  53 C    9.658  -7.090   3.055
  54 C   13.437  -0.543  -2.993
  55 C   10.973  -4.813   3.050
  56 C   14.752   1.734  -2.997
  57 C  -10.973   4.819   3.062
  58 C   -7.194  11.365  -2.985
  59 C   10.964  -9.396   3.049
  60 C   14.743  -2.849  -2.998
  61 C   13.623   4.795   3.013
  62 C   -7.186  -2.856  -3.034
  63 C   -9.658  -7.098   2.994
  64 C   -5.879  -0.551  -3.053
  65 C    9.659   7.092   2.993
  66 C  -11.150  -0.559  -3.055
  67 C   10.973   4.814   2.997
  68 C   -9.836  -2.837  -3.050
  69 C  -10.973  -4.821   2.985
  70 C   -7.194   1.726  -3.062
  71 C   10.965   9.398   2.998
  72 C   -9.844   1.747  -3.049
  73 O   13.787   0.001   3.019
                                769 S  
                                         6.773E+03 1.727E-03 0.000E+00 0.000E+00
                                         1.017E+03 1.325E-02 0.000E+00 0.000E+00
                                         2.313E+02 6.603E-02 0.000E+00 0.000E+00
                                         6.501E+01 2.353E-01 0.000E+00 0.000E+00
                                         2.050E+01 5.498E-01 0.000E+00 0.000E+00
                                770 S  
                                         6.716E+00 1.000E+00 0.000E+00 0.000E+00
                                771 S  
                                         1.147E+00 1.000E+00 0.000E+00 0.000E+00
                                772 S  
                                         3.342E-01 1.000E+00 0.000E+00 0.000E+00
                         773-   775 P  
                                         1.769E+01 0.000E+00 4.359E-02 0.000E+00
                                         3.854E+00 0.000E+00 2.318E-01 0.000E+00
                                         1.047E+00 0.000E+00 5.146E-01 0.000E+00
                         776-   778 P  
                                         2.759E-01 0.000E+00 1.000E+00 0.000E+00
                         779-   783 D  
                                         8.000E-01 0.000E+00 0.000E+00 1.000E+00
  74 O   -7.022  -7.650  -3.028
  75 O   -6.892  11.939   3.059
  76 O   -3.113  -9.906  -2.988
  77 O   -6.893 -11.939   2.998
  78 O   -3.113  -5.393  -3.049
  79 O    6.893 -11.938   3.019
  80 O   10.672  -5.392  -3.028
  81 O    6.893  11.940   3.059
  82 O   10.672  -9.905  -2.988
  83 O  -13.787  -0.001   2.998
  84 O  -10.008   6.545  -3.049

 *******************************************************************************
 FINISHED BASIS SET HANDLING 
 *******************************************************************************

 INFORMATION **** SET_MPP **** PCRYSTAL CALCULATION
 INFORMATION **** READM2 **** NEW DEFAULT: FOCK/KS MATRIX MIXING SET TO 30 %
 INFORMATION **** READM2 **** NEW DEFAULT: FULL DIRECT SCF MODE
 INFORMATION **** READM2 **** NEW DEFAULT: COULOMB BIPOLAR BUFFER SET TO 32 Mb
 INFORMATION **** READM2 **** NEW DEFAULT: EXCHANGE BIPOLAR BUFFER SET TO 32 Mb

 *******************************************************************************
 NEW DEFAULT: DFT INTEGRATION GRID INCREASED TO XLGRID
 NEW DEFAULT: DIIS ACCELERATOR ACTIVE
 USE KEYWORD NODIIS TO TURN IT OFF
 *******************************************************************************

 WARNING **** RDDFTP **** HSEsol-HJS ACTIVE
 RANGE SEPARATION - OMEGA:   0.110000000000000     
 WARNING **** RDDFTP **** HSEsol-3c has to be combined with sol-def2-mSVP basis set
 *******************************************************************************
 N. OF ATOMS PER CELL        84  COULOMB OVERLAP TOL         (T1) 10**   -6
 NUMBER OF SHELLS           468  COULOMB PENETRATION TOL     (T2) 10**   -6
 NUMBER OF AO               948  EXCHANGE OVERLAP TOL        (T3) 10**   -6
 N. OF ELECTRONS PER CELL   396  EXCHANGE PSEUDO OVP (F(G))  (T4) 10**   -6
 CORE ELECTRONS PER CELL    120  EXCHANGE PSEUDO OVP (P(G))  (T5) 10**  -12
 N. OF SYMMETRY OPERATORS     1  POLE ORDER IN MONO ZONE                  4
 *******************************************************************************
 TYPE OF CALCULATION :  RESTRICTED CLOSED SHELL
 KOHN-SHAM HAMILTONIAN

 (EXCHANGE)[CORRELATION] FUNCTIONAL:(HSEsol GGA)[PBEsol]

 RANGE-SEPARATED HYBRID FUNCTIONAL 
 OMEGA (SHORT-RANGE)[LONG-RANGE]:(    0.1100)[    0.0000]

 HYBRID EXCHANGE - PERCENTAGE OF FOCK EXCHANGE    25.0000

 CAPPA:IS1  2;IS2  2;IS3  8; K PTS MONK NET  20; SYMMOPS:K SPACE   2;G SPACE   1

 *******************************************************************************
 MAX NUMBER OF SCF CYCLES      50  CONVERGENCE ON DELTAP        10**-16
 WEIGHT OF F(I) IN F(I+1)      30% CONVERGENCE ON ENERGY        10**- 6
 SHRINK. FACT.(MONKH.)    2  2  8  NUMBER OF K POINTS IN THE IBZ     20
 SHRINKING FACTOR(GILAT NET)    8  NUMBER OF K POINTS(GILAT NET)   1028
 *******************************************************************************
 *** K POINTS COORDINATES (OBLIQUE COORDINATES IN UNITS OF IS =  2)
   1-R(  0  0  0)   2-R(  1  0  0)   3-R(  0  1  0)   4-R(  1  1  0)
   5-C(  0  0  1)   6-C(  1  0  1)   7-C(  0  1  1)   8-C(  1  1  1)
   9-C(  0  0  2)  10-C(  1  0  2)  11-C(  0  1  2)  12-C(  1  1  2)
  13-C(  0  0  3)  14-C(  1  0  3)  15-C(  0  1  3)  16-C(  1  1  3)
  17-R(  0  0  4)  18-R(  1  0  4)  19-R(  0  1  4)  20-R(  1  1  4)

 DIRECT LATTICE VECTORS COMPON. (A.U.)     RECIP. LATTICE VECTORS COMPON. (A.U.) 
        X            Y            Z              X            Y            Z
   24.5879030  -14.1935232    0.0000000      0.2555397    0.0000000    0.0000005
    0.0000000   28.3910867    0.0000000      0.1277517    0.2213084    0.0000015
   -0.0000257   -0.0000682   12.0942473      0.0000000    0.0000000    0.5195185

 DISK SPACE FOR EIGENVECTORS (FTN 10)    28758528 REALS

 SYMMETRY ADAPTION OF THE BLOCH FUNCTIONS DISABLED
 TTTTTTTTTTTTTTTTTTTTTTTTTTTTTT gordsh1     TELAPSE        0.05 TCPU        0.05

 MATRIX SIZE: P(G)  814916, F(G)  155606, P(G) IRR  409624, F(G) IRR  156854
 MAX G-VECTOR INDEX FOR 1- AND 2-ELECTRON INTEGRALS  57

 TTTTTTTTTTTTTTTTTTTTTTTTTTTTTT INPUT       TELAPSE        2.91 TCPU        2.91

 NEIGHBORS OF THE NON-EQUIVALENT ATOMS

 N = NUMBER OF NEIGHBORS AT DISTANCE R
    ATOM  N     R/ANG      R/AU   NEIGHBORS (ATOM LABELS AND CELL INDICES)
   1 B    1     1.3791     2.6061   73 O   -1 0 0
   1 B    1     1.3793     2.6065   75 O    0 0 0
   1 B    1     1.5503     2.9297   49 C   -1 0 0
   1 B    1     2.3895     4.5155    5 B    0 1 0
   1 B    1     2.3898     4.5160    3 B    0 0 0
   1 B    1     2.5632     4.8437   51 C    0 0 0

   2 B    1     1.3791     2.6061   74 O    0 0 0
   2 B    1     1.3793     2.6065   76 O    0 0 0
   2 B    1     1.5503     2.9297   50 C    0 0 0
   2 B    1     2.3895     4.5155    6 B    0 0 0
   2 B    1     2.3898     4.5160    4 B    0 0 0
   2 B    1     2.5632     4.8437   52 C    0-1 0

   3 B    1     1.3793     2.6065   77 O    0 1 0
   3 B    1     1.3793     2.6065   75 O    0 0 0
   3 B    1     1.5504     2.9298   37 C    0 0 0
   3 B    1     2.3895     4.5156    5 B    0 1 0
   3 B    1     2.3898     4.5160    1 B    0 0 0
   3 B    1     2.5634     4.8440   43 C    0 1 0

   4 B    1     1.3793     2.6065   78 O    0 0 0
   4 B    1     1.3793     2.6065   76 O    0 0 0
   4 B    1     1.5504     2.9298   38 C    0 0 0
   4 B    1     2.3895     4.5156    6 B    0 0 0
   4 B    1     2.3898     4.5160    2 B    0 0 0
   4 B    1     2.5634     4.8440   44 C    0 0 0

   5 B    1     1.3791     2.6061   73 O   -1-1 0
   5 B    1     1.3793     2.6064   77 O    0 0 0
   5 B    1     1.5502     2.9294   61 C   -1-1 0
   5 B    1     2.3895     4.5155    1 B    0-1 0
   5 B    1     2.3895     4.5156    3 B    0-1 0
   5 B    1     2.5629     4.8433   63 C    0 0 0

   6 B    1     1.3791     2.6061   74 O    0 0 0
   6 B    1     1.3793     2.6064   78 O    0 0 0
   6 B    1     1.5502     2.9294   62 C    0 0 0
   6 B    1     2.3895     4.5155    2 B    0 0 0
   6 B    1     2.3895     4.5156    4 B    0 0 0
   6 B    1     2.5629     4.8433   64 C    0 0 0

   7 B    1     1.3795     2.6068   79 O    0 0 0
   7 B    1     1.3795     2.6070   81 O    0-1 0
   7 B    1     1.5513     2.9316   47 C    0 0 0
   7 B    1     2.3905     4.5174   11 B    0 0 0
   7 B    1     2.3905     4.5175    9 B    0-1 0
   7 B    1     2.5648     4.8468   45 C    0-1 0

   8 B    1     1.3795     2.6068   80 O    0 0 0
   8 B    1     1.3795     2.6070   82 O    0 0 0
   8 B    1     1.5513     2.9316   48 C    0 0 0
   8 B    1     2.3905     4.5174   12 B    0 0 0
   8 B    1     2.3905     4.5175   10 B    1 0 0
   8 B    1     2.5648     4.8468   46 C    0 0 0

   9 B    1     1.3795     2.6069   81 O    0 0 0
   9 B    1     1.3797     2.6072   83 O    1 1 0
   9 B    1     1.5516     2.9322   71 C    0 0 0
   9 B    1     2.3905     4.5175    7 B    0 1 0
   9 B    1     2.3911     4.5185   11 B    0 1 0
   9 B    1     2.5651     4.8473   69 C    1 1 0

  10 B    1     1.3795     2.6069   82 O   -1 0 0
  10 B    1     1.3797     2.6072   84 O    0 0 0
  10 B    1     1.5516     2.9322   72 C    0 0 0
  10 B    1     2.3905     4.5175    8 B   -1 0 0
  10 B    1     2.3911     4.5185   12 B   -1 0 0
  10 B    1     2.5651     4.8473   70 C    0 0 0

  11 B    1     1.3795     2.6068   79 O    0 0 0
  11 B    1     1.3796     2.6071   83 O    1 0 0
  11 B    1     1.5516     2.9322   59 C    0 0 0
  11 B    1     2.3905     4.5174    7 B    0 0 0
  11 B    1     2.3911     4.5185    9 B    0-1 0
  11 B    1     2.5651     4.8473   57 C    1 0 0

  12 B    1     1.3795     2.6068   80 O    0 0 0
  12 B    1     1.3796     2.6071   84 O    1 0 0
  12 B    1     1.5516     2.9322   60 C    0 0 0
  12 B    1     2.3905     4.5174    8 B    0 0 0
  12 B    1     2.3911     4.5185   10 B    1 0 0
  12 B    1     2.5651     4.8473   58 C    1 0 0

  13 H    1     1.0913     2.0623   39 C    0 0 0
  13 H    1     2.1472     4.0576   37 C    0 0 0
  13 H    1     2.1680     4.0969   45 C    0 0 0
  13 H    1     2.5202     4.7625   19 H    0 0 0
  13 H    1     2.5676     4.8520   75 O    0 0 0
  13 H    1     2.7321     5.1630    3 B    0 0 0

  14 H    1     1.0913     2.0623   40 C    0 0 0
  14 H    1     2.1472     4.0576   38 C    0 0 0
  14 H    1     2.1680     4.0969   46 C    0 0 0
  14 H    1     2.5202     4.7625   20 H    0 0 0
  14 H    1     2.5676     4.8520   76 O    0 0 0
  14 H    1     2.7321     5.1630    4 B    0 0 0

  15 H    1     1.0914     2.0625   41 C    0 0 0
  15 H    1     2.1493     4.0616   47 C    0 0 0
  15 H    1     2.1666     4.0942   43 C    0 0 0
  15 H    1     2.5198     4.7618   17 H    0 0 0
  15 H    1     2.5720     4.8604   79 O    0 0 0
  15 H    1     2.7362     5.1707    7 B    0 0 0

  16 H    1     1.0914     2.0625   42 C    0 0 0
  16 H    1     2.1493     4.0616   48 C    0 0 0
  16 H    1     2.1666     4.0942   44 C    0 0 0
  16 H    1     2.5198     4.7618   18 H    0 0 0
  16 H    1     2.5720     4.8604   80 O    0 0 0
  16 H    1     2.7362     5.1707    8 B    0 0 0

  17 H    1     1.0914     2.0624   43 C    0 0 0
  17 H    1     2.1471     4.0575   37 C    0-1 0
  17 H    1     2.1680     4.0970   41 C    0 0 0
  17 H    1     2.5198     4.7618   15 H    0 0 0
  17 H    1     2.5665     4.8500   77 O    0 0 0
  17 H    1     2.7315     5.1618    3 B    0-1 0

  18 H    1     1.0914     2.0624   44 C    0 0 0
  18 H    1     2.1471     4.0575   38 C    0 0 0
  18 H    1     2.1680     4.0970   42 C    0 0 0
  18 H    1     2.5198     4.7618   16 H    0 0 0
  18 H    1     2.5665     4.8500   78 O    0 0 0
  18 H    1     2.7315     5.1618    4 B    0 0 0

  19 H    1     1.0915     2.0626   45 C    0 0 0
  19 H    1     2.1490     4.0610   47 C    0 1 0
  19 H    1     2.1669     4.0948   39 C    0 0 0
  19 H    1     2.5202     4.7625   13 H    0 0 0
  19 H    1     2.5712     4.8588   81 O    0 0 0
  19 H    1     2.7351     5.1686    7 B    0 1 0

  20 H    1     1.0915     2.0626   46 C    0 0 0
  20 H    1     2.1490     4.0610   48 C    0 0 0
  20 H    1     2.1669     4.0948   40 C    0 0 0
  20 H    1     2.5202     4.7625   14 H    0 0 0
  20 H    1     2.5712     4.8588   82 O    0 0 0
  20 H    1     2.7351     5.1686    8 B    0 0 0

  21 H    1     1.0913     2.0623   51 C    0 0 0
  21 H    1     2.1469     4.0571   49 C   -1 0 0
  21 H    1     2.1680     4.0968   57 C    0 0 0
  21 H    1     2.5198     4.7617   27 H    0 0 0
  21 H    1     2.5670     4.8510   75 O    0 0 0
  21 H    1     2.7310     5.1609    1 B    0 0 0

  22 H    1     1.0913     2.0623   52 C    0 0 0
  22 H    1     2.1469     4.0571   50 C    0 1 0
  22 H    1     2.1680     4.0968   58 C    0 0 0
  22 H    1     2.5198     4.7617   28 H    0 0 0
  22 H    1     2.5670     4.8510   76 O    0 1 0
  22 H    1     2.7310     5.1609    2 B    0 1 0

  23 H    1     1.0914     2.0625   53 C    0 0 0
  23 H    1     2.1493     4.0617   59 C    0 0 0
  23 H    1     2.1664     4.0939   55 C    0 0 0
  23 H    1     2.5192     4.7606   25 H    0 0 0
  23 H    1     2.5735     4.8632   79 O    0 0 0
  23 H    1     2.7371     5.1723   11 B    0 0 0

  24 H    1     1.0914     2.0625   54 C    0 0 0
  24 H    1     2.1493     4.0617   60 C    0 0 0
  24 H    1     2.1664     4.0939   56 C    0 0 0
  24 H    1     2.5192     4.7606   26 H    0 0 0
  24 H    1     2.5735     4.8632   80 O    0 0 0
  24 H    1     2.7371     5.1723   12 B    0 0 0

  25 H    1     1.0914     2.0624   55 C    0 0 0
  25 H    1     2.1475     4.0581   49 C    0 0 0
  25 H    1     2.1679     4.0967   53 C    0 0 0
  25 H    1     2.5192     4.7606   23 H    0 0 0
  25 H    1     2.5675     4.8519   73 O    0 0 0
  25 H    1     2.7328     5.1643    1 B    1 0 0

  26 H    1     1.0914     2.0624   56 C    0 0 0
  26 H    1     2.1475     4.0581   50 C    1 1 0
  26 H    1     2.1679     4.0967   54 C    0 0 0
  26 H    1     2.5192     4.7606   24 H    0 0 0
  26 H    1     2.5675     4.8519   74 O    1 1 0
  26 H    1     2.7328     5.1643    2 B    1 1 0

  27 H    1     1.0914     2.0625   57 C    0 0 0
  27 H    1     2.1491     4.0612   59 C   -1 0 0
  27 H    1     2.1666     4.0942   51 C    0 0 0
  27 H    1     2.5198     4.7617   21 H    0 0 0
  27 H    1     2.5723     4.8609   83 O    0 0 0
  27 H    1     2.7355     5.1693   11 B   -1 0 0

  28 H    1     1.0914     2.0625   58 C    0 0 0
  28 H    1     2.1491     4.0612   60 C   -1 0 0
  28 H    1     2.1666     4.0942   52 C    0 0 0
  28 H    1     2.5198     4.7617   22 H    0 0 0
  28 H    1     2.5723     4.8609   84 O    0 0 0
  28 H    1     2.7355     5.1693   12 B   -1 0 0

  29 H    1     1.0914     2.0624   63 C    0 0 0
  29 H    1     2.1475     4.0582   61 C   -1-1 0
  29 H    1     2.1678     4.0966   69 C    0 0 0
  29 H    1     2.5200     4.7621   35 H    0 0 0
  29 H    1     2.5667     4.8503   77 O    0 0 0
  29 H    1     2.7315     5.1618    5 B    0 0 0

  30 H    1     1.0914     2.0624   64 C    0 0 0
  30 H    1     2.1475     4.0582   62 C    0 0 0
  30 H    1     2.1678     4.0966   70 C    0 0 0
  30 H    1     2.5200     4.7621   36 H    0 0 0
  30 H    1     2.5667     4.8503   78 O    0 0 0
  30 H    1     2.7315     5.1618    6 B    0 0 0

  31 H    1     1.0913     2.0623   65 C    0 0 0
  31 H    1     2.1487     4.0605   71 C    0 0 0
  31 H    1     2.1667     4.0945   67 C    0 0 0
  31 H    1     2.5197     4.7616   33 H    0 0 0
  31 H    1     2.5723     4.8610   81 O    0 0 0
  31 H    1     2.7359     5.1701    9 B    0 0 0

  32 H    1     1.0913     2.0623   66 C    0 0 0
  32 H    1     2.1487     4.0605   72 C    0 0 0
  32 H    1     2.1667     4.0945   68 C    0 0 0
  32 H    1     2.5197     4.7616   34 H    0 0 0
  32 H    1     2.5723     4.8610   82 O   -1 0 0
  32 H    1     2.7359     5.1701   10 B    0 0 0

  33 H    1     1.0915     2.0626   67 C    0 0 0
  33 H    1     2.1479     4.0589   61 C    0 0 0
  33 H    1     2.1679     4.0968   65 C    0 0 0
  33 H    1     2.5197     4.7616   31 H    0 0 0
  33 H    1     2.5677     4.8522   73 O    0 0 0
  33 H    1     2.7331     5.1648    5 B    1 1 0

  34 H    1     1.0915     2.0626   68 C    0 0 0
  34 H    1     2.1479     4.0589   62 C    0 0 0
  34 H    1     2.1679     4.0968   66 C    0 0 0
  34 H    1     2.5197     4.7616   32 H    0 0 0
  34 H    1     2.5677     4.8522   74 O    0 0 0
  34 H    1     2.7331     5.1648    6 B    0 0 0

  35 H    1     1.0914     2.0624   69 C    0 0 0
  35 H    1     2.1486     4.0602   71 C   -1-1 0
  35 H    1     2.1668     4.0947   63 C    0 0 0
  35 H    1     2.5200     4.7621   29 H    0 0 0
  35 H    1     2.5717     4.8598   83 O    0 0 0
  35 H    1     2.7349     5.1682    9 B   -1-1 0

  36 H    1     1.0914     2.0624   70 C    0 0 0
  36 H    1     2.1486     4.0602   72 C    0 0 0
  36 H    1     2.1668     4.0947   64 C    0 0 0
  36 H    1     2.5200     4.7621   30 H    0 0 0
  36 H    1     2.5717     4.8598   84 O    0 0 0
  36 H    1     2.7349     5.1682   10 B    0 0 0

  37 C    1     1.4020     2.6495   43 C    0 1 0
  37 C    1     1.4021     2.6495   39 C    0 0 0
  37 C    1     1.5504     2.9298    3 B    0 0 0
  37 C    1     2.1471     4.0575   17 H    0 1 0
  37 C    1     2.1472     4.0576   13 H    0 0 0
  37 C    1     2.4246     4.5817   41 C    0 1 0

  38 C    1     1.4020     2.6495   44 C    0 0 0
  38 C    1     1.4021     2.6495   40 C    0 0 0
  38 C    1     1.5504     2.9298    4 B    0 0 0
  38 C    1     2.1471     4.0575   18 H    0 0 0
  38 C    1     2.1472     4.0576   14 H    0 0 0
  38 C    1     2.4246     4.5817   42 C    0 0 0

  39 C    1     1.0913     2.0623   13 H    0 0 0
  39 C    1     1.3914     2.6294   45 C    0 0 0
  39 C    1     1.4021     2.6495   37 C    0 0 0
  39 C    1     2.1669     4.0948   19 H    0 0 0
  39 C    1     2.4177     4.5688   43 C    0 1 0
  39 C    1     2.4250     4.5825   47 C    0 1 0

  40 C    1     1.0913     2.0623   14 H    0 0 0
  40 C    1     1.3914     2.6294   46 C    0 0 0
  40 C    1     1.4021     2.6495   38 C    0 0 0
  40 C    1     2.1669     4.0948   20 H    0 0 0
  40 C    1     2.4177     4.5688   44 C    0 0 0
  40 C    1     2.4250     4.5825   48 C    0 0 0

  41 C    1     1.0914     2.0625   15 H    0 0 0
  41 C    1     1.3914     2.6293   43 C    0 0 0
  41 C    1     1.4026     2.6505   47 C    0 0 0
  41 C    1     2.1680     4.0970   17 H    0 0 0
  41 C    1     2.4182     4.5697   45 C    0-1 0
  41 C    1     2.4246     4.5817   37 C    0-1 0

  42 C    1     1.0914     2.0625   16 H    0 0 0
  42 C    1     1.3914     2.6293   44 C    0 0 0
  42 C    1     1.4026     2.6505   48 C    0 0 0
  42 C    1     2.1680     4.0970   18 H    0 0 0
  42 C    1     2.4182     4.5697   46 C    0 0 0
  42 C    1     2.4246     4.5817   38 C    0 0 0

  43 C    1     1.0914     2.0624   17 H    0 0 0
  43 C    1     1.3914     2.6293   41 C    0 0 0
  43 C    1     1.4020     2.6495   37 C    0-1 0
  43 C    1     2.1666     4.0942   15 H    0 0 0
  43 C    1     2.4177     4.5688   39 C    0-1 0
  43 C    1     2.4250     4.5826   47 C    0 0 0

  44 C    1     1.0914     2.0624   18 H    0 0 0
  44 C    1     1.3914     2.6293   42 C    0 0 0
  44 C    1     1.4020     2.6495   38 C    0 0 0
  44 C    1     2.1666     4.0942   16 H    0 0 0
  44 C    1     2.4177     4.5688   40 C    0 0 0
  44 C    1     2.4250     4.5826   48 C    0 0 0

  45 C    1     1.0915     2.0626   19 H    0 0 0
  45 C    1     1.3914     2.6294   39 C    0 0 0
  45 C    1     1.4025     2.6504   47 C    0 1 0
  45 C    1     2.1680     4.0969   13 H    0 0 0
  45 C    1     2.4182     4.5697   41 C    0 1 0
  45 C    1     2.4246     4.5818   37 C    0 0 0

  46 C    1     1.0915     2.0626   20 H    0 0 0
  46 C    1     1.3914     2.6294   40 C    0 0 0
  46 C    1     1.4025     2.6504   48 C    0 0 0
  46 C    1     2.1680     4.0969   14 H    0 0 0
  46 C    1     2.4182     4.5697   42 C    0 0 0
  46 C    1     2.4246     4.5818   38 C    0 0 0

  47 C    1     1.4025     2.6504   45 C    0-1 0
  47 C    1     1.4026     2.6505   41 C    0 0 0
  47 C    1     1.5513     2.9316    7 B    0 0 0
  47 C    1     2.1490     4.0610   19 H    0-1 0
  47 C    1     2.1493     4.0616   15 H    0 0 0
  47 C    1     2.4250     4.5825   39 C    0-1 0

  48 C    1     1.4025     2.6504   46 C    0 0 0
  48 C    1     1.4026     2.6505   42 C    0 0 0
  48 C    1     1.5513     2.9316    8 B    0 0 0
  48 C    1     2.1490     4.0610   20 H    0 0 0
  48 C    1     2.1493     4.0616   16 H    0 0 0
  48 C    1     2.4250     4.5825   40 C    0 0 0

  49 C    1     1.4020     2.6494   51 C    1 0 0
  49 C    1     1.4021     2.6495   55 C    0 0 0
  49 C    1     1.5503     2.9297    1 B    1 0 0
  49 C    1     2.1469     4.0571   21 H    1 0 0
  49 C    1     2.1475     4.0581   25 H    0 0 0
  49 C    1     2.4246     4.5818   53 C    0 0 0

  50 C    1     1.4020     2.6494   52 C    0-1 0
  50 C    1     1.4021     2.6495   56 C   -1-1 0
  50 C    1     1.5503     2.9297    2 B    0 0 0
  50 C    1     2.1469     4.0571   22 H    0-1 0
  50 C    1     2.1475     4.0581   26 H   -1-1 0
  50 C    1     2.4246     4.5818   54 C   -1-1 0

  51 C    1     1.0913     2.0623   21 H    0 0 0
  51 C    1     1.3914     2.6293   57 C    0 0 0
  51 C    1     1.4020     2.6494   49 C   -1 0 0
  51 C    1     2.1666     4.0942   27 H    0 0 0
  51 C    1     2.4175     4.5684   55 C   -1 0 0
  51 C    1     2.4251     4.5828   59 C   -1 0 0

  52 C    1     1.0913     2.0623   22 H    0 0 0
  52 C    1     1.3914     2.6293   58 C    0 0 0
  52 C    1     1.4020     2.6494   50 C    0 1 0
  52 C    1     2.1666     4.0942   28 H    0 0 0
  52 C    1     2.4175     4.5684   56 C   -1 0 0
  52 C    1     2.4251     4.5828   60 C   -1 0 0

  53 C    1     1.0914     2.0625   23 H    0 0 0
  53 C    1     1.3915     2.6295   55 C    0 0 0
  53 C    1     1.4026     2.6505   59 C    0 0 0
  53 C    1     2.1679     4.0967   25 H    0 0 0
  53 C    1     2.4179     4.5691   57 C    1 0 0
  53 C    1     2.4246     4.5818   49 C    0 0 0

  54 C    1     1.0914     2.0625   24 H    0 0 0
  54 C    1     1.3915     2.6295   56 C    0 0 0
  54 C    1     1.4026     2.6505   60 C    0 0 0
  54 C    1     2.1679     4.0967   26 H    0 0 0
  54 C    1     2.4179     4.5691   58 C    1 0 0
  54 C    1     2.4246     4.5818   50 C    1 1 0

  55 C    1     1.0914     2.0624   25 H    0 0 0
  55 C    1     1.3915     2.6295   53 C    0 0 0
  55 C    1     1.4021     2.6495   49 C    0 0 0
  55 C    1     2.1664     4.0939   23 H    0 0 0
  55 C    1     2.4175     4.5684   51 C    1 0 0
  55 C    1     2.4253     4.5832   59 C    0 0 0

  56 C    1     1.0914     2.0624   26 H    0 0 0
  56 C    1     1.3915     2.6295   54 C    0 0 0
  56 C    1     1.4021     2.6495   50 C    1 1 0
  56 C    1     2.1664     4.0939   24 H    0 0 0
  56 C    1     2.4175     4.5684   52 C    1 0 0
  56 C    1     2.4253     4.5832   60 C    0 0 0

  57 C    1     1.0914     2.0625   27 H    0 0 0
  57 C    1     1.3914     2.6293   51 C    0 0 0
  57 C    1     1.4025     2.6504   59 C   -1 0 0
  57 C    1     2.1680     4.0968   21 H    0 0 0
  57 C    1     2.4179     4.5691   53 C   -1 0 0
  57 C    1     2.4247     4.5819   49 C   -1 0 0

  58 C    1     1.0914     2.0625   28 H    0 0 0
  58 C    1     1.3914     2.6293   52 C    0 0 0
  58 C    1     1.4025     2.6504   60 C   -1 0 0
  58 C    1     2.1680     4.0968   22 H    0 0 0
  58 C    1     2.4179     4.5691   54 C   -1 0 0
  58 C    1     2.4247     4.5819   50 C    0 1 0

  59 C    1     1.4025     2.6504   57 C    1 0 0
  59 C    1     1.4026     2.6505   53 C    0 0 0
  59 C    1     1.5516     2.9322   11 B    0 0 0
  59 C    1     2.1491     4.0612   27 H    1 0 0
  59 C    1     2.1493     4.0617   23 H    0 0 0
  59 C    1     2.4251     4.5828   51 C    1 0 0

  60 C    1     1.4025     2.6504   58 C    1 0 0
  60 C    1     1.4026     2.6505   54 C    0 0 0
  60 C    1     1.5516     2.9322   12 B    0 0 0
  60 C    1     2.1491     4.0612   28 H    1 0 0
  60 C    1     2.1493     4.0617   24 H    0 0 0
  60 C    1     2.4251     4.5828   52 C    1 0 0

  61 C    1     1.4021     2.6496   63 C    1 1 0
  61 C    1     1.4021     2.6497   67 C    0 0 0
  61 C    1     1.5502     2.9294    5 B    1 1 0
  61 C    1     2.1475     4.0582   29 H    1 1 0
  61 C    1     2.1479     4.0589   33 H    0 0 0
  61 C    1     2.4244     4.5814   65 C    0 0 0

  62 C    1     1.4021     2.6496   64 C    0 0 0
  62 C    1     1.4021     2.6497   68 C    0 0 0
  62 C    1     1.5502     2.9294    6 B    0 0 0
  62 C    1     2.1475     4.0582   30 H    0 0 0
  62 C    1     2.1479     4.0589   34 H    0 0 0
  62 C    1     2.4244     4.5814   66 C    0 0 0

  63 C    1     1.0914     2.0624   29 H    0 0 0
  63 C    1     1.3914     2.6293   69 C    0 0 0
  63 C    1     1.4021     2.6496   61 C   -1-1 0
  63 C    1     2.1668     4.0947   35 H    0 0 0
  63 C    1     2.4179     4.5692   67 C   -1-1 0
  63 C    1     2.4251     4.5827   71 C   -1-1 0

  64 C    1     1.0914     2.0624   30 H    0 0 0
  64 C    1     1.3914     2.6293   70 C    0 0 0
  64 C    1     1.4021     2.6496   62 C    0 0 0
  64 C    1     2.1668     4.0947   36 H    0 0 0
  64 C    1     2.4179     4.5692   68 C    0 0 0
  64 C    1     2.4251     4.5827   72 C    0 0 0

  65 C    1     1.0913     2.0623   31 H    0 0 0
  65 C    1     1.3914     2.6294   67 C    0 0 0
  65 C    1     1.4025     2.6504   71 C    0 0 0
  65 C    1     2.1679     4.0968   33 H    0 0 0
  65 C    1     2.4178     4.5690   69 C    1 1 0
  65 C    1     2.4244     4.5814   61 C    0 0 0

  66 C    1     1.0913     2.0623   32 H    0 0 0
  66 C    1     1.3914     2.6294   68 C    0 0 0
  66 C    1     1.4025     2.6504   72 C    0 0 0
  66 C    1     2.1679     4.0968   34 H    0 0 0
  66 C    1     2.4178     4.5690   70 C    0 0 0
  66 C    1     2.4244     4.5814   62 C    0 0 0

  67 C    1     1.0915     2.0626   33 H    0 0 0
  67 C    1     1.3914     2.6294   65 C    0 0 0
  67 C    1     1.4021     2.6497   61 C    0 0 0
  67 C    1     2.1667     4.0945   31 H    0 0 0
  67 C    1     2.4179     4.5692   63 C    1 1 0
  67 C    1     2.4253     4.5832   71 C    0 0 0

  68 C    1     1.0915     2.0626   34 H    0 0 0
  68 C    1     1.3914     2.6294   66 C    0 0 0
  68 C    1     1.4021     2.6497   62 C    0 0 0
  68 C    1     2.1667     4.0945   32 H    0 0 0
  68 C    1     2.4179     4.5692   64 C    0 0 0
  68 C    1     2.4253     4.5832   72 C    0 0 0

  69 C    1     1.0914     2.0624   35 H    0 0 0
  69 C    1     1.3914     2.6293   63 C    0 0 0
  69 C    1     1.4025     2.6503   71 C   -1-1 0
  69 C    1     2.1678     4.0966   29 H    0 0 0
  69 C    1     2.4178     4.5690   65 C   -1-1 0
  69 C    1     2.4245     4.5817   61 C   -1-1 0

  70 C    1     1.0914     2.0624   36 H    0 0 0
  70 C    1     1.3914     2.6293   64 C    0 0 0
  70 C    1     1.4025     2.6503   72 C    0 0 0
  70 C    1     2.1678     4.0966   30 H    0 0 0
  70 C    1     2.4178     4.5690   66 C    0 0 0
  70 C    1     2.4245     4.5817   62 C    0 0 0

  71 C    1     1.4025     2.6503   69 C    1 1 0
  71 C    1     1.4025     2.6504   65 C    0 0 0
  71 C    1     1.5516     2.9322    9 B    0 0 0
  71 C    1     2.1486     4.0602   35 H    1 1 0
  71 C    1     2.1487     4.0605   31 H    0 0 0
  71 C    1     2.4251     4.5827   63 C    1 1 0

  72 C    1     1.4025     2.6503   70 C    0 0 0
  72 C    1     1.4025     2.6504   66 C    0 0 0
  72 C    1     1.5516     2.9322   10 B    0 0 0
  72 C    1     2.1486     4.0602   36 H    0 0 0
  72 C    1     2.1487     4.0605   32 H    0 0 0
  72 C    1     2.4251     4.5827   64 C    0 0 0

  73 O    1     1.3791     2.6061    1 B    1 0 0
  73 O    1     1.3791     2.6061    5 B    1 1 0
  73 O    1     2.3880     4.5126   75 O    1 0 0
  73 O    1     2.3882     4.5130   77 O    1 1 0
  73 O    1     2.5383     4.7966   61 C    0 0 0
  73 O    1     2.5384     4.7968   49 C    0 0 0

  74 O    1     1.3791     2.6061    2 B    0 0 0
  74 O    1     1.3791     2.6061    6 B    0 0 0
  74 O    1     2.3880     4.5126   76 O    0 0 0
  74 O    1     2.3882     4.5130   78 O    0 0 0
  74 O    1     2.5383     4.7966   62 C    0 0 0
  74 O    1     2.5384     4.7968   50 C    0 0 0

  75 O    1     1.3793     2.6065    1 B    0 0 0
  75 O    1     1.3793     2.6065    3 B    0 0 0
  75 O    1     2.3880     4.5126   73 O   -1 0 0
  75 O    1     2.3882     4.5131   77 O    0 1 0
  75 O    1     2.5391     4.7981   37 C    0 0 0
  75 O    1     2.5395     4.7990   49 C   -1 0 0

  76 O    1     1.3793     2.6065    2 B    0 0 0
  76 O    1     1.3793     2.6065    4 B    0 0 0
  76 O    1     2.3880     4.5126   74 O    0 0 0
  76 O    1     2.3882     4.5131   78 O    0 0 0
  76 O    1     2.5391     4.7981   38 C    0 0 0
  76 O    1     2.5395     4.7990   50 C    0 0 0

  77 O    1     1.3793     2.6064    5 B    0 0 0
  77 O    1     1.3793     2.6065    3 B    0-1 0
  77 O    1     2.3882     4.5130   73 O   -1-1 0
  77 O    1     2.3882     4.5131   75 O    0-1 0
  77 O    1     2.5390     4.7980   37 C    0-1 0
  77 O    1     2.5391     4.7982   61 C   -1-1 0

  78 O    1     1.3793     2.6064    6 B    0 0 0
  78 O    1     1.3793     2.6065    4 B    0 0 0
  78 O    1     2.3882     4.5130   74 O    0 0 0
  78 O    1     2.3882     4.5131   76 O    0 0 0
  78 O    1     2.5390     4.7980   38 C    0 0 0
  78 O    1     2.5391     4.7982   62 C    0 0 0

  79 O    1     1.3795     2.6068   11 B    0 0 0
  79 O    1     1.3795     2.6068    7 B    0 0 0
  79 O    1     2.3880     4.5126   83 O    1 0 0
  79 O    1     2.3884     4.5134   81 O    0-1 0
  79 O    1     2.5400     4.7998   47 C    0 0 0
  79 O    1     2.5403     4.8005   59 C    0 0 0

  80 O    1     1.3795     2.6068   12 B    0 0 0
  80 O    1     1.3795     2.6068    8 B    0 0 0
  80 O    1     2.3880     4.5126   84 O    1 0 0
  80 O    1     2.3884     4.5134   82 O    0 0 0
  80 O    1     2.5400     4.7998   48 C    0 0 0
  80 O    1     2.5403     4.8005   60 C    0 0 0

  81 O    1     1.3795     2.6069    9 B    0 0 0
  81 O    1     1.3795     2.6070    7 B    0 1 0
  81 O    1     2.3881     4.5128   83 O    1 1 0
  81 O    1     2.3884     4.5134   79 O    0 1 0
  81 O    1     2.5404     4.8006   47 C    0 1 0
  81 O    1     2.5405     4.8008   71 C    0 0 0

  82 O    1     1.3795     2.6069   10 B    1 0 0
  82 O    1     1.3795     2.6070    8 B    0 0 0
  82 O    1     2.3881     4.5128   84 O    1 0 0
  82 O    1     2.3884     4.5134   80 O    0 0 0
  82 O    1     2.5404     4.8006   48 C    0 0 0
  82 O    1     2.5405     4.8008   72 C    1 0 0

  83 O    1     1.3796     2.6071   11 B   -1 0 0
  83 O    1     1.3797     2.6072    9 B   -1-1 0
  83 O    1     2.3880     4.5126   79 O   -1 0 0
  83 O    1     2.3881     4.5128   81 O   -1-1 0
  83 O    1     2.5409     4.8016   71 C   -1-1 0
  83 O    1     2.5410     4.8019   59 C   -1 0 0

  84 O    1     1.3796     2.6071   12 B   -1 0 0
  84 O    1     1.3797     2.6072   10 B    0 0 0
  84 O    1     2.3880     4.5126   80 O   -1 0 0
  84 O    1     2.3881     4.5128   82 O   -1 0 0
  84 O    1     2.5409     4.8016   72 C    0 0 0
  84 O    1     2.5410     4.8019   60 C   -1 0 0


 SYMMETRY ALLOWED INTERNAL DEGREE(S) OF FREEDOM: 249
 TTTTTTTTTTTTTTTTTTTTTTTTTTTTTT SYMM        TELAPSE        2.92 TCPU        2.91
 TTTTTTTTTTTTTTTTTTTTTTTTTTTTTT INT_SCREEN  TELAPSE        3.14 TCPU        3.13

 DFT PARAMETERS

     ATOM       ELECTRONS   NET CHARGE   R(ANGSTROM)
   1   5  B       5.0000      0.0000     0.89000000
  13   1  H       1.0000      0.0000     1.11000000
  37   6  C       6.0000      0.0000     0.77000000
  73   8  O       8.0000      0.0000     0.74000000

 SIZE OF GRID=    2488559
 TTTTTTTTTTTTTTTTTTTTTTTTTTTTTT MAKE_GRID2  TELAPSE       27.68 TCPU       27.64
 BECKE WEIGHT FUNCTION
 RADSAFE =     2.00
 TOLERANCES - DENSITY:10**- 6; POTENTIAL:10**- 9; GRID WGT:10**-14

 RADIAL INTEGRATION  - INTERVALS (POINTS,UPPER LIMIT):            1( 75,  4.0*R)

 ANGULAR INTEGRATION - INTERVALS (ACCURACY LEVEL [N. POINTS] UPPER LIMIT):
  1(  4[  86]   0.2)  2(  8[ 194]   0.5)  3( 12[ 350]   0.9)  4( 16[ 974]   3.5)
  5( 12[ 350]9999.0)
 TTTTTTTTTTTTTTTTTTTTTTTTTTTTTT INT_CALC    TELAPSE       27.98 TCPU       27.95
 EEEEEEEEEE INT_CALC TERMINATION  DATE 19 02 2026 TIME 19:50:31.2

 *******************************************************************************
 cof-1_z32_L040_serr                                                             
 CRYSTAL - SCF - TYPE OF CALCULATION :  RESTRICTED CLOSED SHELL
 *******************************************************************************

 CAPPA:IS1  2;IS2  2;IS3  8; K PTS MONK NET  20; SYMMOPS:K SPACE   2;G SPACE   1

 TTTTTTTTTTTTTTTTTTTTTTTTTTTTTT SDIK        TELAPSE       30.79 TCPU       74.76

 AAAAAAAAAAAAAAAAAAAAAAAAAAAAAAAAAAAAAAAAAAAAAAAAAAAAAAAAAAAAAAAAAAAAAAAAAAAAAAA
         ATOMIC WAVEFUNCTION(S)


 NUCLEAR CHARGE  5.0  SYMMETRY SPECIES            S    P
 N. ELECTRONS    5.0  NUMBER OF PRIMITIVE GTOS    8    4
                      NUMBER OF CONTRACTED GTOS   4    2
                      NUMBER OF CLOSED SHELLS     2    0
                      OPEN SHELL OCCUPATION       0    1

  ZNUC  SCFIT    TOTAL HF ENERGY   KINETIC ENERGY   VIRIAL THEOREM ACCURACY
   5.0    11    -2.451164084E+01  2.462155050E+01 -1.995536038E+00  1.5E-06

 NUCLEAR CHARGE  1.0  SYMMETRY SPECIES            S
 N. ELECTRONS    1.0  NUMBER OF PRIMITIVE GTOS    4
                      NUMBER OF CONTRACTED GTOS   2
                      NUMBER OF CLOSED SHELLS     0
                      OPEN SHELL OCCUPATION       1

  ZNUC  SCFIT    TOTAL HF ENERGY   KINETIC ENERGY   VIRIAL THEOREM ACCURACY
   1.0     1    -4.977266687E-01  5.190767460E-01 -1.958869132E+00  0.0E+00

 NUCLEAR CHARGE  6.0  SYMMETRY SPECIES            S    P
 N. ELECTRONS    6.0  NUMBER OF PRIMITIVE GTOS    8    4
                      NUMBER OF CONTRACTED GTOS   4    2
                      NUMBER OF CLOSED SHELLS     2    0
                      OPEN SHELL OCCUPATION       0    2

  ZNUC  SCFIT    TOTAL HF ENERGY   KINETIC ENERGY   VIRIAL THEOREM ACCURACY
   6.0     9    -3.766704647E+01  3.775180683E+01 -1.997754800E+00  1.1E-06

 NUCLEAR CHARGE  8.0  SYMMETRY SPECIES            S    P
 N. ELECTRONS    8.0  NUMBER OF PRIMITIVE GTOS    8    4
                      NUMBER OF CONTRACTED GTOS   4    2
                      NUMBER OF CLOSED SHELLS     2    0
                      OPEN SHELL OCCUPATION       0    4

  ZNUC  SCFIT    TOTAL HF ENERGY   KINETIC ENERGY   VIRIAL THEOREM ACCURACY
   8.0    12    -7.477373220E+01  7.477365593E+01 -2.000001020E+00  3.8E-06

 AAAAAAAAAAAAAAAAAAAAAAAAAAAAAAAAAAAAAAAAAAAAAAAAAAAAAAAAAAAAAAAAAAAAAAAAAAAAAAA

 CHARGE NORMALIZATION FACTOR   1.00000000
 TOTAL ATOMIC CHARGES:
   5.0000000   5.0000000   5.0000000   5.0000000   5.0000000   5.0000000
   5.0000000   5.0000000   5.0000000   5.0000000   5.0000000   5.0000000
   1.0000000   1.0000000   1.0000000   1.0000000   1.0000000   1.0000000
   1.0000000   1.0000000   1.0000000   1.0000000   1.0000000   1.0000000
   1.0000000   1.0000000   1.0000000   1.0000000   1.0000000   1.0000000
   1.0000000   1.0000000   1.0000000   1.0000000   1.0000000   1.0000000
   6.0000000   6.0000000   6.0000000   6.0000000   6.0000000   6.0000000
   6.0000000   6.0000000   6.0000000   6.0000000   6.0000000   6.0000000
   6.0000000   6.0000000   6.0000000   6.0000000   6.0000000   6.0000000
   6.0000000   6.0000000   6.0000000   6.0000000   6.0000000   6.0000000
   6.0000000   6.0000000   6.0000000   6.0000000   6.0000000   6.0000000
   6.0000000   6.0000000   6.0000000   6.0000000   6.0000000   6.0000000
   8.0000000   8.0000000   8.0000000   8.0000000   8.0000000   8.0000000
   8.0000000   8.0000000   8.0000000   8.0000000   8.0000000   8.0000000
 TTTTTTTTTTTTTTTTTTTTTTTTTTTTTT MOQGAD      TELAPSE       30.97 TCPU       79.08
 TTTTTTTTTTTTTTTTTTTTTTTTTTTTTT SHELLXN     TELAPSE       56.29 TCPU      886.12
 TTTTTTTTTTTTTTTTTTTTTTTTTTTTTT MONMO3      TELAPSE       56.93 TCPU      906.61
 NUMERICALLY INTEGRATED DENSITY    395.9999801128
 TTTTTTTTTTTTTTTTTTTTTTTTTTTTTT NUMDFT      TELAPSE       58.71 TCPU      963.48
 CYC   0 ETOT(AU) -2.592008958740E+03 DETOT -2.59E+03 tst  0.00E+00 PX  1.00E+00
 TTTTTTTTTTTTTTTTTTTTTTTTTTTTTT DIIS        TELAPSE       58.86 TCPU      968.28
 TTTTTTTTTTTTTTTTTTTTTTTTTTTTTT FDIK        TELAPSE       60.91 TCPU     1033.57
 INSULATING STATE
 TOP OF VALENCE BANDS -    BAND    198; K    3; EIG -3.0670286E-01 AU
 TOP OF VALENCE BANDS -    BAND    198; K    1; EIG -3.0707512E-01 AU
 BOTTOM OF VIRTUAL BANDS - BAND    199; K    1; EIG -1.6732112E-01 AU
 INDIRECT ENERGY BAND GAP:   3.7928 eV
 TTTTTTTTTTTTTTTTTTTTTTTTTTTTTT PDIG        TELAPSE       62.56 TCPU     1040.57
 CHARGE NORMALIZATION FACTOR   1.00000000
 TOTAL ATOMIC CHARGES:
   4.1447493   4.1304013   4.1466635   4.1612813   4.1468726   4.1615457
   4.1611491   4.1465787   4.1609236   4.1463804   4.1301062   4.1443858
   0.7860058   0.7858229   0.7859314   0.7861183   0.7828054   0.7853558
   0.7854738   0.7829234   0.7864494   0.7854127   0.7855872   0.7866119
   0.7864393   0.7854037   0.7855414   0.7865712   0.7828057   0.7853566
   0.7855384   0.7829878   0.7859591   0.7857746   0.7859273   0.7861110
   6.0474231   6.0438470   6.2707882   6.2682176   6.2681857   6.2707488
   6.2686594   6.2662462   6.2661937   6.2686122   6.0431072   6.0466625
   6.0520600   6.0479394   6.2529762   6.2654479   6.2655017   6.2530138
   6.2529033   6.2653679   6.2655269   6.2529931   6.0466606   6.0508253
   6.0478026   6.0442278   6.2684449   6.2660006   6.2665684   6.2689988
   6.2704302   6.2678264   6.2684562   6.2710332   6.0426472   6.0461621
   8.7100252   8.6968625   8.7101239   8.6969776   8.7141880   8.6913203
   8.6972961   8.7104396   8.6917353   8.7145028   8.6974614   8.7106094
 TTTTTTTTTTTTTTTTTTTTTTTTTTTTTT MOQGAD      TELAPSE       62.67 TCPU     1040.68
 TTTTTTTTTTTTTTTTTTTTTTTTTTTTTT SHELLXN     TELAPSE       89.11 TCPU     1883.95
 TTTTTTTTTTTTTTTTTTTTTTTTTTTTTT MONMO3      TELAPSE       89.74 TCPU     1904.38
 NUMERICALLY INTEGRATED DENSITY    395.9999898847
 TTTTTTTTTTTTTTTTTTTTTTTTTTTTTT NUMDFT      TELAPSE       91.51 TCPU     1960.77
 CYC   1 ETOT(AU) -2.577664848099E+03 DETOT  1.43E+01 tst  0.00E+00 PX  1.00E+00
 TTTTTTTTTTTTTTTTTTTTTTTTTTTTTT DIIS        TELAPSE       91.68 TCPU     1966.24
 DIIS TEST: 0.21580E+01 AT SCF   CYCLE   1 - MIX   30 %
 TTTTTTTTTTTTTTTTTTTTTTTTTTTTTT FDIK        TELAPSE       93.71 TCPU     2030.90
 INSULATING STATE
 TOP OF VALENCE BANDS -    BAND    198; K    2; EIG -2.1805407E-01 AU
 TOP OF VALENCE BANDS -    BAND    198; K    1; EIG -2.1829245E-01 AU
 BOTTOM OF VIRTUAL BANDS - BAND    199; K    1; EIG -9.1870752E-02 AU
 INDIRECT ENERGY BAND GAP:   3.4336 eV
 TTTTTTTTTTTTTTTTTTTTTTTTTTTTTT PDIG        TELAPSE       95.33 TCPU     2037.88
 CHARGE NORMALIZATION FACTOR   1.00000000
 TOTAL ATOMIC CHARGES:
   4.6338984   4.6408438   4.6603061   4.7118874   4.6602090   4.7119307
   4.7121449   4.6607470   4.7121086   4.6607784   4.6411246   4.6338237
   0.9140985   0.8951200   0.8952212   0.9140873   0.9247991   0.9156214
   0.9156731   0.9248967   0.9046348   0.8832664   0.8832465   0.9047745
   0.9046203   0.8832498   0.8832227   0.9047028   0.9247802   0.9156123
   0.9157448   0.9249626   0.9140405   0.8950599   0.8952264   0.9140682
   5.8642549   5.8831164   6.1573100   6.1116662   6.1120966   6.1577390
   6.1306007   6.1541642   6.1548384   6.1314666   5.8858740   5.8669524
   5.9052774   5.9212576   6.1321138   6.1699243   6.1707285   6.1329018
   6.1323164   6.1699893   6.1707262   6.1329380   5.9246914   5.9081416
   5.8641655   5.8830552   6.1307253   6.1542009   6.1547324   6.1314677
   6.1575391   6.1118423   6.1118458   6.1574550   5.8860806   5.8671110
   8.3440634   8.3273990   8.3444738   8.3277621   8.3732427   8.3426243
   8.3272821   8.3438345   8.3423749   8.3732366   8.3276737   8.3441940
 TTTTTTTTTTTTTTTTTTTTTTTTTTTTTT MOQGAD      TELAPSE       95.44 TCPU     2037.99
 TTTTTTTTTTTTTTTTTTTTTTTTTTTTTT SHELLXN     TELAPSE      121.73 TCPU     2873.88
 TTTTTTTTTTTTTTTTTTTTTTTTTTTTTT MONMO3      TELAPSE      122.37 TCPU     2894.35
 NUMERICALLY INTEGRATED DENSITY    395.9999796441
 TTTTTTTTTTTTTTTTTTTTTTTTTTTTTT NUMDFT      TELAPSE      124.20 TCPU     2952.72
 CYC   2 ETOT(AU) -2.578045460080E+03 DETOT -3.81E-01 tst  3.56E-03 PX  1.60E-01
 TTTTTTTTTTTTTTTTTTTTTTTTTTTTTT DIIS        TELAPSE      124.39 TCPU     2958.69
 DIIS TEST: 0.88835E+00 AT SCF   CYCLE   2 - DIIS ACTIVE - HISTORY:     2 CYCLES
 TTTTTTTTTTTTTTTTTTTTTTTTTTTTTT FDIK        TELAPSE      126.46 TCPU     3024.85
 INSULATING STATE
 TOP OF VALENCE BANDS -    BAND    198; K    3; EIG -2.3046806E-01 AU
 TOP OF VALENCE BANDS -    BAND    198; K    1; EIG -2.3081679E-01 AU
 BOTTOM OF VIRTUAL BANDS - BAND    199; K    1; EIG -8.7218023E-02 AU
 INDIRECT ENERGY BAND GAP:   3.8980 eV
 TTTTTTTTTTTTTTTTTTTTTTTTTTTTTT PDIG        TELAPSE      128.09 TCPU     3031.85
 CHARGE NORMALIZATION FACTOR   1.00000000
 TOTAL ATOMIC CHARGES:
   4.4541028   4.4326937   4.4698363   4.5045223   4.4699312   4.5046672
   4.5041006   4.4693261   4.5039294   4.4691684   4.4320163   4.4538913
   0.8950542   0.8738128   0.8738179   0.8953508   0.8954406   0.8944206
   0.8945319   0.8954173   0.8862784   0.8733879   0.8738392   0.8862634
   0.8863067   0.8733923   0.8737813   0.8861796   0.8954177   0.8944261
   0.8945856   0.8954970   0.8950570   0.8738285   0.8737637   0.8952823
   5.9072504   5.8925297   6.1612591   6.1770456   6.1767510   6.1610312
   6.1614249   6.1465364   6.1456612   6.1601440   5.8912295   5.9057843
   5.9350180   5.9157916   6.1514162   6.1753425   6.1745276   6.1511026
   6.1515904   6.1754774   6.1744073   6.1509286   5.9140607   5.9338784
   5.9075800   5.8928553   6.1614908   6.1464756   6.1458257   6.1602848
   6.1611899   6.1768753   6.1767391   6.1610800   5.8908536   5.9054011
   8.5284881   8.5216815   8.5286374   8.5218441   8.5363605   8.5024728
   8.5218045   8.5288817   8.5027032   8.5359254   8.5219641   8.5290785
 TTTTTTTTTTTTTTTTTTTTTTTTTTTTTT MOQGAD      TELAPSE      128.20 TCPU     3031.96
 TTTTTTTTTTTTTTTTTTTTTTTTTTTTTT SHELLXN     TELAPSE      154.51 TCPU     3870.74
 TTTTTTTTTTTTTTTTTTTTTTTTTTTTTT MONMO3      TELAPSE      155.15 TCPU     3891.23
 NUMERICALLY INTEGRATED DENSITY    395.9999808846
 TTTTTTTTTTTTTTTTTTTTTTTTTTTTTT NUMDFT      TELAPSE      156.97 TCPU     3949.44
 CYC   3 ETOT(AU) -2.578228615045E+03 DETOT -1.83E-01 tst  5.87E-04 PX  6.74E-02
 TTTTTTTTTTTTTTTTTTTTTTTTTTTTTT DIIS        TELAPSE      157.18 TCPU     3956.04
 DIIS TEST: 0.33406E-01 AT SCF   CYCLE   3 - DIIS ACTIVE - HISTORY:     3 CYCLES
 TTTTTTTTTTTTTTTTTTTTTTTTTTTTTT FDIK        TELAPSE      159.26 TCPU     4022.47
 INSULATING STATE
 TOP OF VALENCE BANDS -    BAND    198; K    2; EIG -2.3965364E-01 AU
 TOP OF VALENCE BANDS -    BAND    198; K    1; EIG -2.3990118E-01 AU
 BOTTOM OF VIRTUAL BANDS - BAND    199; K    1; EIG -9.5849871E-02 AU
 INDIRECT ENERGY BAND GAP:   3.9131 eV
 TTTTTTTTTTTTTTTTTTTTTTTTTTTTTT PDIG        TELAPSE      160.89 TCPU     4029.47
 CHARGE NORMALIZATION FACTOR   1.00000000
 TOTAL ATOMIC CHARGES:
   4.4564782   4.4399868   4.4758873   4.5054003   4.4759339   4.5055373
   4.5056459   4.4763277   4.5054769   4.4762192   4.4402499   4.4563540
   0.8742153   0.8631950   0.8634024   0.8741720   0.8838721   0.8731982
   0.8732153   0.8839492   0.8678286   0.8534792   0.8532906   0.8681312
   0.8678519   0.8535053   0.8532215   0.8680298   0.8838836   0.8732059
   0.8732777   0.8839865   0.8742054   0.8631651   0.8633736   0.8741202
   5.9357106   5.9457741   6.1841984   6.1498949   6.1503769   6.1843642
   6.1559141   6.1844101   6.1859059   6.1582463   5.9494051   5.9392469
   5.9657535   5.9774414   6.1535936   6.1979452   6.1991181   6.1546164
   6.1535192   6.1977402   6.1992942   6.1547944   5.9814875   5.9684863
   5.9356465   5.9457734   6.1558902   6.1842772   6.1860391   6.1585038
   6.1840649   6.1497606   6.1504386   6.1844100   5.9494387   5.9392426
   8.4890089   8.4772320   8.4893602   8.4775223   8.5120763   8.4874425
   8.4774206   8.4887452   8.4874196   8.5129264   8.4777665   8.4890832
 TTTTTTTTTTTTTTTTTTTTTTTTTTTTTT MOQGAD      TELAPSE      161.00 TCPU     4029.58
 TTTTTTTTTTTTTTTTTTTTTTTTTTTTTT SHELLXN     TELAPSE      187.33 TCPU     4869.10
 TTTTTTTTTTTTTTTTTTTTTTTTTTTTTT MONMO3      TELAPSE      187.96 TCPU     4889.48
 NUMERICALLY INTEGRATED DENSITY    395.9999812362
 TTTTTTTTTTTTTTTTTTTTTTTTTTTTTT NUMDFT      TELAPSE      189.73 TCPU     4945.74
 CYC   4 ETOT(AU) -2.578235592293E+03 DETOT -6.98E-03 tst  3.25E-05 PX  1.67E-02
 TTTTTTTTTTTTTTTTTTTTTTTTTTTTTT DIIS        TELAPSE      189.96 TCPU     4952.70
 DIIS TEST: 0.99150E-02 AT SCF   CYCLE   4 - DIIS ACTIVE - HISTORY:     4 CYCLES
 TTTTTTTTTTTTTTTTTTTTTTTTTTTTTT FDIK        TELAPSE      192.00 TCPU     5017.60
 INSULATING STATE
 TOP OF VALENCE BANDS -    BAND    198; K    2; EIG -2.3872340E-01 AU
 TOP OF VALENCE BANDS -    BAND    198; K    1; EIG -2.3897466E-01 AU
 BOTTOM OF VIRTUAL BANDS - BAND    199; K    1; EIG -9.5752524E-02 AU
 INDIRECT ENERGY BAND GAP:   3.8904 eV
 TTTTTTTTTTTTTTTTTTTTTTTTTTTTTT PDIG        TELAPSE      193.63 TCPU     5024.61
 CHARGE NORMALIZATION FACTOR   1.00000000
 TOTAL ATOMIC CHARGES:
   4.4567175   4.4420066   4.4760726   4.5127392   4.4761475   4.5128736
   4.5124666   4.4757541   4.5123086   4.4756170   4.4414738   4.4566067
   0.8789956   0.8613329   0.8613393   0.8792454   0.8840490   0.8785672
   0.8787664   0.8841192   0.8698845   0.8563326   0.8567999   0.8698717
   0.8698895   0.8563213   0.8567583   0.8697999   0.8840263   0.8785711
   0.8788257   0.8842004   0.8789735   0.8613245   0.8613038   0.8791969
   5.9290856   5.9298160   6.1743059   6.1695728   6.1693373   6.1743242
   6.1694210   6.1651413   6.1637404   6.1673419   5.9278651   5.9270578
   5.9637637   5.9547647   6.1604380   6.1898110   6.1889442   6.1600077
   6.1606948   6.1899677   6.1887973   6.1598054   5.9527580   5.9624760
   5.9293433   5.9300809   6.1694854   6.1650964   6.1638431   6.1674710
   6.1743428   6.1694938   6.1692544   6.1742701   5.9275893   5.9267601
   8.5000332   8.4912096   8.5002136   8.4913973   8.5159594   8.4834216
   8.4911693   8.5004198   8.4835070   8.5151324   8.4913697   8.5006199
 TTTTTTTTTTTTTTTTTTTTTTTTTTTTTT MOQGAD      TELAPSE      193.74 TCPU     5024.72
 TTTTTTTTTTTTTTTTTTTTTTTTTTTTTT SHELLXN     TELAPSE      220.05 TCPU     5863.61
 TTTTTTTTTTTTTTTTTTTTTTTTTTTTTT MONMO3      TELAPSE      220.69 TCPU     5884.17
 NUMERICALLY INTEGRATED DENSITY    395.9999811973
 TTTTTTTTTTTTTTTTTTTTTTTTTTTTTT NUMDFT      TELAPSE      222.50 TCPU     5941.93
 CYC   5 ETOT(AU) -2.578237797499E+03 DETOT -2.21E-03 tst  1.00E-05 PX  8.52E-03
 TTTTTTTTTTTTTTTTTTTTTTTTTTTTTT DIIS        TELAPSE      222.78 TCPU     5948.98
 DIIS TEST: 0.63150E-03 AT SCF   CYCLE   5 - DIIS ACTIVE - HISTORY:     5 CYCLES
 TTTTTTTTTTTTTTTTTTTTTTTTTTTTTT FDIK        TELAPSE      224.84 TCPU     6014.59
 INSULATING STATE
 TOP OF VALENCE BANDS -    BAND    198; K    2; EIG -2.3805162E-01 AU
 TOP OF VALENCE BANDS -    BAND    198; K    1; EIG -2.3831762E-01 AU
 BOTTOM OF VIRTUAL BANDS - BAND    199; K    1; EIG -9.4930708E-02 AU
 INDIRECT ENERGY BAND GAP:   3.8945 eV
 TTTTTTTTTTTTTTTTTTTTTTTTTTTTTT PDIG        TELAPSE      226.49 TCPU     6021.60
 CHARGE NORMALIZATION FACTOR   1.00000000
 TOTAL ATOMIC CHARGES:
   4.4568507   4.4420329   4.4765758   4.5103668   4.4766186   4.5105032
   4.5105649   4.4768933   4.5104030   4.4767876   4.4422386   4.4567016
   0.8793965   0.8635861   0.8637990   0.8793982   0.8863202   0.8788257
   0.8787864   0.8863533   0.8722561   0.8574139   0.8572512   0.8725428
   0.8722850   0.8574377   0.8571798   0.8724439   0.8863233   0.8788287
   0.8788500   0.8864012   0.8793909   0.8635651   0.8637674   0.8793412
   5.9245870   5.9246332   6.1797692   6.1604866   6.1608379   6.1797473
   6.1578728   6.1729583   6.1747736   6.1606297   5.9284802   5.9282610
   5.9530552   5.9536097   6.1556732   6.1917715   6.1928836   6.1567044
   6.1555831   6.1915960   6.1930447   6.1568586   5.9575024   5.9556667
   5.9246037   5.9247061   6.1578833   6.1728467   6.1749178   6.1608486
   6.1796119   6.1603155   6.1609038   6.1798323   5.9284202   5.9281787
   8.5013901   8.4898305   8.5017116   8.4900994   8.5171122   8.4900861
   8.4900947   8.5011450   8.4901747   8.5181507   8.4903982   8.5014716
 TTTTTTTTTTTTTTTTTTTTTTTTTTTTTT MOQGAD      TELAPSE      226.60 TCPU     6021.71
 TTTTTTTTTTTTTTTTTTTTTTTTTTTTTT SHELLXN     TELAPSE      252.92 TCPU     6861.02
 TTTTTTTTTTTTTTTTTTTTTTTTTTTTTT MONMO3      TELAPSE      253.55 TCPU     6881.42
 NUMERICALLY INTEGRATED DENSITY    395.9999811147
 TTTTTTTTTTTTTTTTTTTTTTTTTTTTTT NUMDFT      TELAPSE      255.30 TCPU     6937.07
 CYC   6 ETOT(AU) -2.578237874609E+03 DETOT -7.71E-05 tst  3.17E-06 PX  3.01E-03
 TTTTTTTTTTTTTTTTTTTTTTTTTTTTTT DIIS        TELAPSE      255.59 TCPU     6944.28
 DIIS TEST: 0.38575E-03 AT SCF   CYCLE   6 - DIIS ACTIVE - HISTORY:     6 CYCLES
 TTTTTTTTTTTTTTTTTTTTTTTTTTTTTT FDIK        TELAPSE      257.63 TCPU     7009.32
 INSULATING STATE
 TOP OF VALENCE BANDS -    BAND    198; K    2; EIG -2.3827100E-01 AU
 TOP OF VALENCE BANDS -    BAND    198; K    1; EIG -2.3853334E-01 AU
 BOTTOM OF VIRTUAL BANDS - BAND    199; K    1; EIG -9.5020645E-02 AU
 INDIRECT ENERGY BAND GAP:   3.8980 eV
 TTTTTTTTTTTTTTTTTTTTTTTTTTTTTT PDIG        TELAPSE      259.31 TCPU     7016.36
 CHARGE NORMALIZATION FACTOR   1.00000000
 TOTAL ATOMIC CHARGES:
   4.4575840   4.4419478   4.4767139   4.5109635   4.4767813   4.5110992
   4.5107924   4.4765600   4.5106317   4.4764311   4.4415803   4.4574474
   0.8798000   0.8630994   0.8631518   0.8799688   0.8856454   0.8791317
   0.8792818   0.8857105   0.8719746   0.8574062   0.8577021   0.8720394
   0.8719878   0.8574079   0.8576510   0.8719572   0.8856338   0.8791390
   0.8793396   0.8857765   0.8797855   0.8630877   0.8631152   0.8799169
   5.9270384   5.9281896   6.1761558   6.1645927   6.1645776   6.1762231
   6.1632414   6.1700513   6.1693891   6.1622969   5.9277133   5.9264989
   5.9577540   5.9555855   6.1565819   6.1912160   6.1908889   6.1565458
   6.1567319   6.1912607   6.1908388   6.1564589   5.9552224   5.9575649
   5.9272049   5.9283772   6.1632700   6.1699676   6.1695170   6.1624822
   6.1761223   6.1644863   6.1645519   6.1762104   5.9275256   5.9262787
   8.5001383   8.4903298   8.5003652   8.4905455   8.5174085   8.4876453
   8.4903747   8.5003703   8.4877020   8.5170407   8.4906169   8.5006086
 TTTTTTTTTTTTTTTTTTTTTTTTTTTTTT MOQGAD      TELAPSE      259.41 TCPU     7016.47
 TTTTTTTTTTTTTTTTTTTTTTTTTTTTTT SHELLXN     TELAPSE      285.80 TCPU     7857.88
 TTTTTTTTTTTTTTTTTTTTTTTTTTTTTT MONMO3      TELAPSE      286.44 TCPU     7878.40
 NUMERICALLY INTEGRATED DENSITY    395.9999811265
 TTTTTTTTTTTTTTTTTTTTTTTTTTTTTT NUMDFT      TELAPSE      288.15 TCPU     7932.93
 CYC   7 ETOT(AU) -2.578237967584E+03 DETOT -9.30E-05 tst  7.53E-07 PX  1.39E-03
 TTTTTTTTTTTTTTTTTTTTTTTTTTTTTT DIIS        TELAPSE      288.42 TCPU     7939.82
 DIIS TEST: 0.14543E-04 AT SCF   CYCLE   7 - DIIS ACTIVE - HISTORY:     7 CYCLES
 TTTTTTTTTTTTTTTTTTTTTTTTTTTTTT FDIK        TELAPSE      290.29 TCPU     7999.39
 INSULATING STATE
 TOP OF VALENCE BANDS -    BAND    198; K    2; EIG -2.3826280E-01 AU
 TOP OF VALENCE BANDS -    BAND    198; K    1; EIG -2.3852347E-01 AU
 BOTTOM OF VIRTUAL BANDS - BAND    199; K    1; EIG -9.5077651E-02 AU
 INDIRECT ENERGY BAND GAP:   3.8963 eV
 TTTTTTTTTTTTTTTTTTTTTTTTTTTTTT PDIG        TELAPSE      291.94 TCPU     8006.41
 CHARGE NORMALIZATION FACTOR   1.00000000
 TOTAL ATOMIC CHARGES:
   4.4574472   4.4418379   4.4766111   4.5111092   4.4766714   4.5112449
   4.5110777   4.4766268   4.5109170   4.4765044   4.4416879   4.4573131
   0.8797876   0.8630927   0.8632069   0.8799040   0.8856250   0.8791759
   0.8792489   0.8856720   0.8717594   0.8574368   0.8575681   0.8719040
   0.8717775   0.8574448   0.8575106   0.8718173   0.8856163   0.8791800
   0.8793098   0.8857351   0.8797752   0.8630788   0.8631725   0.8798504
   5.9265311   5.9271065   6.1765586   6.1642889   6.1643708   6.1765644
   6.1627051   6.1692432   6.1695330   6.1631676   5.9282266   5.9275280
   5.9578395   5.9543218   6.1569754   6.1906518   6.1908386   6.1573260
   6.1570535   6.1906347   6.1908510   6.1573089   5.9554580   5.9586282
   5.9266619   5.9272691   6.1627379   6.1691609   6.1696592   6.1633479
   6.1764936   6.1641611   6.1643667   6.1765827   5.9280653   5.9273438
   8.5004204   8.4903648   8.5006747   8.4905951   8.5167283   8.4872782
   8.4904829   8.5004728   8.4873634   8.5168826   8.4907387   8.5007386
 TTTTTTTTTTTTTTTTTTTTTTTTTTTTTT MOQGAD      TELAPSE      292.05 TCPU     8006.52
 TTTTTTTTTTTTTTTTTTTTTTTTTTTTTT SHELLXN     TELAPSE      318.37 TCPU     8845.78
 TTTTTTTTTTTTTTTTTTTTTTTTTTTTTT MONMO3      TELAPSE      319.01 TCPU     8866.19
 NUMERICALLY INTEGRATED DENSITY    395.9999811304
 TTTTTTTTTTTTTTTTTTTTTTTTTTTTTT NUMDFT      TELAPSE      320.75 TCPU     8921.82
 CYC   8 ETOT(AU) -2.578237970486E+03 DETOT -2.90E-06 tst  5.93E-08 PX  3.16E-04
 TTTTTTTTTTTTTTTTTTTTTTTTTTTTTT DIIS        TELAPSE      321.05 TCPU     8928.75
 DIIS TEST: 0.18433E-05 AT SCF   CYCLE   8 - DIIS ACTIVE - HISTORY:     8 CYCLES
 TTTTTTTTTTTTTTTTTTTTTTTTTTTTTT FDIK        TELAPSE      322.97 TCPU     8989.80
 INSULATING STATE
 TOP OF VALENCE BANDS -    BAND    198; K    2; EIG -2.3826493E-01 AU
 TOP OF VALENCE BANDS -    BAND    198; K    1; EIG -2.3852579E-01 AU
 BOTTOM OF VIRTUAL BANDS - BAND    199; K    1; EIG -9.5081285E-02 AU
 INDIRECT ENERGY BAND GAP:   3.8962 eV
 TTTTTTTTTTTTTTTTTTTTTTTTTTTTTT PDIG        TELAPSE      324.61 TCPU     8996.81
 CHARGE NORMALIZATION FACTOR   1.00000000
 TOTAL ATOMIC CHARGES:
   4.4572994   4.4419442   4.4766510   4.5112084   4.4767120   4.5113440
   4.5111368   4.4766153   4.5109763   4.4764923   4.4417298   4.4571651
   0.8797224   0.8631072   0.8632026   0.8798547   0.8856649   0.8791222
   0.8792192   0.8857189   0.8717541   0.8573863   0.8575691   0.8718751
   0.8717711   0.8573930   0.8575130   0.8717894   0.8856556   0.8791270
   0.8792795   0.8857824   0.8797095   0.8630934   0.8631678   0.8798015
   5.9266795   5.9273533   6.1766507   6.1641821   6.1642323   6.1766736
   6.1628608   6.1695059   6.1695027   6.1628905   5.9279759   5.9271969
   5.9576418   5.9547318   6.1570305   6.1908304   6.1908524   6.1572539
   6.1571225   6.1908254   6.1908530   6.1572232   5.9554019   5.9581269
   5.9268163   5.9275206   6.1628928   6.1694228   6.1696290   6.1630721
   6.1765917   6.1640599   6.1642244   6.1766850   5.9278105   5.9270058
   8.5004462   8.4903736   8.5006951   8.4906011   8.5168603   8.4873236
   8.4904709   8.5005541   8.4873981   8.5168548   8.4907241   8.5008143
 TTTTTTTTTTTTTTTTTTTTTTTTTTTTTT MOQGAD      TELAPSE      324.72 TCPU     8996.92
 TTTTTTTTTTTTTTTTTTTTTTTTTTTTTT SHELLXN     TELAPSE      351.03 TCPU     9835.97
 TTTTTTTTTTTTTTTTTTTTTTTTTTTTTT MONMO3      TELAPSE      351.67 TCPU     9856.43
 NUMERICALLY INTEGRATED DENSITY    395.9999811307
 TTTTTTTTTTTTTTTTTTTTTTTTTTTTTT NUMDFT      TELAPSE      353.45 TCPU     9913.42
 CYC   9 ETOT(AU) -2.578237970770E+03 DETOT -2.84E-07 tst  4.78E-09 PX  1.29E-04
 TTTTTTTTTTTTTTTTTTTTTTTTTTTTTT DIIS        TELAPSE      353.78 TCPU     9920.42
 DIIS TEST: 0.13785E-06 AT SCF   CYCLE   9 - DIIS ACTIVE - HISTORY:     9 CYCLES
 TTTTTTTTTTTTTTTTTTTTTTTTTTTTTT FDIK        TELAPSE      355.73 TCPU     9982.44
 INSULATING STATE
 TOP OF VALENCE BANDS -    BAND    198; K    2; EIG -2.3826801E-01 AU
 TOP OF VALENCE BANDS -    BAND    198; K    1; EIG -2.3852890E-01 AU
 BOTTOM OF VIRTUAL BANDS - BAND    199; K    1; EIG -9.5078353E-02 AU
 INDIRECT ENERGY BAND GAP:   3.8964 eV
 TTTTTTTTTTTTTTTTTTTTTTTTTTTTTT PDIG        TELAPSE      357.36 TCPU     9989.45
 CHARGE NORMALIZATION FACTOR   1.00000000
 TOTAL ATOMIC CHARGES:
   4.4573667   4.4419299   4.4766282   4.5111665   4.4766898   4.5113020
   4.5111020   4.4766031   4.5109414   4.4764795   4.4417274   4.4572323
   0.8797355   0.8630832   0.8631822   0.8798644   0.8856599   0.8791198
   0.8792128   0.8857125   0.8717621   0.8573964   0.8575686   0.8718869
   0.8717788   0.8574026   0.8575129   0.8718016   0.8856506   0.8791249
   0.8792729   0.8857762   0.8797225   0.8630697   0.8631474   0.8798113
   5.9266126   5.9273470   6.1765527   6.1642905   6.1643499   6.1765766
   6.1627977   6.1695118   6.1695625   6.1629065   5.9280659   5.9272244
   5.9577350   5.9546536   6.1569470   6.1908175   6.1908779   6.1572023
   6.1570438   6.1908165   6.1908741   6.1571671   5.9554139   5.9582794
   5.9267523   5.9275158   6.1628292   6.1694288   6.1696892   6.1630884
   6.1764959   6.1641688   6.1643402   6.1765866   5.9278984   5.9270311
   8.5004077   8.4903556   8.5006548   8.4905822   8.5169131   8.4873821
   8.4904561   8.5005051   8.4874588   8.5169368   8.4907084   8.5007636
 TTTTTTTTTTTTTTTTTTTTTTTTTTTTTT MOQGAD      TELAPSE      357.47 TCPU     9989.55
 TTTTTTTTTTTTTTTTTTTTTTTTTTTTTT SHELLXN     TELAPSE      383.74 TCPU    10827.57
 +++ ENERGIES IN A.U. +++
 ::: EXT EL-POLE                                  -3.1177515311175E+03
 ::: EXT EL-SPHEROPOLE                             3.5850249075317E+01
 ::: BIELET ZONE E-E                               4.7454597607992E+03
 ::: TOTAL E-E                                     1.6635584787571E+03
 ::: TOTAL E-N + N-E                              -6.9717903990248E+03
 ::: TOTAL N-N                                     4.3750820278815E+02
 ::: KINETIC ENERGY                                2.5599565356278E+03
 ::: PSEUDO TOTAL   ENERGY                        -2.3107671818518E+03
 ::: VIRIAL COEFFICIENT                            1.0511606422844E+00
 TTTTTTTTTTTTTTTTTTTTTTTTTTTTTT MONMO3      TELAPSE      384.38 TCPU    10847.97
 NUMERICALLY INTEGRATED DENSITY    395.9999811282
 EXCHANGE ENERGY: -0.252051940366E+03  CORRELATION ENERGY: -0.154188485853E+02
 TTTTTTTTTTTTTTTTTTTTTTTTTTTTTT NUMDFT      TELAPSE      386.13 TCPU    10903.80
 CYC  10 ETOT(AU) -2.578237970804E+03 DETOT -3.35E-08 tst  3.09E-10 PX  1.29E-04

 == SCF ENDED - CONVERGENCE ON ENERGY      E(AU) -2.5782379708035E+03 CYCLES  10


 ENERGY EXPRESSION=HARTREE+FOCK EXCH*0.00000+(HSESOL     EXCH)*1.00000+PBESOL     CORR


 TOTAL ENERGY(DFT)(AU)( 10) -2.5782379708035E+03 DE-3.3E-08 tester 3.1E-10
 TTTTTTTTTTTTTTTTTTTTTTTTTTTTTT EDFT        TELAPSE      386.13 TCPU    10903.81
 
 INFORMATION **** DFTD3 ENERGY **** CALCULATE DFTD3 ENERGY

           DFT-D V3(BJ)
 DF                                         hsesol3c  
 parameters
 s6       :    1.0000
 s8       :    0.0000
 a1       :    0.5196
 a2       :    4.9385
 k1 k3    :   16.0000   -4.0000
 Cutoff   :   50.2022
 CN-Cutoff:   21.1671
 ABC-Cutoff:   21.1671
 
 Edisp /kcal,au:   -61.5033 -0.09801175

 E6    /kcal :   -66.2168
 E8    /kcal :     0.0000
 E6(ABC) "   :   4.713527
 
 INFORMATION **** DFTD3 ENERGY **** NORMAL TERMINATION OF DFTD3 MODULE

 GCP ENERGY CALCULATION
  level        hsesol3c            basis:hsesol3c
  Nbf            948
  Atoms           84

  Parameters: 
  sigma     1.0000
  eta       1.4281
  alpha     0.2936
  beta      1.9467

  dmp_scal      4.0000
  dmp_exp       6.0000
 cutoffs: 
   distance [bohr] 60.0
   noise    [a.u.] 2.2E-16
 SR-damping   T
 ** gCP correction **
  Egcp:        0.1696862986 / (a.u.) ||     106.4798 / (kcal/mol)
 INFORMATION **** GCP **** NORMAL TERMINATION OF GCP MODULE

 *******************************************************************************

 DFT-D3-GCP DISPERSION AND COUNTERPOISE CORRECTION

 D3 DISPERSION ENERGY (AU)      -9.8011749752611E-02
 GCP ENERGY (AU)                 1.6968629856677E-01
 TOTAL ENERGY + DISP + GCP (AU) -2.5781662962547E+03

 *******************************************************************************

 EIGENVECTORS IN FORTRAN UNIT  8
 TTTTTTTTTTTTTTTTTTTTTTTTTTTTTT END         TELAPSE      389.85 TCPU    10913.42
 EEEEEEEEEE TERMINATION  DATE 19 02 2026 TIME 19:56:33.1
