 Default number of threads is:           32

         
 *******************************************************************************
 *                                                                             *
 *                               CRYSTAL23                                     *
 *                      public : 1.0.1 - October 2022                          *
 *                       HTTP://WWW.CRYSTAL.UNITO.IT                           *
 *                                                                             *
 *                              MAIN AUTHORS                                   *
 *                                                                             *
 *  R. DOVESI(1,11), V.R. SAUNDERS(2), C. ROETTI(1,11), R. ORLANDO(1,11),      *
 *  C.M. ZICOVICH-WILSON(1,3), F. PASCALE(4), B. CIVALLERI(1,11),              *
 *  K. DOLL(5), N.M. HARRISON(6), I.J. BUSH(7), Ph. D'ARCO(8),                 *
 *  M. LLUNELL(9), M. CAUSA'(10), Y. NOEL(8), L. MASCHIO(1,11), A. ERBA(1,11)  *
 *  M. RE'RAT(14), S. CASASSA(1,11), B.G. SEARLE(2), J.K. DESMARAIS(1)         *
 *                                                                             *
 *        CONTRIBUTIONS TO THE CODE HAVE ALSO BEEN GIVEN BY                    *
 *                                                                             *
 *  M. FERRABONE(1,11), M. DE LA PIERRE(1,11), M. FERRERO(1,11),               *
 *  J. BAIMA(1,11), E. ALBANESE(1,11), M.F. PEINTINGER(12), R. BAST(13),       *
 *  B. KIRTMAN(15), V. LACIVITA(1,11), R. DEMICHELIS(1,16)                     *
 *  G. BRANDEBURG(17), S. SALUSTRO(1,11), G. SANSONE(1,11)                     *
 *  M.T. RUGGIERO(18), L.E. DAGA(1), L. DONA'(1), A. COSSARD(1)                *
 *                                                                             *
 * (1) THEORETICAL CHEMISTRY GROUP - UNIVERSITA' DI TORINO - TORINO (ITALY)    *
 * (2) SCIENTIFIC COMPUTING DEPARTMENT - STFC DARESBURY (UK)                   *
 * (3) UNIVERSIDAD AUTONOMA DEL ESTADO DE MORELOS - CUERNAVACA (MEXICO)        *
 * (4) UNIVERSITE' DE LORRAINE - NANCY (FRANCE)                                *
 * (5) UNIVERSITAET STUTTGART- STUTTGART (GERMANY)                             *
 * (6) IMPERIAL COLLEGE - LONDON (UK)                                          *
 * (7) SCIENTIFIC COMPUTING DEPARTMENT - STFC RAL (UK)                         *
 * (8) UPMC - SORBONNE UNIVERSITES - PARIS (FRANCE)                            *
 * (9) UNIVERSIDAD DE BARCELONA - BARCELONA (SPAIN)                            *
 *(10) UNIVERSITA' DI NAPOLI "FEDERICO II" - NAPOLI (ITALY)                    *
 *(11) NIS - NANOSTRUCTURED INTERFACES AND SURFACES - TORINO (ITALY)           *
 *(12) MPI FUER CHEMISCHE ENERGIEKONVERSION - MUELHEIM AN DER RUHR (GERMANY)   *
 *(13) UNIVERSITY OF TROMSO - TROMSO (NORWAY)                                  *
 *(14) UNIVERSITE' DE PAU ET DES PAYS DE L'ADOUR - PAU (FRANCE)                *
 *(15) UNIVERSITY OF CALIFORNIA SANTA BARBARA - SANTA BARBARA (USA)            *
 *(16) CURTIN UNIVERSITY - PERTH (AUSTRALIA)                                   *
 *(17) UNIVERSITY COLLEGE LONDON - LONDON (UK)                                 *
 *(18) UNIVERSITY OF VERMONT - BURLINGTON (USA)                                *
 *                                                                             *
 *******************************************************************************
 EEEEEEEEEE STARTING  DATE 19 02 2026 TIME 19:15:19.6
 cof-1_z43_L010_incl                                                             

 CRYSTAL CALCULATION
 (INPUT ACCORDING TO THE INTERNATIONAL TABLES FOR X-RAY CRYSTALLOGRAPHY)
 CRYSTAL FAMILY                       :  TRICLINIC   
 CRYSTAL CLASS  (GROTH - 1921)        :  TRICLINIC PEDIAL                     

 SPACE GROUP (NONCENTROSYMMETRIC)     :  P 1             

 LATTICE PARAMETERS  (ANGSTROMS AND DEGREES) - CONVENTIONAL CELL
        A           B           C        ALPHA        BETA       GAMMA
    15.02361    15.02392     4.41475    78.68698    89.99994   119.99596


 NUMBER OF IRREDUCIBLE ATOMS IN THE CONVENTIONAL CELL:   42

 INPUT COORDINATES

 ATOM AT. N.              COORDINATES
   1   5     5.944262400000E-01  1.888057100000E-01  5.011101800000E-01
   2   5     7.534819000000E-01  3.478653700000E-01  5.011101900000E-01
   3   5     5.945117200000E-01  3.480276700000E-01  4.987745600000E-01
   4   5     2.080009500000E-01  5.751207100000E-01  5.011101900000E-01
   5   5     3.671089200000E-01  5.750999400000E-01  5.011101800000E-01
   6   5     3.671789500000E-01  7.344186500000E-01  4.987745700000E-01
   7   1     8.839753800000E-01  2.707896900000E-01  4.962679800000E-01
   8   1     7.759474000000E-02  6.529699900000E-01  4.955275200000E-01
   9   1     8.839360100000E-01  5.559977300000E-01  4.954135600000E-01
  10   1     7.769968000000E-02  3.676080600000E-01  4.954419800000E-01
  11   1     6.716774200000E-01  5.829022000000E-02  5.037306900000E-01
  12   1     2.895462800000E-01  8.646665000000E-01  5.044711800000E-01
  13   1     3.864821700000E-01  5.827040000000E-02  5.045852100000E-01
  14   1     5.749254900000E-01  8.645699400000E-01  5.045566000000E-01
  15   1     6.720045000000E-01  5.559138500000E-01  4.962680200000E-01
  16   1     2.899220400000E-01  3.675258800000E-01  4.955274700000E-01
  17   1     3.868051600000E-01  2.707485600000E-01  4.954134700000E-01
  18   1     5.752543700000E-01  6.528810400000E-01  4.954420700000E-01
  19   6     8.727290400000E-01  4.076172500000E-01  4.986891000000E-01
  20   6     9.274164900000E-01  3.546365100000E-01  4.963819300000E-01
  21   6     3.432316000000E-02  5.690515000000E-01  4.961826200000E-01
  22   6     9.273641700000E-01  5.155124200000E-01  4.967807500000E-01
  23   6     3.439750000000E-02  4.081884100000E-01  4.952426000000E-01
  24   6     8.894685000000E-02  5.158536700000E-01  4.968092100000E-01
  25   6     5.347774600000E-01  6.964063000000E-02  5.013095800000E-01
  26   6     5.878272500000E-01  1.485080000000E-02  5.036167200000E-01
  27   6     3.734404000000E-01  9.079426900000E-01  5.038161100000E-01
  28   6     4.269523000000E-01  1.492836000000E-02  5.032179800000E-01
  29   6     5.343224700000E-01  9.078308600000E-01  5.047560200000E-01
  30   6     4.265937200000E-01  8.533197500000E-01  5.031894600000E-01
  31   6     5.348836000000E-01  4.075481100000E-01  4.986891000000E-01
  32   6     5.881376000000E-01  5.154766600000E-01  4.963819700000E-01
  33   6     3.737584100000E-01  4.080382300000E-01  4.961825700000E-01
  34   6     4.271993200000E-01  3.545102200000E-01  4.967806900000E-01
  35   6     5.347141100000E-01  5.690364400000E-01  4.952426600000E-01
  36   6     4.268709400000E-01  5.157762700000E-01  4.968092100000E-01
  37   8     5.415480500000E-01  2.419894700000E-01  4.994011800000E-01
  38   8     7.003037400000E-01  2.416184600000E-01  5.043287800000E-01
  39   8     7.005871000000E-01  4.011349300000E-01  4.968946800000E-01
  40   8     2.611358800000E-01  6.812699500000E-01  4.994012100000E-01
  41   8     2.609660100000E-01  5.219357400000E-01  5.043287700000E-01
  42   8     4.201715200000E-01  6.814469000000E-01  4.968946600000E-01

 *******************************************************************************

 << INFORMATION >>: FROM NOW ON, ALL COORDINATES REFER TO THE PRIMITIVE CELL

 *******************************************************************************

 LATTICE PARAMETERS  (ANGSTROMS AND DEGREES) - PRIMITIVE CELL
       A          B          C        ALPHA      BETA     GAMMA        VOLUME
   15.02361   15.02392    4.41475    78.68698  89.99994 119.99596    840.571812

 COORDINATES OF THE EQUIVALENT ATOMS (FRACTIONAL UNITS)

 N. ATOM EQUIV AT. N.          X                  Y                  Z

   1   1   1    5 B    -4.05573760000E-01  1.88805710000E-01 -4.98889820000E-01

   2   2   1    5 B    -2.46518100000E-01  3.47865370000E-01 -4.98889810000E-01

   3   3   1    5 B    -4.05488280000E-01  3.48027670000E-01  4.98774560000E-01

   4   4   1    5 B     2.08000950000E-01 -4.24879290000E-01 -4.98889810000E-01

   5   5   1    5 B     3.67108920000E-01 -4.24900060000E-01 -4.98889820000E-01

   6   6   1    5 B     3.67178950000E-01 -2.65581350000E-01  4.98774570000E-01

   7   7   1    1 H    -1.16024620000E-01  2.70789690000E-01  4.96267980000E-01

   8   8   1    1 H     7.75947400000E-02 -3.47030010000E-01  4.95527520000E-01

   9   9   1    1 H    -1.16063990000E-01 -4.44002270000E-01  4.95413560000E-01

  10  10   1    1 H     7.76996800000E-02  3.67608060000E-01  4.95441980000E-01

  11  11   1    1 H    -3.28322580000E-01  5.82902200000E-02 -4.96269310000E-01

  12  12   1    1 H     2.89546280000E-01 -1.35333500000E-01 -4.95528820000E-01

  13  13   1    1 H     3.86482170000E-01  5.82704000000E-02 -4.95414790000E-01

  14  14   1    1 H    -4.25074510000E-01 -1.35430060000E-01 -4.95443400000E-01

  15  15   1    1 H    -3.27995500000E-01 -4.44086150000E-01  4.96268020000E-01

  16  16   1    1 H     2.89922040000E-01  3.67525880000E-01  4.95527470000E-01

  17  17   1    1 H     3.86805160000E-01  2.70748560000E-01  4.95413470000E-01

  18  18   1    1 H    -4.24745630000E-01 -3.47118960000E-01  4.95442070000E-01

  19  19   1    6 C    -1.27270960000E-01  4.07617250000E-01  4.98689100000E-01

  20  20   1    6 C    -7.25835100000E-02  3.54636510000E-01  4.96381930000E-01

  21  21   1    6 C     3.43231600000E-02 -4.30948500000E-01  4.96182620000E-01

  22  22   1    6 C    -7.26358300000E-02 -4.84487580000E-01  4.96780750000E-01

  23  23   1    6 C     3.43975000000E-02  4.08188410000E-01  4.95242600000E-01

  24  24   1    6 C     8.89468500000E-02 -4.84146330000E-01  4.96809210000E-01

  25  25   1    6 C    -4.65222540000E-01  6.96406300000E-02 -4.98690420000E-01

  26  26   1    6 C    -4.12172750000E-01  1.48508000000E-02 -4.96383280000E-01

  27  27   1    6 C     3.73440400000E-01 -9.20573100000E-02 -4.96183890000E-01

  28  28   1    6 C     4.26952300000E-01  1.49283600000E-02 -4.96782020000E-01

  29  29   1    6 C    -4.65677530000E-01 -9.21691400000E-02 -4.95243980000E-01

  30  30   1    6 C     4.26593720000E-01 -1.46680250000E-01 -4.96810540000E-01

  31  31   1    6 C    -4.65116400000E-01  4.07548110000E-01  4.98689100000E-01

  32  32   1    6 C    -4.11862400000E-01 -4.84523340000E-01  4.96381970000E-01

  33  33   1    6 C     3.73758410000E-01  4.08038230000E-01  4.96182570000E-01

  34  34   1    6 C     4.27199320000E-01  3.54510220000E-01  4.96780690000E-01

  35  35   1    6 C    -4.65285890000E-01 -4.30963560000E-01  4.95242660000E-01

  36  36   1    6 C     4.26870940000E-01 -4.84223730000E-01  4.96809210000E-01

  37  37   1    8 O    -4.58451950000E-01  2.41989470000E-01  4.99401180000E-01

  38  38   1    8 O    -2.99696260000E-01  2.41618460000E-01 -4.95671220000E-01

  39  39   1    8 O    -2.99412900000E-01  4.01134930000E-01  4.96894680000E-01

  40  40   1    8 O     2.61135880000E-01 -3.18730050000E-01  4.99401210000E-01

  41  41   1    8 O     2.60966010000E-01 -4.78064260000E-01 -4.95671230000E-01

  42  42   1    8 O     4.20171520000E-01 -3.18553100000E-01  4.96894660000E-01

 NUMBER OF SYMMETRY OPERATORS         :    1
 *******************************************************************************
 * GEOMETRY EDITING - INPUT COORDINATES ARE GIVEN IN ANGSTROM         
 *******************************************************************************

 GCALCO - MAX INDICES DIRECT LATTICE VECTOR    10    10    31
 NO.OF VECTORS CREATED 6999 STARS 3500 RMAX   211.51404 BOHR

 GEOMETRY FOR WAVE FUNCTION - DIMENSIONALITY OF THE SYSTEM    3
 (NON PERIODIC DIRECTION: LATTICE PARAMETER FORMALLY SET TO 500)
 *******************************************************************************
 LATTICE PARAMETERS (ANGSTROMS AND DEGREES) - BOHR = 0.5291772083 ANGSTROM
 PRIMITIVE CELL - CENTRING CODE 1/0 VOLUME=   840.571812 - DENSITY  0.771 g/cm^3
         A              B              C           ALPHA      BETA       GAMMA 
    15.02361100    15.02391600     4.41474800    78.686982  89.999945 119.995964
 *******************************************************************************
 ATOMS IN THE ASYMMETRIC UNIT   42 - ATOMS IN THE UNIT CELL:   42
     ATOM                 X/A                 Y/B                 Z/C    
 *******************************************************************************
      1 T   5 B    -4.055737600000E-01  1.888057100000E-01 -4.988898200000E-01
      2 T   5 B    -2.465181000000E-01  3.478653700000E-01 -4.988898100000E-01
      3 T   5 B    -4.054882800000E-01  3.480276700000E-01  4.987745600000E-01
      4 T   5 B     2.080009500000E-01 -4.248792900000E-01 -4.988898100000E-01
      5 T   5 B     3.671089200000E-01 -4.249000600000E-01 -4.988898200000E-01
      6 T   5 B     3.671789500000E-01 -2.655813500000E-01  4.987745700000E-01
      7 T   1 H    -1.160246200000E-01  2.707896900000E-01  4.962679800000E-01
      8 T   1 H     7.759474000000E-02 -3.470300100000E-01  4.955275200000E-01
      9 T   1 H    -1.160639900000E-01 -4.440022700000E-01  4.954135600000E-01
     10 T   1 H     7.769968000000E-02  3.676080600000E-01  4.954419800000E-01
     11 T   1 H    -3.283225800000E-01  5.829022000000E-02 -4.962693100000E-01
     12 T   1 H     2.895462800000E-01 -1.353335000000E-01 -4.955288200000E-01
     13 T   1 H     3.864821700000E-01  5.827040000000E-02 -4.954147900000E-01
     14 T   1 H    -4.250745100000E-01 -1.354300600000E-01 -4.954434000000E-01
     15 T   1 H    -3.279955000000E-01 -4.440861500000E-01  4.962680200000E-01
     16 T   1 H     2.899220400000E-01  3.675258800000E-01  4.955274700000E-01
     17 T   1 H     3.868051600000E-01  2.707485600000E-01  4.954134700000E-01
     18 T   1 H    -4.247456300000E-01 -3.471189600000E-01  4.954420700000E-01
     19 T   6 C    -1.272709600000E-01  4.076172500000E-01  4.986891000000E-01
     20 T   6 C    -7.258351000000E-02  3.546365100000E-01  4.963819300000E-01
     21 T   6 C     3.432316000000E-02 -4.309485000000E-01  4.961826200000E-01
     22 T   6 C    -7.263583000000E-02 -4.844875800000E-01  4.967807500000E-01
     23 T   6 C     3.439750000000E-02  4.081884100000E-01  4.952426000000E-01
     24 T   6 C     8.894685000000E-02 -4.841463300000E-01  4.968092100000E-01
     25 T   6 C    -4.652225400000E-01  6.964063000000E-02 -4.986904200000E-01
     26 T   6 C    -4.121727500000E-01  1.485080000000E-02 -4.963832800000E-01
     27 T   6 C     3.734404000000E-01 -9.205731000000E-02 -4.961838900000E-01
     28 T   6 C     4.269523000000E-01  1.492836000000E-02 -4.967820200000E-01
     29 T   6 C    -4.656775300000E-01 -9.216914000000E-02 -4.952439800000E-01
     30 T   6 C     4.265937200000E-01 -1.466802500000E-01 -4.968105400000E-01
     31 T   6 C    -4.651164000000E-01  4.075481100000E-01  4.986891000000E-01
     32 T   6 C    -4.118624000000E-01 -4.845233400000E-01  4.963819700000E-01
     33 T   6 C     3.737584100000E-01  4.080382300000E-01  4.961825700000E-01
     34 T   6 C     4.271993200000E-01  3.545102200000E-01  4.967806900000E-01
     35 T   6 C    -4.652858900000E-01 -4.309635600000E-01  4.952426600000E-01
     36 T   6 C     4.268709400000E-01 -4.842237300000E-01  4.968092100000E-01
     37 T   8 O    -4.584519500000E-01  2.419894700000E-01  4.994011800000E-01
     38 T   8 O    -2.996962600000E-01  2.416184600000E-01 -4.956712200000E-01
     39 T   8 O    -2.994129000000E-01  4.011349300000E-01  4.968946800000E-01
     40 T   8 O     2.611358800000E-01 -3.187300500000E-01  4.994012100000E-01
     41 T   8 O     2.609660100000E-01 -4.780642600000E-01 -4.956712300000E-01
     42 T   8 O     4.201715200000E-01 -3.185531000000E-01  4.968946600000E-01

 T = ATOM BELONGING TO THE ASYMMETRIC UNIT

 ****    1 SYMMOPS - TRANSLATORS IN FRACTIONAL UNITS
 **** MATRICES AND TRANSLATORS IN THE CRYSTALLOGRAPHIC REFERENCE FRAME
   V INV                    ROTATION MATRICES                   TRANSLATORS
   1   1  1.00 -0.00  0.00  0.00  1.00  0.00 -0.00 -0.00  1.00  0.00  0.00  0.00

 DIRECT LATTICE VECTORS CARTESIAN COMPONENTS (ANGSTROM)
          X                    Y                    Z
   0.130113578931E+02  -0.751088897922E+01   0.000000000000E+00
   0.000000000000E+00   0.150239160000E+02   0.000000000000E+00
   0.499929930111E+00   0.866036442857E+00   0.430000591257E+01


 CARTESIAN COORDINATES - PRIMITIVE CELL
 *******************************************************************************
 *      ATOM          X(ANGSTROM)         Y(ANGSTROM)         Z(ANGSTROM)
 *******************************************************************************
    1     5 B    -5.526475296238E+00  5.450763846513E+00 -2.145229175720E+00
    2     5 B    -3.456945174063E+00  6.645813422226E+00 -2.145229132720E+00
    3     5 B     7.484827161348E+00  3.293474568654E-01 -2.155272355530E+00
    4     5 B     2.456964854699E+00  6.646236437449E+00 -2.145229132720E+00
    5     5 B     4.527175591008E+00  5.450882083674E+00 -2.145229175720E+00
    6     5 B     5.026849065168E+00 -6.315955268131E+00  2.144733600039E+00
    7     1 H    -1.761468568779E+00  4.503519309148E+00 -2.166050664350E+00
    8     1 H     1.257341971200E+00 -5.367410306472E+00  2.130771265841E+00
    9     1 H    -1.262478045959E+00 -5.369862867669E+00  2.130281237167E+00
   10     1 H     7.587346889804E-01  4.502353311306E+00 -2.169602469234E+00
   11     1 H    -4.520022474216E+00  2.911954508720E+00 -2.133960967226E+00
   12     1 H     4.019590517444E+00 -3.771098673160E+00  2.169229056721E+00
   13     1 H     4.780985151814E+00 -2.456422338901E+00 -2.130286526174E+00
   14     1 H    -5.278553635051E+00  1.594962010274E+00  2.169596363226E+00
   15     1 H    -4.019567601257E+00 -3.778589037436E+00  2.133955420219E+00
   16     1 H     3.520078506859E+00  2.907214098478E+00 -2.169234861729E+00
   17     1 H     4.780602462963E+00  7.254626856579E-01 -2.169725062403E+00
   18     1 H    -5.278831086013E+00 -1.595797937765E+00  2.130403830335E+00
   19     6 C    -1.906588333154E+00  6.645771866388E+00 -2.155639834035E+00
   20     6 C    -1.196183772282E+00  5.437044220203E+00 -2.165560678676E+00
   21     6 C     6.946474613196E-01 -6.302619277269E+00  2.133588199714E+00
   22     6 C    -6.967352143612E-01 -6.303110816310E+00  2.136160162250E+00
   23     6 C     1.952148514214E-01  5.437094277149E+00 -2.170459804413E+00
   24     6 C     9.057591623328E-01  6.646290729120E+00 -2.163723372150E+00
   25     6 C     6.708870658382E+00 -3.402263232764E+00 -2.144371754541E+00
   26     6 C    -5.611084022494E+00  2.889014927136E+00 -2.134451038900E+00
   27     6 C     5.110839448787E+00 -3.751607565621E+00  2.166412251847E+00
   28     6 C     5.306872978025E+00 -3.412740231540E+00 -2.136165623258E+00
   29     6 C    -5.806754363783E+00  2.550047918865E+00  2.170453870405E+00
   30     6 C     5.802123037421E+00 -4.972029414988E+00  2.163717653142E+00
   31     6 C     6.708941627526E+00  1.671363725593E+00 -2.155639834035E+00
   32     6 C    -5.110732885523E+00 -3.756100323488E+00  2.134445405893E+00
   33     6 C     4.611231025481E+00  2.886749914823E+00 -2.166417927855E+00
   34     6 C     5.306868849712E+00  1.681678840695E+00 -2.163846008319E+00
   35     6 C    -5.806414608978E+00 -2.551151469497E+00  2.129546366156E+00
   36     6 C     5.302610438008E+00  4.107017554629E+00 -2.163723372150E+00
   37     8 O     6.796011161741E+00 -8.654146316681E-01 -2.152577885825E+00
   38     8 O    -4.147256176443E+00  5.451771443240E+00 -2.131389176690E+00
   39     8 O    -3.647355877053E+00 -6.318112555027E+00  2.136650061924E+00
   40     8 O     3.647398005411E+00 -6.317436453579E+00  2.147428155744E+00
   41     8 O     3.147721270661E+00  5.452162637843E+00 -2.131389219690E+00
   42     8 O    -7.295943357221E+00 -5.587918505006E-04  2.136649975924E+00

 *******************************************************************************
 STARTING BASIS SET HANDLING 
 *******************************************************************************

 Loading internal basis set: SOLDEF2MSVP         

 Please cite in your publication:
 L. Dona', J. G. Brandenburg and B. Civalleri, J. Chem. Phys., 151, 121101 (2019
 )                                                                              
                                                                                
                    

 *******************************************************************************
 LOCAL ATOMIC FUNCTIONS BASIS SET
 *******************************************************************************
   ATOM   X(AU)   Y(AU)   Z(AU)  N. TYPE  EXPONENT  S COEF   P COEF   D/F/G COEF
 *******************************************************************************
   1 B  -10.444  10.300  -4.054
                                  1 S  
                                         2.410E+03 1.755E-03 0.000E+00 0.000E+00
                                         3.619E+02 1.344E-02 0.000E+00 0.000E+00
                                         8.231E+01 6.637E-02 0.000E+00 0.000E+00
                                         2.311E+01 2.303E-01 0.000E+00 0.000E+00
                                         7.252E+00 5.150E-01 0.000E+00 0.000E+00
                                  2 S  
                                         2.367E+00 1.000E+00 0.000E+00 0.000E+00
                                  3 S  
                                         5.533E-01 1.000E+00 0.000E+00 0.000E+00
                                  4 S  
                                         1.716E-01 1.000E+00 0.000E+00 0.000E+00
                           5-     7 P  
                                         6.002E+00 0.000E+00-3.555E-02 0.000E+00
                                         1.240E+00 0.000E+00-1.983E-01 0.000E+00
                                         3.367E-01 0.000E+00-5.048E-01 0.000E+00
                           8-    10 P  
                                         1.256E-01 0.000E+00 1.000E+00 0.000E+00
                          11-    15 D  
                                         8.880E-01 0.000E+00 0.000E+00 1.000E+00
   2 B   -6.533  12.559  -4.054
   3 B   14.144   0.622  -4.073
   4 B    4.643  12.560  -4.054
   5 B    8.555  10.301  -4.054
   6 B    9.499 -11.935   4.053
   7 H   -3.329   8.510  -4.093
                                 91 S  
                                         1.874E+01 1.968E-02 0.000E+00 0.000E+00
                                         2.826E+00 1.380E-01 0.000E+00 0.000E+00
                                         6.401E-01 4.783E-01 0.000E+00 0.000E+00
                                 92 S  
                                         1.756E-01 1.000E+00 0.000E+00 0.000E+00
   8 H    2.376 -10.143   4.027
   9 H   -2.386 -10.148   4.026
  10 H    1.434   8.508  -4.100
  11 H   -8.542   5.503  -4.033
  12 H    7.596  -7.126   4.099
  13 H    9.035  -4.642  -4.026
  14 H   -9.975   3.014   4.100
  15 H   -7.596  -7.140   4.033
  16 H    6.652   5.494  -4.099
  17 H    9.034   1.371  -4.100
  18 H   -9.976  -3.016   4.026
  19 C   -3.603  12.559  -4.074
                                115 S  
                                         3.624E+03 1.634E-03 0.000E+00 0.000E+00
                                         5.440E+02 1.252E-02 0.000E+00 0.000E+00
                                         1.237E+02 6.211E-02 0.000E+00 0.000E+00
                                         3.476E+01 2.182E-01 0.000E+00 0.000E+00
                                         1.093E+01 4.980E-01 0.000E+00 0.000E+00
                                116 S  
                                         3.574E+00 1.000E+00 0.000E+00 0.000E+00
                                117 S  
                                         7.742E-01 1.000E+00 0.000E+00 0.000E+00
                                118 S  
                                         2.330E-01 1.000E+00 0.000E+00 0.000E+00
                         119-   121 P  
                                         9.443E+00 0.000E+00 3.790E-02 0.000E+00
                                         2.002E+00 0.000E+00 2.082E-01 0.000E+00
                                         5.463E-01 0.000E+00 5.047E-01 0.000E+00
                         122-   124 P  
                                         1.820E-01 0.000E+00 1.000E+00 0.000E+00
                         125-   129 D  
                                         8.880E-01 0.000E+00 0.000E+00 1.000E+00
  20 C   -2.260  10.275  -4.092
  21 C    1.313 -11.910   4.032
  22 C   -1.317 -11.911   4.037
  23 C    0.369  10.275  -4.102
  24 C    1.712  12.560  -4.089
  25 C   12.678  -6.429  -4.052
  26 C  -10.603   5.459  -4.034
  27 C    9.658  -7.090   4.094
  28 C   10.029  -6.449  -4.037
  29 C  -10.973   4.819   4.102
  30 C   10.964  -9.396   4.089
  31 C   12.678   3.158  -4.074
  32 C   -9.658  -7.098   4.034
  33 C    8.714   5.455  -4.094
  34 C   10.029   3.178  -4.089
  35 C  -10.973  -4.821   4.024
  36 C   10.020   7.761  -4.089
  37 O   12.843  -1.635  -4.068
                                385 S  
                                         6.773E+03 1.727E-03 0.000E+00 0.000E+00
                                         1.017E+03 1.325E-02 0.000E+00 0.000E+00
                                         2.313E+02 6.603E-02 0.000E+00 0.000E+00
                                         6.501E+01 2.353E-01 0.000E+00 0.000E+00
                                         2.050E+01 5.498E-01 0.000E+00 0.000E+00
                                386 S  
                                         6.716E+00 1.000E+00 0.000E+00 0.000E+00
                                387 S  
                                         1.147E+00 1.000E+00 0.000E+00 0.000E+00
                                388 S  
                                         3.342E-01 1.000E+00 0.000E+00 0.000E+00
                         389-   391 P  
                                         1.769E+01 0.000E+00 4.359E-02 0.000E+00
                                         3.854E+00 0.000E+00 2.318E-01 0.000E+00
                                         1.047E+00 0.000E+00 5.146E-01 0.000E+00
                         392-   394 P  
                                         2.759E-01 0.000E+00 1.000E+00 0.000E+00
                         395-   399 D  
                                         8.000E-01 0.000E+00 0.000E+00 1.000E+00
  38 O   -7.837  10.302  -4.028
  39 O   -6.893 -11.940   4.038
  40 O    6.893 -11.938   4.058
  41 O    5.948  10.303  -4.028
  42 O  -13.787  -0.001   4.038

 *******************************************************************************
 FINISHED BASIS SET HANDLING 
 *******************************************************************************

 INFORMATION **** SET_MPP **** PCRYSTAL CALCULATION
 INFORMATION **** READM2 **** NEW DEFAULT: FOCK/KS MATRIX MIXING SET TO 30 %
 INFORMATION **** READM2 **** NEW DEFAULT: FULL DIRECT SCF MODE
 INFORMATION **** READM2 **** NEW DEFAULT: COULOMB BIPOLAR BUFFER SET TO 32 Mb
 INFORMATION **** READM2 **** NEW DEFAULT: EXCHANGE BIPOLAR BUFFER SET TO 32 Mb

 *******************************************************************************
 NEW DEFAULT: DFT INTEGRATION GRID INCREASED TO XLGRID
 NEW DEFAULT: DIIS ACCELERATOR ACTIVE
 USE KEYWORD NODIIS TO TURN IT OFF
 *******************************************************************************

 WARNING **** RDDFTP **** HSEsol-HJS ACTIVE
 RANGE SEPARATION - OMEGA:   0.110000000000000     
 WARNING **** RDDFTP **** HSEsol-3c has to be combined with sol-def2-mSVP basis set
 *******************************************************************************
 N. OF ATOMS PER CELL        42  COULOMB OVERLAP TOL         (T1) 10**   -6
 NUMBER OF SHELLS           234  COULOMB PENETRATION TOL     (T2) 10**   -6
 NUMBER OF AO               474  EXCHANGE OVERLAP TOL        (T3) 10**   -6
 N. OF ELECTRONS PER CELL   198  EXCHANGE PSEUDO OVP (F(G))  (T4) 10**   -6
 CORE ELECTRONS PER CELL     60  EXCHANGE PSEUDO OVP (P(G))  (T5) 10**  -12
 N. OF SYMMETRY OPERATORS     1  POLE ORDER IN MONO ZONE                  4
 *******************************************************************************
 TYPE OF CALCULATION :  RESTRICTED CLOSED SHELL
 KOHN-SHAM HAMILTONIAN

 (EXCHANGE)[CORRELATION] FUNCTIONAL:(HSEsol GGA)[PBEsol]

 RANGE-SEPARATED HYBRID FUNCTIONAL 
 OMEGA (SHORT-RANGE)[LONG-RANGE]:(    0.1100)[    0.0000]

 HYBRID EXCHANGE - PERCENTAGE OF FOCK EXCHANGE    25.0000

 CAPPA:IS1  2;IS2  2;IS3  8; K PTS MONK NET  20; SYMMOPS:K SPACE   2;G SPACE   1

 *******************************************************************************
 MAX NUMBER OF SCF CYCLES      50  CONVERGENCE ON DELTAP        10**-16
 WEIGHT OF F(I) IN F(I+1)      30% CONVERGENCE ON ENERGY        10**- 6
 SHRINK. FACT.(MONKH.)    2  2  8  NUMBER OF K POINTS IN THE IBZ     20
 SHRINKING FACTOR(GILAT NET)    8  NUMBER OF K POINTS(GILAT NET)   1028
 *******************************************************************************
 *** K POINTS COORDINATES (OBLIQUE COORDINATES IN UNITS OF IS =  2)
   1-R(  0  0  0)   2-R(  1  0  0)   3-R(  0  1  0)   4-R(  1  1  0)
   5-C(  0  0  1)   6-C(  1  0  1)   7-C(  0  1  1)   8-C(  1  1  1)
   9-C(  0  0  2)  10-C(  1  0  2)  11-C(  0  1  2)  12-C(  1  1  2)
  13-C(  0  0  3)  14-C(  1  0  3)  15-C(  0  1  3)  16-C(  1  1  3)
  17-R(  0  0  4)  18-R(  1  0  4)  19-R(  0  1  4)  20-R(  1  1  4)

 DIRECT LATTICE VECTORS COMPON. (A.U.)     RECIP. LATTICE VECTORS COMPON. (A.U.) 
        X            Y            Z              X            Y            Z
   24.5879030  -14.1935232    0.0000000      0.2555397    0.0000000   -0.0297097
    0.0000000   28.3910867    0.0000000      0.1277517    0.2213084   -0.0594250
    0.9447307    1.6365717    8.1258335      0.0000000    0.0000000    0.7732358

 DISK SPACE FOR EIGENVECTORS (FTN 10)     7189632 REALS

 SYMMETRY ADAPTION OF THE BLOCH FUNCTIONS DISABLED
 TTTTTTTTTTTTTTTTTTTTTTTTTTTTTT gordsh1     TELAPSE        0.04 TCPU        0.04

 MATRIX SIZE: P(G)  308260, F(G)   64978, P(G) IRR  155645, F(G) IRR   65674
 MAX G-VECTOR INDEX FOR 1- AND 2-ELECTRON INTEGRALS  89

 TTTTTTTTTTTTTTTTTTTTTTTTTTTTTT INPUT       TELAPSE        0.29 TCPU        0.29

 NEIGHBORS OF THE NON-EQUIVALENT ATOMS

 N = NUMBER OF NEIGHBORS AT DISTANCE R
    ATOM  N     R/ANG      R/AU   NEIGHBORS (ATOM LABELS AND CELL INDICES)
   1 B    1     1.3791     2.6061   37 O   -1 0 0
   1 B    1     1.3793     2.6065   38 O    0 0 0
   1 B    1     1.5503     2.9297   25 C   -1 0 0
   1 B    1     2.3895     4.5155    3 B   -1 0 0
   1 B    1     2.3898     4.5160    2 B    0 0 0
   1 B    1     2.5632     4.8437   26 C    0 0 0

   2 B    1     1.3793     2.6065   39 O    0 1-1
   2 B    1     1.3793     2.6065   38 O    0 0 0
   2 B    1     1.5504     2.9298   19 C    0 0 0
   2 B    1     2.3895     4.5156    3 B   -1 0 0
   2 B    1     2.3898     4.5160    1 B    0 0 0
   2 B    1     2.5634     4.8440   22 C    0 1-1

   3 B    1     1.3791     2.6061   37 O    0 0 0
   3 B    1     1.3793     2.6064   39 O    1 1-1
   3 B    1     1.5502     2.9294   31 C    0 0 0
   3 B    1     2.3895     4.5155    1 B    1 0 0
   3 B    1     2.3895     4.5156    2 B    1 0 0
   3 B    1     2.5629     4.8433   32 C    1 1-1

   4 B    1     1.3795     2.6068   40 O    0 1-1
   4 B    1     1.3795     2.6070   41 O    0 0 0
   4 B    1     1.5513     2.9316   24 C    0 0 0
   4 B    1     2.3905     4.5174    6 B    0 1-1
   4 B    1     2.3905     4.5175    5 B    0 0 0
   4 B    1     2.5648     4.8468   23 C    0 0 0

   5 B    1     1.3795     2.6069   41 O    0 0 0
   5 B    1     1.3797     2.6072   42 O    1 1-1
   5 B    1     1.5516     2.9322   36 C    0 0 0
   5 B    1     2.3905     4.5175    4 B    0 0 0
   5 B    1     2.3911     4.5185    6 B    0 1-1
   5 B    1     2.5651     4.8473   35 C    1 1-1

   6 B    1     1.3795     2.6068   40 O    0 0 0
   6 B    1     1.3796     2.6071   42 O    1 0 0
   6 B    1     1.5516     2.9322   30 C    0 0 0
   6 B    1     2.3905     4.5174    4 B    0-1 1
   6 B    1     2.3911     4.5185    5 B    0-1 1
   6 B    1     2.5651     4.8473   29 C    1 0 0

   7 H    1     1.0913     2.0623   20 C    0 0 0
   7 H    1     2.1472     4.0576   19 C    0 0 0
   7 H    1     2.1680     4.0969   23 C    0 0 0
   7 H    1     2.5202     4.7625   10 H    0 0 0
   7 H    1     2.5676     4.8520   38 O    0 0 0
   7 H    1     2.7321     5.1630    2 B    0 0 0

   8 H    1     1.0914     2.0625   21 C    0 0 0
   8 H    1     2.1493     4.0616   24 C    0-1 1
   8 H    1     2.1666     4.0942   22 C    0 0 0
   8 H    1     2.5198     4.7618    9 H    0 0 0
   8 H    1     2.5720     4.8604   40 O    0 0 0
   8 H    1     2.7362     5.1707    4 B    0-1 1

   9 H    1     1.0914     2.0624   22 C    0 0 0
   9 H    1     2.1471     4.0575   19 C    0-1 1
   9 H    1     2.1680     4.0970   21 C    0 0 0
   9 H    1     2.5198     4.7618    8 H    0 0 0
   9 H    1     2.5665     4.8500   39 O    0 0 0
   9 H    1     2.7315     5.1618    2 B    0-1 1

  10 H    1     1.0915     2.0626   23 C    0 0 0
  10 H    1     2.1490     4.0610   24 C    0 0 0
  10 H    1     2.1669     4.0948   20 C    0 0 0
  10 H    1     2.5202     4.7625    7 H    0 0 0
  10 H    1     2.5712     4.8588   41 O    0 0 0
  10 H    1     2.7351     5.1686    4 B    0 0 0

  11 H    1     1.0913     2.0623   26 C    0 0 0
  11 H    1     2.1469     4.0571   25 C   -1 0 0
  11 H    1     2.1680     4.0968   29 C    0 0-1
  11 H    1     2.5198     4.7617   14 H    0 0-1
  11 H    1     2.5670     4.8510   38 O    0 0 0
  11 H    1     2.7310     5.1609    1 B    0 0 0

  12 H    1     1.0914     2.0625   27 C    0 0 0
  12 H    1     2.1493     4.0617   30 C    0 0 0
  12 H    1     2.1664     4.0939   28 C    0 0 1
  12 H    1     2.5192     4.7606   13 H    0 0 1
  12 H    1     2.5735     4.8632   40 O    0 0 0
  12 H    1     2.7371     5.1723    6 B    0 0 0

  13 H    1     1.0914     2.0624   28 C    0 0 0
  13 H    1     2.1475     4.0581   25 C    0 0 0
  13 H    1     2.1679     4.0967   27 C    0 0-1
  13 H    1     2.5192     4.7606   12 H    0 0-1
  13 H    1     2.5675     4.8519   37 O    0 0 0
  13 H    1     2.7328     5.1643    1 B    1 0 0

  14 H    1     1.0914     2.0625   29 C    0 0 0
  14 H    1     2.1491     4.0612   30 C   -1 0 0
  14 H    1     2.1666     4.0942   26 C    0 0 1
  14 H    1     2.5198     4.7617   11 H    0 0 1
  14 H    1     2.5723     4.8609   42 O    0 0 0
  14 H    1     2.7355     5.1693    6 B   -1 0 0

  15 H    1     1.0914     2.0624   32 C    0 0 0
  15 H    1     2.1475     4.0582   31 C   -1-1 1
  15 H    1     2.1678     4.0966   35 C    0 0 0
  15 H    1     2.5200     4.7621   18 H    0 0 0
  15 H    1     2.5667     4.8503   39 O    0 0 0
  15 H    1     2.7315     5.1618    3 B   -1-1 1

  16 H    1     1.0913     2.0623   33 C    0 0 0
  16 H    1     2.1487     4.0605   36 C    0 0 0
  16 H    1     2.1667     4.0945   34 C    0 0 0
  16 H    1     2.5197     4.7616   17 H    0 0 0
  16 H    1     2.5723     4.8610   41 O    0 0 0
  16 H    1     2.7359     5.1701    5 B    0 0 0

  17 H    1     1.0915     2.0626   34 C    0 0 0
  17 H    1     2.1479     4.0589   31 C    0 0 0
  17 H    1     2.1679     4.0968   33 C    0 0 0
  17 H    1     2.5197     4.7616   16 H    0 0 0
  17 H    1     2.5677     4.8522   37 O    0 0 0
  17 H    1     2.7331     5.1648    3 B    0 0 0

  18 H    1     1.0914     2.0624   35 C    0 0 0
  18 H    1     2.1486     4.0602   36 C   -1-1 1
  18 H    1     2.1668     4.0947   32 C    0 0 0
  18 H    1     2.5200     4.7621   15 H    0 0 0
  18 H    1     2.5717     4.8598   42 O    0 0 0
  18 H    1     2.7349     5.1682    5 B   -1-1 1

  19 C    1     1.4020     2.6495   22 C    0 1-1
  19 C    1     1.4021     2.6495   20 C    0 0 0
  19 C    1     1.5504     2.9298    2 B    0 0 0
  19 C    1     2.1471     4.0575    9 H    0 1-1
  19 C    1     2.1472     4.0576    7 H    0 0 0
  19 C    1     2.4246     4.5817   21 C    0 1-1

  20 C    1     1.0913     2.0623    7 H    0 0 0
  20 C    1     1.3914     2.6294   23 C    0 0 0
  20 C    1     1.4021     2.6495   19 C    0 0 0
  20 C    1     2.1669     4.0948   10 H    0 0 0
  20 C    1     2.4177     4.5688   22 C    0 1-1
  20 C    1     2.4250     4.5825   24 C    0 0 0

  21 C    1     1.0914     2.0625    8 H    0 0 0
  21 C    1     1.3914     2.6293   22 C    0 0 0
  21 C    1     1.4026     2.6505   24 C    0-1 1
  21 C    1     2.1680     4.0970    9 H    0 0 0
  21 C    1     2.4182     4.5697   23 C    0-1 1
  21 C    1     2.4246     4.5817   19 C    0-1 1

  22 C    1     1.0914     2.0624    9 H    0 0 0
  22 C    1     1.3914     2.6293   21 C    0 0 0
  22 C    1     1.4020     2.6495   19 C    0-1 1
  22 C    1     2.1666     4.0942    8 H    0 0 0
  22 C    1     2.4177     4.5688   20 C    0-1 1
  22 C    1     2.4250     4.5826   24 C    0-1 1

  23 C    1     1.0915     2.0626   10 H    0 0 0
  23 C    1     1.3914     2.6294   20 C    0 0 0
  23 C    1     1.4025     2.6504   24 C    0 0 0
  23 C    1     2.1680     4.0969    7 H    0 0 0
  23 C    1     2.4182     4.5697   21 C    0 1-1
  23 C    1     2.4246     4.5818   19 C    0 0 0

  24 C    1     1.4025     2.6504   23 C    0 0 0
  24 C    1     1.4026     2.6505   21 C    0 1-1
  24 C    1     1.5513     2.9316    4 B    0 0 0
  24 C    1     2.1490     4.0610   10 H    0 0 0
  24 C    1     2.1493     4.0616    8 H    0 1-1
  24 C    1     2.4250     4.5825   20 C    0 0 0

  25 C    1     1.4020     2.6494   26 C    1 0 0
  25 C    1     1.4021     2.6495   28 C    0 0 0
  25 C    1     1.5503     2.9297    1 B    1 0 0
  25 C    1     2.1469     4.0571   11 H    1 0 0
  25 C    1     2.1475     4.0581   13 H    0 0 0
  25 C    1     2.4246     4.5818   27 C    0 0-1

  26 C    1     1.0913     2.0623   11 H    0 0 0
  26 C    1     1.3914     2.6293   29 C    0 0-1
  26 C    1     1.4020     2.6494   25 C   -1 0 0
  26 C    1     2.1666     4.0942   14 H    0 0-1
  26 C    1     2.4175     4.5684   28 C   -1 0 0
  26 C    1     2.4251     4.5828   30 C   -1 0-1

  27 C    1     1.0914     2.0625   12 H    0 0 0
  27 C    1     1.3915     2.6295   28 C    0 0 1
  27 C    1     1.4026     2.6505   30 C    0 0 0
  27 C    1     2.1679     4.0967   13 H    0 0 1
  27 C    1     2.4179     4.5691   29 C    1 0 0
  27 C    1     2.4246     4.5818   25 C    0 0 1

  28 C    1     1.0914     2.0624   13 H    0 0 0
  28 C    1     1.3915     2.6295   27 C    0 0-1
  28 C    1     1.4021     2.6495   25 C    0 0 0
  28 C    1     2.1664     4.0939   12 H    0 0-1
  28 C    1     2.4175     4.5684   26 C    1 0 0
  28 C    1     2.4253     4.5832   30 C    0 0-1

  29 C    1     1.0914     2.0625   14 H    0 0 0
  29 C    1     1.3914     2.6293   26 C    0 0 1
  29 C    1     1.4025     2.6504   30 C   -1 0 0
  29 C    1     2.1680     4.0968   11 H    0 0 1
  29 C    1     2.4179     4.5691   27 C   -1 0 0
  29 C    1     2.4247     4.5819   25 C   -1 0 1

  30 C    1     1.4025     2.6504   29 C    1 0 0
  30 C    1     1.4026     2.6505   27 C    0 0 0
  30 C    1     1.5516     2.9322    6 B    0 0 0
  30 C    1     2.1491     4.0612   14 H    1 0 0
  30 C    1     2.1493     4.0617   12 H    0 0 0
  30 C    1     2.4251     4.5828   26 C    1 0 1

  31 C    1     1.4021     2.6496   32 C    1 1-1
  31 C    1     1.4021     2.6497   34 C    0 0 0
  31 C    1     1.5502     2.9294    3 B    0 0 0
  31 C    1     2.1475     4.0582   15 H    1 1-1
  31 C    1     2.1479     4.0589   17 H    0 0 0
  31 C    1     2.4244     4.5814   33 C    0 0 0

  32 C    1     1.0914     2.0624   15 H    0 0 0
  32 C    1     1.3914     2.6293   35 C    0 0 0
  32 C    1     1.4021     2.6496   31 C   -1-1 1
  32 C    1     2.1668     4.0947   18 H    0 0 0
  32 C    1     2.4179     4.5692   34 C   -1-1 1
  32 C    1     2.4251     4.5827   36 C   -1-1 1

  33 C    1     1.0913     2.0623   16 H    0 0 0
  33 C    1     1.3914     2.6294   34 C    0 0 0
  33 C    1     1.4025     2.6504   36 C    0 0 0
  33 C    1     2.1679     4.0968   17 H    0 0 0
  33 C    1     2.4178     4.5690   35 C    1 1-1
  33 C    1     2.4244     4.5814   31 C    0 0 0

  34 C    1     1.0915     2.0626   17 H    0 0 0
  34 C    1     1.3914     2.6294   33 C    0 0 0
  34 C    1     1.4021     2.6497   31 C    0 0 0
  34 C    1     2.1667     4.0945   16 H    0 0 0
  34 C    1     2.4179     4.5692   32 C    1 1-1
  34 C    1     2.4253     4.5832   36 C    0 0 0

  35 C    1     1.0914     2.0624   18 H    0 0 0
  35 C    1     1.3914     2.6293   32 C    0 0 0
  35 C    1     1.4025     2.6503   36 C   -1-1 1
  35 C    1     2.1678     4.0966   15 H    0 0 0
  35 C    1     2.4178     4.5690   33 C   -1-1 1
  35 C    1     2.4245     4.5817   31 C   -1-1 1

  36 C    1     1.4025     2.6503   35 C    1 1-1
  36 C    1     1.4025     2.6504   33 C    0 0 0
  36 C    1     1.5516     2.9322    5 B    0 0 0
  36 C    1     2.1486     4.0602   18 H    1 1-1
  36 C    1     2.1487     4.0605   16 H    0 0 0
  36 C    1     2.4251     4.5827   32 C    1 1-1

  37 O    1     1.3791     2.6061    1 B    1 0 0
  37 O    1     1.3791     2.6061    3 B    0 0 0
  37 O    1     2.3880     4.5126   38 O    1 0 0
  37 O    1     2.3882     4.5130   39 O    1 1-1
  37 O    1     2.5383     4.7966   31 C    0 0 0
  37 O    1     2.5384     4.7968   25 C    0 0 0

  38 O    1     1.3793     2.6065    1 B    0 0 0
  38 O    1     1.3793     2.6065    2 B    0 0 0
  38 O    1     2.3880     4.5126   37 O   -1 0 0
  38 O    1     2.3882     4.5131   39 O    0 1-1
  38 O    1     2.5391     4.7981   19 C    0 0 0
  38 O    1     2.5395     4.7990   25 C   -1 0 0

  39 O    1     1.3793     2.6064    3 B   -1-1 1
  39 O    1     1.3793     2.6065    2 B    0-1 1
  39 O    1     2.3882     4.5130   37 O   -1-1 1
  39 O    1     2.3882     4.5131   38 O    0-1 1
  39 O    1     2.5390     4.7980   19 C    0-1 1
  39 O    1     2.5391     4.7982   31 C   -1-1 1

  40 O    1     1.3795     2.6068    6 B    0 0 0
  40 O    1     1.3795     2.6068    4 B    0-1 1
  40 O    1     2.3880     4.5126   42 O    1 0 0
  40 O    1     2.3884     4.5134   41 O    0-1 1
  40 O    1     2.5400     4.7998   24 C    0-1 1
  40 O    1     2.5403     4.8005   30 C    0 0 0

  41 O    1     1.3795     2.6069    5 B    0 0 0
  41 O    1     1.3795     2.6070    4 B    0 0 0
  41 O    1     2.3881     4.5128   42 O    1 1-1
  41 O    1     2.3884     4.5134   40 O    0 1-1
  41 O    1     2.5404     4.8006   24 C    0 0 0
  41 O    1     2.5405     4.8008   36 C    0 0 0

  42 O    1     1.3796     2.6071    6 B   -1 0 0
  42 O    1     1.3797     2.6072    5 B   -1-1 1
  42 O    1     2.3880     4.5126   40 O   -1 0 0
  42 O    1     2.3881     4.5128   41 O   -1-1 1
  42 O    1     2.5409     4.8016   36 C   -1-1 1
  42 O    1     2.5410     4.8019   30 C   -1 0 0


 SYMMETRY ALLOWED INTERNAL DEGREE(S) OF FREEDOM: 123
 TTTTTTTTTTTTTTTTTTTTTTTTTTTTTT SYMM        TELAPSE        0.29 TCPU        0.29
 TTTTTTTTTTTTTTTTTTTTTTTTTTTTTT INT_SCREEN  TELAPSE        0.32 TCPU        0.32

 DFT PARAMETERS

     ATOM       ELECTRONS   NET CHARGE   R(ANGSTROM)
   1   5  B       5.0000      0.0000     0.89000000
   7   1  H       1.0000      0.0000     1.11000000
  19   6  C       6.0000      0.0000     0.77000000
  37   8  O       8.0000      0.0000     0.74000000

 SIZE OF GRID=    1327440
 TTTTTTTTTTTTTTTTTTTTTTTTTTTTTT MAKE_GRID2  TELAPSE        9.04 TCPU        9.03
 BECKE WEIGHT FUNCTION
 RADSAFE =     2.00
 TOLERANCES - DENSITY:10**- 6; POTENTIAL:10**- 9; GRID WGT:10**-14

 RADIAL INTEGRATION  - INTERVALS (POINTS,UPPER LIMIT):            1( 75,  4.0*R)

 ANGULAR INTEGRATION - INTERVALS (ACCURACY LEVEL [N. POINTS] UPPER LIMIT):
  1(  4[  86]   0.2)  2(  8[ 194]   0.5)  3( 12[ 350]   0.9)  4( 16[ 974]   3.5)
  5( 12[ 350]9999.0)
 TTTTTTTTTTTTTTTTTTTTTTTTTTTTTT INT_CALC    TELAPSE        9.13 TCPU        9.11
 EEEEEEEEEE INT_CALC TERMINATION  DATE 19 02 2026 TIME 19:15:28.7

 *******************************************************************************
 cof-1_z43_L010_incl                                                             
 CRYSTAL - SCF - TYPE OF CALCULATION :  RESTRICTED CLOSED SHELL
 *******************************************************************************

 CAPPA:IS1  2;IS2  2;IS3  8; K PTS MONK NET  20; SYMMOPS:K SPACE   2;G SPACE   1

 TTTTTTTTTTTTTTTTTTTTTTTTTTTTTT SDIK        TELAPSE        9.76 TCPU       15.59

 AAAAAAAAAAAAAAAAAAAAAAAAAAAAAAAAAAAAAAAAAAAAAAAAAAAAAAAAAAAAAAAAAAAAAAAAAAAAAAA
         ATOMIC WAVEFUNCTION(S)


 NUCLEAR CHARGE  5.0  SYMMETRY SPECIES            S    P
 N. ELECTRONS    5.0  NUMBER OF PRIMITIVE GTOS    8    4
                      NUMBER OF CONTRACTED GTOS   4    2
                      NUMBER OF CLOSED SHELLS     2    0
                      OPEN SHELL OCCUPATION       0    1

  ZNUC  SCFIT    TOTAL HF ENERGY   KINETIC ENERGY   VIRIAL THEOREM ACCURACY
   5.0    11    -2.451164084E+01  2.462155050E+01 -1.995536038E+00  1.5E-06

 NUCLEAR CHARGE  1.0  SYMMETRY SPECIES            S
 N. ELECTRONS    1.0  NUMBER OF PRIMITIVE GTOS    4
                      NUMBER OF CONTRACTED GTOS   2
                      NUMBER OF CLOSED SHELLS     0
                      OPEN SHELL OCCUPATION       1

  ZNUC  SCFIT    TOTAL HF ENERGY   KINETIC ENERGY   VIRIAL THEOREM ACCURACY
   1.0     1    -4.977266687E-01  5.190767460E-01 -1.958869132E+00  0.0E+00

 NUCLEAR CHARGE  6.0  SYMMETRY SPECIES            S    P
 N. ELECTRONS    6.0  NUMBER OF PRIMITIVE GTOS    8    4
                      NUMBER OF CONTRACTED GTOS   4    2
                      NUMBER OF CLOSED SHELLS     2    0
                      OPEN SHELL OCCUPATION       0    2

  ZNUC  SCFIT    TOTAL HF ENERGY   KINETIC ENERGY   VIRIAL THEOREM ACCURACY
   6.0     9    -3.766704647E+01  3.775180683E+01 -1.997754800E+00  1.1E-06

 NUCLEAR CHARGE  8.0  SYMMETRY SPECIES            S    P
 N. ELECTRONS    8.0  NUMBER OF PRIMITIVE GTOS    8    4
                      NUMBER OF CONTRACTED GTOS   4    2
                      NUMBER OF CLOSED SHELLS     2    0
                      OPEN SHELL OCCUPATION       0    4

  ZNUC  SCFIT    TOTAL HF ENERGY   KINETIC ENERGY   VIRIAL THEOREM ACCURACY
   8.0    12    -7.477373220E+01  7.477365593E+01 -2.000001020E+00  3.8E-06

 AAAAAAAAAAAAAAAAAAAAAAAAAAAAAAAAAAAAAAAAAAAAAAAAAAAAAAAAAAAAAAAAAAAAAAAAAAAAAAA

 CHARGE NORMALIZATION FACTOR   1.00000000
 TOTAL ATOMIC CHARGES:
   5.0000000   5.0000000   5.0000000   5.0000000   5.0000000   5.0000000
   1.0000000   1.0000000   1.0000000   1.0000000   1.0000000   1.0000000
   1.0000000   1.0000000   1.0000000   1.0000000   1.0000000   1.0000000
   6.0000000   6.0000000   6.0000000   6.0000000   6.0000000   6.0000000
   6.0000000   6.0000000   6.0000000   6.0000000   6.0000000   6.0000000
   6.0000000   6.0000000   6.0000000   6.0000000   6.0000000   6.0000000
   8.0000000   8.0000000   8.0000000   8.0000000   8.0000000   8.0000000
 TTTTTTTTTTTTTTTTTTTTTTTTTTTTTT MOQGAD      TELAPSE        9.80 TCPU       16.59
 TTTTTTTTTTTTTTTTTTTTTTTTTTTTTT SHELLXN     TELAPSE       16.60 TCPU      219.19
 TTTTTTTTTTTTTTTTTTTTTTTTTTTTTT MONMO3      TELAPSE       16.75 TCPU      224.07
 NUMERICALLY INTEGRATED DENSITY    197.9999869214
 TTTTTTTTTTTTTTTTTTTTTTTTTTTTTT NUMDFT      TELAPSE       17.28 TCPU      241.03
 CYC   0 ETOT(AU) -1.295955096896E+03 DETOT -1.30E+03 tst  0.00E+00 PX  1.00E+00
 TTTTTTTTTTTTTTTTTTTTTTTTTTTTTT DIIS        TELAPSE       17.33 TCPU      242.44
 TTTTTTTTTTTTTTTTTTTTTTTTTTTTTT FDIK        TELAPSE       18.10 TCPU      266.49
 INSULATING STATE
 TOP OF VALENCE BANDS -    BAND     99; K    1; EIG -3.1104863E-01 AU
 BOTTOM OF VIRTUAL BANDS - BAND    100; K   17; EIG -1.6026329E-01 AU
 INDIRECT ENERGY BAND GAP:   4.1031 eV
 BOTTOM OF VIRTUAL BANDS - BAND    100; K    1; EIG -1.5126633E-01 AU
 TTTTTTTTTTTTTTTTTTTTTTTTTTTTTT PDIG        TELAPSE       18.38 TCPU      272.63
 CHARGE NORMALIZATION FACTOR   1.00000000
 TOTAL ATOMIC CHARGES:
   4.1597620   4.1596287   4.1598917   4.1595204   4.1593198   4.1594742
   0.7853023   0.7854120   0.7852732   0.7854005   0.7852695   0.7854417
   0.7852579   0.7854060   0.7852776   0.7854648   0.7852542   0.7854058
   6.0451197   6.2659160   6.2658990   6.2658713   6.2658207   6.0443761
   6.0449581   6.2658492   6.2659403   6.2657571   6.2659620   6.0437056
   6.0454839   6.2656340   6.2661853   6.2655435   6.2661703   6.0439085
   8.6932231   8.6933410   8.6928665   8.6936419   8.6932614   8.6938032
 TTTTTTTTTTTTTTTTTTTTTTTTTTTTTT MOQGAD      TELAPSE       18.43 TCPU      272.67
 TTTTTTTTTTTTTTTTTTTTTTTTTTTTTT SHELLXN     TELAPSE       25.03 TCPU      483.12
 TTTTTTTTTTTTTTTTTTTTTTTTTTTTTT MONMO3      TELAPSE       25.18 TCPU      487.72
 NUMERICALLY INTEGRATED DENSITY    197.9999922267
 TTTTTTTTTTTTTTTTTTTTTTTTTTTTTT NUMDFT      TELAPSE       25.72 TCPU      504.97
 CYC   1 ETOT(AU) -1.288807544757E+03 DETOT  7.15E+00 tst  0.00E+00 PX  1.00E+00
 TTTTTTTTTTTTTTTTTTTTTTTTTTTTTT DIIS        TELAPSE       25.77 TCPU      506.59
 DIIS TEST: 0.11173E+01 AT SCF   CYCLE   1 - MIX   30 %
 TTTTTTTTTTTTTTTTTTTTTTTTTTTTTT FDIK        TELAPSE       26.31 TCPU      524.05
 INSULATING STATE
 TOP OF VALENCE BANDS -    BAND     99; K    1; EIG -2.1774447E-01 AU
 BOTTOM OF VIRTUAL BANDS - BAND    100; K   17; EIG -8.2407839E-02 AU
 INDIRECT ENERGY BAND GAP:   3.6827 eV
 BOTTOM OF VIRTUAL BANDS - BAND    100; K    1; EIG -7.0854901E-02 AU
 TTTTTTTTTTTTTTTTTTTTTTTTTTTTTT PDIG        TELAPSE       26.60 TCPU      530.18
 CHARGE NORMALIZATION FACTOR   1.00000000
 TOTAL ATOMIC CHARGES:
   4.7138162   4.7136152   4.7131079   4.7133629   4.7135700   4.7133602
   0.9162114   0.9162878   0.9168970   0.9169488   0.9160435   0.9160272
   0.9160063   0.9159734   0.9168635   0.9169937   0.9161410   0.9161947
   5.8628940   6.1236454   6.1240357   6.1283130   6.1296272   5.8656678
   5.8630847   6.1261709   6.1276598   6.1267594   6.1273797   5.8663348
   5.8628308   6.1284575   6.1295596   6.1238145   6.1239393   5.8659591
   8.3352415   8.3355416   8.3376389   8.3350234   8.3377221   8.3352787
 TTTTTTTTTTTTTTTTTTTTTTTTTTTTTT MOQGAD      TELAPSE       26.64 TCPU      530.23
 TTTTTTTTTTTTTTTTTTTTTTTTTTTTTT SHELLXN     TELAPSE       33.16 TCPU      737.91
 TTTTTTTTTTTTTTTTTTTTTTTTTTTTTT MONMO3      TELAPSE       33.30 TCPU      742.51
 NUMERICALLY INTEGRATED DENSITY    197.9999918156
 TTTTTTTTTTTTTTTTTTTTTTTTTTTTTT NUMDFT      TELAPSE       33.84 TCPU      759.47
 CYC   2 ETOT(AU) -1.289003107341E+03 DETOT -1.96E-01 tst  4.53E-03 PX  1.58E-01
 TTTTTTTTTTTTTTTTTTTTTTTTTTTTTT DIIS        TELAPSE       33.89 TCPU      761.21
 DIIS TEST: 0.47333E+00 AT SCF   CYCLE   2 - DIIS ACTIVE - HISTORY:     2 CYCLES
 TTTTTTTTTTTTTTTTTTTTTTTTTTTTTT FDIK        TELAPSE       34.43 TCPU      778.57
 INSULATING STATE
 TOP OF VALENCE BANDS -    BAND     99; K    1; EIG -2.3263182E-01 AU
 BOTTOM OF VIRTUAL BANDS - BAND    100; K   17; EIG -7.8069575E-02 AU
 INDIRECT ENERGY BAND GAP:   4.2059 eV
 BOTTOM OF VIRTUAL BANDS - BAND    100; K    1; EIG -6.5696989E-02 AU
 TTTTTTTTTTTTTTTTTTTTTTTTTTTTTT PDIG        TELAPSE       34.72 TCPU      784.70
 CHARGE NORMALIZATION FACTOR   1.00000000
 TOTAL ATOMIC CHARGES:
   4.5035711   4.5027612   4.5025969   4.5021104   4.5020881   4.5025803
   0.8906151   0.8907397   0.8911361   0.8912744   0.8905414   0.8907949
   0.8906260   0.8906620   0.8911195   0.8913251   0.8905942   0.8906550
   5.8893846   6.1594509   6.1591501   6.1593475   6.1584160   5.8882217
   5.8903363   6.1589652   6.1584859   6.1589538   6.1585664   5.8891452
   5.8898846   6.1593468   6.1585354   6.1593724   6.1591733   5.8878309
   8.5087576   8.5089090   8.5078810   8.5090636   8.5078072   8.5092229
 TTTTTTTTTTTTTTTTTTTTTTTTTTTTTT MOQGAD      TELAPSE       34.76 TCPU      784.75
 TTTTTTTTTTTTTTTTTTTTTTTTTTTTTT SHELLXN     TELAPSE       41.21 TCPU      990.03
 TTTTTTTTTTTTTTTTTTTTTTTTTTTTTT MONMO3      TELAPSE       41.35 TCPU      994.60
 NUMERICALLY INTEGRATED DENSITY    197.9999912489
 TTTTTTTTTTTTTTTTTTTTTTTTTTTTTT NUMDFT      TELAPSE       41.88 TCPU     1011.57
 CYC   3 ETOT(AU) -1.289101958241E+03 DETOT -9.89E-02 tst  7.40E-04 PX  6.11E-02
 TTTTTTTTTTTTTTTTTTTTTTTTTTTTTT DIIS        TELAPSE       41.94 TCPU     1013.45
 DIIS TEST: 0.11163E-01 AT SCF   CYCLE   3 - DIIS ACTIVE - HISTORY:     3 CYCLES
 TTTTTTTTTTTTTTTTTTTTTTTTTTTTTT FDIK        TELAPSE       42.45 TCPU     1029.85
 INSULATING STATE
 TOP OF VALENCE BANDS -    BAND     99; K    1; EIG -2.4268209E-01 AU
 BOTTOM OF VIRTUAL BANDS - BAND    100; K   17; EIG -8.7233682E-02 AU
 INDIRECT ENERGY BAND GAP:   4.2300 eV
 BOTTOM OF VIRTUAL BANDS - BAND    100; K    1; EIG -7.5434505E-02 AU
 TTTTTTTTTTTTTTTTTTTTTTTTTTTTTT PDIG        TELAPSE       42.74 TCPU     1035.99
 CHARGE NORMALIZATION FACTOR   1.00000000
 TOTAL ATOMIC CHARGES:
   4.5099664   4.5087136   4.5084240   4.5086388   4.5086890   4.5096487
   0.8738966   0.8740069   0.8742077   0.8741677   0.8735688   0.8735612
   0.8735604   0.8735036   0.8742092   0.8742004   0.8738858   0.8738974
   5.9389730   6.1596733   6.1602616   6.1625990   6.1647836   5.9427133
   5.9392652   6.1612664   6.1631212   6.1616616   6.1628949   5.9429843
   5.9389218   6.1625485   6.1649341   6.1595019   6.1604277   5.9428930
   8.4775641   8.4777901   8.4793854   8.4775347   8.4798096   8.4777455
 TTTTTTTTTTTTTTTTTTTTTTTTTTTTTT MOQGAD      TELAPSE       42.78 TCPU     1036.03
 TTTTTTTTTTTTTTTTTTTTTTTTTTTTTT SHELLXN     TELAPSE       49.20 TCPU     1240.66
 TTTTTTTTTTTTTTTTTTTTTTTTTTTTTT MONMO3      TELAPSE       49.34 TCPU     1245.23
 NUMERICALLY INTEGRATED DENSITY    197.9999915707
 TTTTTTTTTTTTTTTTTTTTTTTTTTTTTT NUMDFT      TELAPSE       49.88 TCPU     1262.19
 CYC   4 ETOT(AU) -1.289104241246E+03 DETOT -2.28E-03 tst  2.68E-05 PX  1.19E-02
 TTTTTTTTTTTTTTTTTTTTTTTTTTTTTT DIIS        TELAPSE       49.95 TCPU     1264.54
 DIIS TEST: 0.39457E-02 AT SCF   CYCLE   4 - DIIS ACTIVE - HISTORY:     4 CYCLES
 TTTTTTTTTTTTTTTTTTTTTTTTTTTTTT FDIK        TELAPSE       50.46 TCPU     1281.02
 INSULATING STATE
 TOP OF VALENCE BANDS -    BAND     99; K    1; EIG -2.4076048E-01 AU
 BOTTOM OF VIRTUAL BANDS - BAND    100; K   17; EIG -8.6439075E-02 AU
 INDIRECT ENERGY BAND GAP:   4.1993 eV
 BOTTOM OF VIRTUAL BANDS - BAND    100; K    1; EIG -7.4466471E-02 AU
 TTTTTTTTTTTTTTTTTTTTTTTTTTTTTT PDIG        TELAPSE       50.74 TCPU     1287.15
 CHARGE NORMALIZATION FACTOR   1.00000000
 TOTAL ATOMIC CHARGES:
   4.5113862   4.5106306   4.5103720   4.5100389   4.5100629   4.5104677
   0.8772473   0.8773832   0.8776476   0.8778441   0.8770400   0.8772757
   0.8770858   0.8771673   0.8776257   0.8778973   0.8772039   0.8773052
   5.9197641   6.1628863   6.1623985   6.1650403   6.1638624   5.9177992
   5.9200411   6.1638696   6.1634016   6.1639982   6.1634106   5.9182913
   5.9201557   6.1650798   6.1639344   6.1628729   6.1623982   5.9175360
   8.4884340   8.4886067   8.4886824   8.4885845   8.4885136   8.4887572
 TTTTTTTTTTTTTTTTTTTTTTTTTTTTTT MOQGAD      TELAPSE       50.79 TCPU     1287.20
 TTTTTTTTTTTTTTTTTTTTTTTTTTTTTT SHELLXN     TELAPSE       57.29 TCPU     1494.31
 TTTTTTTTTTTTTTTTTTTTTTTTTTTTTT MONMO3      TELAPSE       57.44 TCPU     1498.95
 NUMERICALLY INTEGRATED DENSITY    197.9999915481
 TTTTTTTTTTTTTTTTTTTTTTTTTTTTTT NUMDFT      TELAPSE       57.98 TCPU     1516.42
 CYC   5 ETOT(AU) -1.289105134256E+03 DETOT -8.93E-04 tst  5.27E-06 PX  6.94E-03
 TTTTTTTTTTTTTTTTTTTTTTTTTTTTTT DIIS        TELAPSE       58.07 TCPU     1519.17
 DIIS TEST: 0.94313E-04 AT SCF   CYCLE   5 - DIIS ACTIVE - HISTORY:     5 CYCLES
 TTTTTTTTTTTTTTTTTTTTTTTTTTTTTT FDIK        TELAPSE       58.63 TCPU     1537.06
 INSULATING STATE
 TOP OF VALENCE BANDS -    BAND     99; K    1; EIG -2.4054232E-01 AU
 BOTTOM OF VIRTUAL BANDS - BAND    100; K   17; EIG -8.5826712E-02 AU
 INDIRECT ENERGY BAND GAP:   4.2100 eV
 BOTTOM OF VIRTUAL BANDS - BAND    100; K    1; EIG -7.3856186E-02 AU
 TTTTTTTTTTTTTTTTTTTTTTTTTTTTTT PDIG        TELAPSE       58.92 TCPU     1543.20
 CHARGE NORMALIZATION FACTOR   1.00000000
 TOTAL ATOMIC CHARGES:
   4.5109022   4.5099100   4.5096524   4.5098786   4.5099148   4.5105984
   0.8782537   0.8783286   0.8787484   0.8786495   0.8781165   0.8781032
   0.8781316   0.8780278   0.8787477   0.8786825   0.8782431   0.8782214
   5.9165811   6.1612645   6.1623379   6.1624791   6.1653370   5.9219895
   5.9172627   6.1618559   6.1640236   6.1621285   6.1638795   5.9223158
   5.9166563   6.1624177   6.1655122   6.1610752   6.1625034   5.9220388
   8.4874260   8.4876375   8.4881692   8.4875346   8.4887266   8.4877369
 TTTTTTTTTTTTTTTTTTTTTTTTTTTTTT MOQGAD      TELAPSE       58.97 TCPU     1543.24
 TTTTTTTTTTTTTTTTTTTTTTTTTTTTTT SHELLXN     TELAPSE       65.47 TCPU     1750.25
 TTTTTTTTTTTTTTTTTTTTTTTTTTTTTT MONMO3      TELAPSE       65.61 TCPU     1754.84
 NUMERICALLY INTEGRATED DENSITY    197.9999915469
 TTTTTTTTTTTTTTTTTTTTTTTTTTTTTT NUMDFT      TELAPSE       66.16 TCPU     1772.58
 CYC   6 ETOT(AU) -1.289105140735E+03 DETOT -6.48E-06 tst  8.27E-07 PX  1.02E-03
 TTTTTTTTTTTTTTTTTTTTTTTTTTTTTT DIIS        TELAPSE       66.25 TCPU     1775.36
 DIIS TEST: 0.66905E-04 AT SCF   CYCLE   6 - DIIS ACTIVE - HISTORY:     6 CYCLES
 TTTTTTTTTTTTTTTTTTTTTTTTTTTTTT FDIK        TELAPSE       66.80 TCPU     1792.87
 INSULATING STATE
 TOP OF VALENCE BANDS -    BAND     99; K    1; EIG -2.4054190E-01 AU
 BOTTOM OF VIRTUAL BANDS - BAND    100; K   17; EIG -8.5867295E-02 AU
 INDIRECT ENERGY BAND GAP:   4.2089 eV
 BOTTOM OF VIRTUAL BANDS - BAND    100; K    1; EIG -7.3897423E-02 AU
 TTTTTTTTTTTTTTTTTTTTTTTTTTTTTT PDIG        TELAPSE       67.08 TCPU     1799.00
 CHARGE NORMALIZATION FACTOR   1.00000000
 TOTAL ATOMIC CHARGES:
   4.5111878   4.5102744   4.5100196   4.5098154   4.5098436   4.5104289
   0.8782102   0.8783476   0.8786250   0.8787418   0.8780145   0.8781757
   0.8780456   0.8780835   0.8786127   0.8787857   0.8781827   0.8782557
   5.9196210   6.1618042   6.1615901   6.1637897   6.1636445   5.9194053
   5.9200094   6.1626888   6.1629088   6.1628980   6.1628332   5.9199384
   5.9198691   6.1637837   6.1637628   6.1617171   6.1616587   5.9192823
   8.4875380   8.4877257   8.4881794   8.4876504   8.4882166   8.4878345
 TTTTTTTTTTTTTTTTTTTTTTTTTTTTTT MOQGAD      TELAPSE       67.13 TCPU     1799.05
 TTTTTTTTTTTTTTTTTTTTTTTTTTTTTT SHELLXN     TELAPSE       73.63 TCPU     2006.38
 TTTTTTTTTTTTTTTTTTTTTTTTTTTTTT MONMO3      TELAPSE       73.78 TCPU     2010.99
 NUMERICALLY INTEGRATED DENSITY    197.9999915377
 TTTTTTTTTTTTTTTTTTTTTTTTTTTTTT NUMDFT      TELAPSE       74.32 TCPU     2028.33
 CYC   7 ETOT(AU) -1.289105157815E+03 DETOT -1.71E-05 tst  4.63E-07 PX  7.80E-04
 TTTTTTTTTTTTTTTTTTTTTTTTTTTTTT DIIS        TELAPSE       74.40 TCPU     2030.96
 DIIS TEST: 0.29938E-05 AT SCF   CYCLE   7 - DIIS ACTIVE - HISTORY:     7 CYCLES
 TTTTTTTTTTTTTTTTTTTTTTTTTTTTTT FDIK        TELAPSE       74.97 TCPU     2049.04
 INSULATING STATE
 TOP OF VALENCE BANDS -    BAND     99; K    1; EIG -2.4054839E-01 AU
 BOTTOM OF VIRTUAL BANDS - BAND    100; K   17; EIG -8.5926106E-02 AU
 INDIRECT ENERGY BAND GAP:   4.2075 eV
 BOTTOM OF VIRTUAL BANDS - BAND    100; K    1; EIG -7.3954508E-02 AU
 TTTTTTTTTTTTTTTTTTTTTTTTTTTTTT PDIG        TELAPSE       75.25 TCPU     2055.17
 CHARGE NORMALIZATION FACTOR   1.00000000
 TOTAL ATOMIC CHARGES:
   4.5112577   4.5103889   4.5101324   4.5100058   4.5100332   4.5105680
   0.8781677   0.8782780   0.8785859   0.8786705   0.8779684   0.8781110
   0.8780046   0.8780135   0.8785707   0.8787169   0.8781367   0.8781892
   5.9190935   6.1616300   6.1617431   6.1635168   6.1638217   5.9198718
   5.9195186   6.1625200   6.1630335   6.1626992   6.1629898   5.9203084
   5.9193724   6.1635248   6.1639257   6.1615571   6.1617992   5.9197190
   8.4876475   8.4878352   8.4881182   8.4877814   8.4882085   8.4879653
 TTTTTTTTTTTTTTTTTTTTTTTTTTTTTT MOQGAD      TELAPSE       75.29 TCPU     2055.22
 TTTTTTTTTTTTTTTTTTTTTTTTTTTTTT SHELLXN     TELAPSE       81.80 TCPU     2262.52
 TTTTTTTTTTTTTTTTTTTTTTTTTTTTTT MONMO3      TELAPSE       81.95 TCPU     2267.14
 NUMERICALLY INTEGRATED DENSITY    197.9999915377
 TTTTTTTTTTTTTTTTTTTTTTTTTTTTTT NUMDFT      TELAPSE       82.48 TCPU     2284.12
 CYC   8 ETOT(AU) -1.289105158351E+03 DETOT -5.36E-07 tst  1.28E-08 PX  1.43E-04
 TTTTTTTTTTTTTTTTTTTTTTTTTTTTTT DIIS        TELAPSE       82.57 TCPU     2287.03
 DIIS TEST: 0.81895E-07 AT SCF   CYCLE   8 - DIIS ACTIVE - HISTORY:     8 CYCLES
 TTTTTTTTTTTTTTTTTTTTTTTTTTTTTT FDIK        TELAPSE       83.08 TCPU     2303.43
 INSULATING STATE
 TOP OF VALENCE BANDS -    BAND     99; K    1; EIG -2.4055623E-01 AU
 BOTTOM OF VIRTUAL BANDS - BAND    100; K   17; EIG -8.5917937E-02 AU
 INDIRECT ENERGY BAND GAP:   4.2079 eV
 BOTTOM OF VIRTUAL BANDS - BAND    100; K    1; EIG -7.3945385E-02 AU
 TTTTTTTTTTTTTTTTTTTTTTTTTTTTTT PDIG        TELAPSE       83.36 TCPU     2309.56
 CHARGE NORMALIZATION FACTOR   1.00000000
 TOTAL ATOMIC CHARGES:
   4.5112660   4.5103606   4.5101023   4.5099693   4.5099998   4.5105781
   0.8781429   0.8782710   0.8785724   0.8786549   0.8779579   0.8780924
   0.8779865   0.8780027   0.8785620   0.8786969   0.8781175   0.8781769
   5.9190736   6.1617438   6.1617236   6.1635856   6.1639289   5.9197453
   5.9195022   6.1625796   6.1631002   6.1627966   6.1630170   5.9202224
   5.9192957   6.1635704   6.1640564   6.1616408   6.1618080   5.9196495
   8.4875854   8.4877769   8.4881918   8.4876966   8.4883161   8.4878837
 TTTTTTTTTTTTTTTTTTTTTTTTTTTTTT MOQGAD      TELAPSE       83.41 TCPU     2309.61
 TTTTTTTTTTTTTTTTTTTTTTTTTTTTTT SHELLXN     TELAPSE       89.89 TCPU     2516.30
 +++ ENERGIES IN A.U. +++
 ::: EXT EL-POLE                                  -1.1550500083373E+03
 ::: EXT EL-SPHEROPOLE                             1.3293164496891E+01
 ::: BIELET ZONE E-E                               2.0592168248937E+03
 ::: TOTAL E-E                                     9.1745998105325E+02
 ::: TOTAL E-N + N-E                              -3.6662230536351E+03
 ::: TOTAL N-N                                     3.1343713417786E+02
 ::: KINETIC ENERGY                                1.2799363826966E+03
 ::: PSEUDO TOTAL   ENERGY                        -1.1553895557074E+03
 ::: VIRIAL COEFFICIENT                            1.0511417486362E+00
 TTTTTTTTTTTTTTTTTTTTTTTTTTTTTT MONMO3      TELAPSE       90.04 TCPU     2520.93
 NUMERICALLY INTEGRATED DENSITY    197.9999915378
 EXCHANGE ENERGY: -0.126026433836E+03  CORRELATION ENERGY: -0.768916889376E+01
 TTTTTTTTTTTTTTTTTTTTTTTTTTTTTT NUMDFT      TELAPSE       90.58 TCPU     2538.35
 CYC   9 ETOT(AU) -1.289105158437E+03 DETOT -8.61E-08 tst  4.04E-10 PX  1.43E-04

 == SCF ENDED - CONVERGENCE ON ENERGY      E(AU) -1.2891051584369E+03 CYCLES   9


 ENERGY EXPRESSION=HARTREE+FOCK EXCH*0.00000+(HSESOL     EXCH)*1.00000+PBESOL     CORR


 TOTAL ENERGY(DFT)(AU)(  9) -1.2891051584369E+03 DE-8.6E-08 tester 4.0E-10
 TTTTTTTTTTTTTTTTTTTTTTTTTTTTTT EDFT        TELAPSE       90.59 TCPU     2538.36
 
 INFORMATION **** DFTD3 ENERGY **** CALCULATE DFTD3 ENERGY

           DFT-D V3(BJ)
 DF                                         hsesol3c  
 parameters
 s6       :    1.0000
 s8       :    0.0000
 a1       :    0.5196
 a2       :    4.9385
 k1 k3    :   16.0000   -4.0000
 Cutoff   :   50.2022
 CN-Cutoff:   21.1671
 ABC-Cutoff:   21.1671
 
 Edisp /kcal,au:   -23.9508 -0.03816805

 E6    /kcal :   -25.4606
 E8    /kcal :     0.0000
 E6(ABC) "   :   1.509775
 
 INFORMATION **** DFTD3 ENERGY **** NORMAL TERMINATION OF DFTD3 MODULE

 GCP ENERGY CALCULATION
  level        hsesol3c            basis:hsesol3c
  Nbf            474
  Atoms           42

  Parameters: 
  sigma     1.0000
  eta       1.4281
  alpha     0.2936
  beta      1.9467

  dmp_scal      4.0000
  dmp_exp       6.0000
 cutoffs: 
   distance [bohr] 60.0
   noise    [a.u.] 2.2E-16
 SR-damping   T
 ** gCP correction **
  Egcp:        0.0829286776 / (a.u.) ||      52.0385 / (kcal/mol)
 INFORMATION **** GCP **** NORMAL TERMINATION OF GCP MODULE

 *******************************************************************************

 DFT-D3-GCP DISPERSION AND COUNTERPOISE CORRECTION

 D3 DISPERSION ENERGY (AU)      -3.8168051330600E-02
 GCP ENERGY (AU)                 8.2928677608213E-02
 TOTAL ENERGY + DISP + GCP (AU) -1.2890603978106E+03

 *******************************************************************************

 EIGENVECTORS IN FORTRAN UNIT 10
 TTTTTTTTTTTTTTTTTTTTTTTTTTTTTT END         TELAPSE       91.61 TCPU     2545.34
 EEEEEEEEEE TERMINATION  DATE 19 02 2026 TIME 19:16:51.2
