 Default number of threads is:           32

         
 *******************************************************************************
 *                                                                             *
 *                               CRYSTAL23                                     *
 *                      public : 1.0.1 - October 2022                          *
 *                       HTTP://WWW.CRYSTAL.UNITO.IT                           *
 *                                                                             *
 *                              MAIN AUTHORS                                   *
 *                                                                             *
 *  R. DOVESI(1,11), V.R. SAUNDERS(2), C. ROETTI(1,11), R. ORLANDO(1,11),      *
 *  C.M. ZICOVICH-WILSON(1,3), F. PASCALE(4), B. CIVALLERI(1,11),              *
 *  K. DOLL(5), N.M. HARRISON(6), I.J. BUSH(7), Ph. D'ARCO(8),                 *
 *  M. LLUNELL(9), M. CAUSA'(10), Y. NOEL(8), L. MASCHIO(1,11), A. ERBA(1,11)  *
 *  M. RE'RAT(14), S. CASASSA(1,11), B.G. SEARLE(2), J.K. DESMARAIS(1)         *
 *                                                                             *
 *        CONTRIBUTIONS TO THE CODE HAVE ALSO BEEN GIVEN BY                    *
 *                                                                             *
 *  M. FERRABONE(1,11), M. DE LA PIERRE(1,11), M. FERRERO(1,11),               *
 *  J. BAIMA(1,11), E. ALBANESE(1,11), M.F. PEINTINGER(12), R. BAST(13),       *
 *  B. KIRTMAN(15), V. LACIVITA(1,11), R. DEMICHELIS(1,16)                     *
 *  G. BRANDEBURG(17), S. SALUSTRO(1,11), G. SANSONE(1,11)                     *
 *  M.T. RUGGIERO(18), L.E. DAGA(1), L. DONA'(1), A. COSSARD(1)                *
 *                                                                             *
 * (1) THEORETICAL CHEMISTRY GROUP - UNIVERSITA' DI TORINO - TORINO (ITALY)    *
 * (2) SCIENTIFIC COMPUTING DEPARTMENT - STFC DARESBURY (UK)                   *
 * (3) UNIVERSIDAD AUTONOMA DEL ESTADO DE MORELOS - CUERNAVACA (MEXICO)        *
 * (4) UNIVERSITE' DE LORRAINE - NANCY (FRANCE)                                *
 * (5) UNIVERSITAET STUTTGART- STUTTGART (GERMANY)                             *
 * (6) IMPERIAL COLLEGE - LONDON (UK)                                          *
 * (7) SCIENTIFIC COMPUTING DEPARTMENT - STFC RAL (UK)                         *
 * (8) UPMC - SORBONNE UNIVERSITES - PARIS (FRANCE)                            *
 * (9) UNIVERSIDAD DE BARCELONA - BARCELONA (SPAIN)                            *
 *(10) UNIVERSITA' DI NAPOLI "FEDERICO II" - NAPOLI (ITALY)                    *
 *(11) NIS - NANOSTRUCTURED INTERFACES AND SURFACES - TORINO (ITALY)           *
 *(12) MPI FUER CHEMISCHE ENERGIEKONVERSION - MUELHEIM AN DER RUHR (GERMANY)   *
 *(13) UNIVERSITY OF TROMSO - TROMSO (NORWAY)                                  *
 *(14) UNIVERSITE' DE PAU ET DES PAYS DE L'ADOUR - PAU (FRANCE)                *
 *(15) UNIVERSITY OF CALIFORNIA SANTA BARBARA - SANTA BARBARA (USA)            *
 *(16) CURTIN UNIVERSITY - PERTH (AUSTRALIA)                                   *
 *(17) UNIVERSITY COLLEGE LONDON - LONDON (UK)                                 *
 *(18) UNIVERSITY OF VERMONT - BURLINGTON (USA)                                *
 *                                                                             *
 *******************************************************************************
 EEEEEEEEEE STARTING  DATE 02 12 2025 TIME 07:58:42.6
 COF-5_z34_inc_L000                                                              

 CRYSTAL CALCULATION
 (INPUT ACCORDING TO THE INTERNATIONAL TABLES FOR X-RAY CRYSTALLOGRAPHY)
 CRYSTAL FAMILY                       :  TRICLINIC   
 CRYSTAL CLASS  (GROTH - 1921)        :  TRICLINIC PEDIAL                     

 SPACE GROUP (NONCENTROSYMMETRIC)     :  P 1             

 LATTICE PARAMETERS  (ANGSTROMS AND DEGREES) - CONVENTIONAL CELL
        A           B           C        ALPHA        BETA       GAMMA
    15.02070    15.04439     3.40000    90.00330    89.99929   120.05310


 NUMBER OF IRREDUCIBLE ATOMS IN THE CONVENTIONAL CELL:   42

 INPUT COORDINATES

 ATOM AT. N.              COORDINATES
   1   5     6.156164300000E-01  2.280750700000E-01  5.006701200000E-01
   2   5     7.743958300000E-01  3.871017900000E-01  5.006801100000E-01
   3   5     6.151641200000E-01  3.867891800000E-01  4.992500900000E-01
   4   5     2.287899500000E-01  6.143590000000E-01  5.054652800000E-01
   5   5     3.873645400000E-01  6.138581800000E-01  5.095093100000E-01
   6   5     3.876370900000E-01  7.731966900000E-01  5.035434700000E-01
   7   1     9.044214300000E-01  3.095486000000E-01  5.045686500000E-01
   8   1     9.886935000000E-02  6.914399800000E-01  4.929779300000E-01
   9   1     9.044870700000E-01  5.941405000000E-01  4.928396300000E-01
  10   1     9.886081000000E-02  4.067623600000E-01  5.041372100000E-01
  11   1     5.944002700000E-01  9.032291200000E-01  5.042592800000E-01
  12   1     4.082606200000E-01  9.863600000000E-02  4.946102100000E-01
  13   1     3.099203300000E-01  9.049241600000E-01  4.959171000000E-01
  14   1     6.925018400000E-01  9.691914000000E-02  5.023978900000E-01
  15   1     5.939977500000E-01  6.905649700000E-01  4.978146400000E-01
  16   1     4.066874900000E-01  3.089518100000E-01  5.060980500000E-01
  17   1     3.093234400000E-01  4.048732800000E-01  5.057331600000E-01
  18   1     6.917891600000E-01  5.947057300000E-01  4.987481200000E-01
  19   6     8.936883400000E-01  4.465308800000E-01  5.004301100000E-01
  20   6     9.482125500000E-01  3.933544000000E-01  5.021962600000E-01
  21   6     5.522963000000E-02  6.076907100000E-01  4.958031500000E-01
  22   6     9.482511500000E-01  5.541658000000E-01  4.961403200000E-01
  23   6     5.524319000000E-02  4.469193500000E-01  5.015525300000E-01
  24   6     1.097444900000E-01  5.545914500000E-01  4.993691900000E-01
  25   6     4.466001600000E-01  8.925727600000E-01  5.019116200000E-01
  26   6     5.544734200000E-01  9.470548000000E-01  5.023018100000E-01
  27   6     4.480139400000E-01  5.459988000000E-02  4.970252700000E-01
  28   6     3.938956300000E-01  9.476446600000E-01  4.981439800000E-01
  29   6     6.085567200000E-01  5.392133000000E-02  5.008643600000E-01
  30   6     5.558772400000E-01  1.089145700000E-01  4.992400500000E-01
  31   6     4.462008000000E-01  5.535192700000E-01  5.000112900000E-01
  32   6     5.540499900000E-01  6.067742600000E-01  4.994597900000E-01
  33   6     4.472124200000E-01  3.927448200000E-01  5.039834700000E-01
  34   6     3.933109600000E-01  4.457904200000E-01  5.033755100000E-01
  35   6     6.078636300000E-01  5.537097300000E-01  5.003981800000E-01
  36   6     5.551090200000E-01  4.459864200000E-01  5.016400700000E-01
  37   8     5.624997000000E-01  2.808905100000E-01  4.996399700000E-01
  38   8     7.216591500000E-01  2.811877200000E-01  5.026301100000E-01
  39   8     7.212675800000E-01  4.399315100000E-01  4.981102500000E-01
  40   8     2.816285800000E-01  7.202206700000E-01  5.027767900000E-01
  41   8     2.813888000000E-01  5.611590400000E-01  5.102647800000E-01
  42   8     4.404370800000E-01  7.199310200000E-01  5.052486000000E-01

 *******************************************************************************

 << INFORMATION >>: FROM NOW ON, ALL COORDINATES REFER TO THE PRIMITIVE CELL

 *******************************************************************************

 LATTICE PARAMETERS  (ANGSTROMS AND DEGREES) - PRIMITIVE CELL
       A          B          C        ALPHA      BETA     GAMMA        VOLUME
   15.02070   15.04439    3.40000    90.00330  89.99929 120.05310    665.030557

 COORDINATES OF THE EQUIVALENT ATOMS (FRACTIONAL UNITS)

 N. ATOM EQUIV AT. N.          X                  Y                  Z

   1   1   1    5 B    -3.84383570000E-01  2.28075070000E-01 -4.99329880000E-01

   2   2   1    5 B    -2.25604170000E-01  3.87101790000E-01 -4.99319890000E-01

   3   3   1    5 B    -3.84835880000E-01  3.86789180000E-01  4.99250090000E-01

   4   4   1    5 B     2.28789950000E-01 -3.85641000000E-01 -4.94534720000E-01

   5   5   1    5 B     3.87364540000E-01 -3.86141820000E-01 -4.90490690000E-01

   6   6   1    5 B     3.87637090000E-01 -2.26803310000E-01 -4.96456530000E-01

   7   7   1    1 H    -9.55785700000E-02  3.09548600000E-01 -4.95431350000E-01

   8   8   1    1 H     9.88693500000E-02 -3.08560020000E-01  4.92977930000E-01

   9   9   1    1 H    -9.55129300000E-02 -4.05859500000E-01  4.92839630000E-01

  10  10   1    1 H     9.88608100000E-02  4.06762360000E-01 -4.95862790000E-01

  11  11   1    1 H    -4.05599730000E-01 -9.67708800000E-02 -4.95740720000E-01

  12  12   1    1 H     4.08260620000E-01  9.86360000000E-02  4.94610210000E-01

  13  13   1    1 H     3.09920330000E-01 -9.50758400000E-02  4.95917100000E-01

  14  14   1    1 H    -3.07498160000E-01  9.69191400000E-02 -4.97602110000E-01

  15  15   1    1 H    -4.06002250000E-01 -3.09435030000E-01  4.97814640000E-01

  16  16   1    1 H     4.06687490000E-01  3.08951810000E-01 -4.93901950000E-01

  17  17   1    1 H     3.09323440000E-01  4.04873280000E-01 -4.94266840000E-01

  18  18   1    1 H    -3.08210840000E-01 -4.05294270000E-01  4.98748120000E-01

  19  19   1    6 C    -1.06311660000E-01  4.46530880000E-01 -4.99569890000E-01

  20  20   1    6 C    -5.17874500000E-02  3.93354400000E-01 -4.97803740000E-01

  21  21   1    6 C     5.52296300000E-02 -3.92309290000E-01  4.95803150000E-01

  22  22   1    6 C    -5.17488500000E-02 -4.45834200000E-01  4.96140320000E-01

  23  23   1    6 C     5.52431900000E-02  4.46919350000E-01 -4.98447470000E-01

  24  24   1    6 C     1.09744490000E-01 -4.45408550000E-01  4.99369190000E-01

  25  25   1    6 C     4.46600160000E-01 -1.07427240000E-01 -4.98088380000E-01

  26  26   1    6 C    -4.45526580000E-01 -5.29452000000E-02 -4.97698190000E-01

  27  27   1    6 C     4.48013940000E-01  5.45998800000E-02  4.97025270000E-01

  28  28   1    6 C     3.93895630000E-01 -5.23553400000E-02  4.98143980000E-01

  29  29   1    6 C    -3.91443280000E-01  5.39213300000E-02 -4.99135640000E-01

  30  30   1    6 C    -4.44122760000E-01  1.08914570000E-01  4.99240050000E-01

  31  31   1    6 C     4.46200800000E-01 -4.46480730000E-01 -4.99988710000E-01

  32  32   1    6 C    -4.45950010000E-01 -3.93225740000E-01  4.99459790000E-01

  33  33   1    6 C     4.47212420000E-01  3.92744820000E-01 -4.96016530000E-01

  34  34   1    6 C     3.93310960000E-01  4.45790420000E-01 -4.96624490000E-01

  35  35   1    6 C    -3.92136370000E-01 -4.46290270000E-01 -4.99601820000E-01

  36  36   1    6 C    -4.44890980000E-01  4.45986420000E-01 -4.98359930000E-01

  37  37   1    8 O    -4.37500300000E-01  2.80890510000E-01  4.99639970000E-01

  38  38   1    8 O    -2.78340850000E-01  2.81187720000E-01 -4.97369890000E-01

  39  39   1    8 O    -2.78732420000E-01  4.39931510000E-01  4.98110250000E-01

  40  40   1    8 O     2.81628580000E-01 -2.79779330000E-01 -4.97223210000E-01

  41  41   1    8 O     2.81388800000E-01 -4.38840960000E-01 -4.89735220000E-01

  42  42   1    8 O     4.40437080000E-01 -2.80068980000E-01 -4.94751400000E-01

 NUMBER OF SYMMETRY OPERATORS         :    1
 *******************************************************************************
 * GEOMETRY EDITING - INPUT COORDINATES ARE GIVEN IN ANGSTROM         
 *******************************************************************************

 GCALCO - MAX INDICES DIRECT LATTICE VECTOR     9     9    38
 NO.OF VECTORS CREATED 6999 STARS 3500 RMAX   196.18095 BOHR

 GEOMETRY FOR WAVE FUNCTION - DIMENSIONALITY OF THE SYSTEM    3
 (NON PERIODIC DIRECTION: LATTICE PARAMETER FORMALLY SET TO 500)
 *******************************************************************************
 LATTICE PARAMETERS (ANGSTROMS AND DEGREES) - BOHR = 0.5291772083 ANGSTROM
 PRIMITIVE CELL - CENTRING CODE 1/0 VOLUME=   665.030557 - DENSITY  0.974 g/cm^3
         A              B              C           ALPHA      BETA       GAMMA 
    15.02070100    15.04438700     3.40000000    90.003305  89.999286 120.053104
 *******************************************************************************
 ATOMS IN THE ASYMMETRIC UNIT   42 - ATOMS IN THE UNIT CELL:   42
     ATOM                 X/A                 Y/B                 Z/C    
 *******************************************************************************
      1 T   5 B    -3.843835700000E-01  2.280750700000E-01 -4.993298800000E-01
      2 T   5 B    -2.256041700000E-01  3.871017900000E-01 -4.993198900000E-01
      3 T   5 B    -3.848358800000E-01  3.867891800000E-01  4.992500900000E-01
      4 T   5 B     2.287899500000E-01 -3.856410000000E-01 -4.945347200000E-01
      5 T   5 B     3.873645400000E-01 -3.861418200000E-01 -4.904906900000E-01
      6 T   5 B     3.876370900000E-01 -2.268033100000E-01 -4.964565300000E-01
      7 T   1 H    -9.557857000000E-02  3.095486000000E-01 -4.954313500000E-01
      8 T   1 H     9.886935000000E-02 -3.085600200000E-01  4.929779300000E-01
      9 T   1 H    -9.551293000000E-02 -4.058595000000E-01  4.928396300000E-01
     10 T   1 H     9.886081000000E-02  4.067623600000E-01 -4.958627900000E-01
     11 T   1 H    -4.055997300000E-01 -9.677088000000E-02 -4.957407200000E-01
     12 T   1 H     4.082606200000E-01  9.863600000000E-02  4.946102100000E-01
     13 T   1 H     3.099203300000E-01 -9.507584000000E-02  4.959171000000E-01
     14 T   1 H    -3.074981600000E-01  9.691914000000E-02 -4.976021100000E-01
     15 T   1 H    -4.060022500000E-01 -3.094350300000E-01  4.978146400000E-01
     16 T   1 H     4.066874900000E-01  3.089518100000E-01 -4.939019500000E-01
     17 T   1 H     3.093234400000E-01  4.048732800000E-01 -4.942668400000E-01
     18 T   1 H    -3.082108400000E-01 -4.052942700000E-01  4.987481200000E-01
     19 T   6 C    -1.063116600000E-01  4.465308800000E-01 -4.995698900000E-01
     20 T   6 C    -5.178745000000E-02  3.933544000000E-01 -4.978037400000E-01
     21 T   6 C     5.522963000000E-02 -3.923092900000E-01  4.958031500000E-01
     22 T   6 C    -5.174885000000E-02 -4.458342000000E-01  4.961403200000E-01
     23 T   6 C     5.524319000000E-02  4.469193500000E-01 -4.984474700000E-01
     24 T   6 C     1.097444900000E-01 -4.454085500000E-01  4.993691900000E-01
     25 T   6 C     4.466001600000E-01 -1.074272400000E-01 -4.980883800000E-01
     26 T   6 C    -4.455265800000E-01 -5.294520000000E-02 -4.976981900000E-01
     27 T   6 C     4.480139400000E-01  5.459988000000E-02  4.970252700000E-01
     28 T   6 C     3.938956300000E-01 -5.235534000000E-02  4.981439800000E-01
     29 T   6 C    -3.914432800000E-01  5.392133000000E-02 -4.991356400000E-01
     30 T   6 C    -4.441227600000E-01  1.089145700000E-01  4.992400500000E-01
     31 T   6 C     4.462008000000E-01 -4.464807300000E-01 -4.999887100000E-01
     32 T   6 C    -4.459500100000E-01 -3.932257400000E-01  4.994597900000E-01
     33 T   6 C     4.472124200000E-01  3.927448200000E-01 -4.960165300000E-01
     34 T   6 C     3.933109600000E-01  4.457904200000E-01 -4.966244900000E-01
     35 T   6 C    -3.921363700000E-01 -4.462902700000E-01 -4.996018200000E-01
     36 T   6 C    -4.448909800000E-01  4.459864200000E-01 -4.983599300000E-01
     37 T   8 O    -4.375003000000E-01  2.808905100000E-01  4.996399700000E-01
     38 T   8 O    -2.783408500000E-01  2.811877200000E-01 -4.973698900000E-01
     39 T   8 O    -2.787324200000E-01  4.399315100000E-01  4.981102500000E-01
     40 T   8 O     2.816285800000E-01 -2.797793300000E-01 -4.972232100000E-01
     41 T   8 O     2.813888000000E-01 -4.388409600000E-01 -4.897352200000E-01
     42 T   8 O     4.404370800000E-01 -2.800689800000E-01 -4.947514000000E-01

 T = ATOM BELONGING TO THE ASYMMETRIC UNIT

 ****    1 SYMMOPS - TRANSLATORS IN FRACTIONAL UNITS
 **** MATRICES AND TRANSLATORS IN THE CRYSTALLOGRAPHIC REFERENCE FRAME
   V INV                    ROTATION MATRICES                   TRANSLATORS
   1   1  1.00  0.00  0.00  0.00  1.00  0.00 -0.00  0.00  1.00  0.00  0.00  0.00

 DIRECT LATTICE VECTORS CARTESIAN COMPONENTS (ANGSTROM)
          X                    Y                    Z
   0.130013421718E+02  -0.752240388864E+01   0.000000000000E+00
   0.000000000000E+00   0.150443870000E+02   0.000000000000E+00
  -0.645235292826E-04  -0.196122647938E-03   0.339999999373E+01


 CARTESIAN COORDINATES - PRIMITIVE CELL
 *******************************************************************************
 *      ATOM          X(ANGSTROM)         Y(ANGSTROM)         Z(ANGSTROM)
 *******************************************************************************
    1     5 B    -4.997470100252E+00  6.322836009728E+00 -1.697721588870E+00
    2     5 B    -2.933124791667E+00  7.520892750794E+00 -1.697687622870E+00
    3     5 B    -5.003415169233E+00 -6.330587882716E+00  1.697450302870E+00
    4     5 B     2.974608334539E+00  7.521701132830E+00 -1.681418044900E+00
    5     5 B    -7.965051593832E+00 -1.200679414007E+00 -1.667668342925E+00
    6     5 B    -7.961507693086E+00  1.194421733292E+00 -1.687952198888E+00
    7     1 H    -1.242617725880E+00  5.376046705655E+00 -1.684466586894E+00
    8     1 H     1.285402440975E+00 -5.385928220652E+00  1.676124958910E+00
    9     1 H    -1.241828084511E+00 -5.387517206592E+00  1.675654738911E+00
   10     1 H     1.285355213006E+00  5.375916669218E+00 -1.685933482892E+00
   11     1 H    -5.273308887568E+00  1.595323643116E+00 -1.685518444892E+00
   12     1 H     5.307904101884E+00 -1.587280123600E+00  1.681674710899E+00
   13     1 H     4.029348257998E+00 -3.761800887446E+00  1.686118136891E+00
   14     1 H    -3.997856688307E+00  3.771311995445E+00 -1.691847170881E+00
   15     1 H    -5.278606295518E+00 -1.601245071205E+00  1.692569772879E+00
   16     1 H     5.287515082767E+00  1.588819903111E+00 -1.679266626904E+00
   17     1 H     4.021651777031E+00  3.764311399297E+00 -1.680507252902E+00
   18     1 H    -4.007186772879E+00 -3.779015241227E+00  1.695743604873E+00
   19     6 C    -1.382162034497E+00  7.517600587732E+00 -1.698537622868E+00
   20     6 C    -6.732742375994E-01  6.307439567603E+00 -1.692532712879E+00
   21     6 C     7.180273266814E-01 -6.317609604162E+00  1.685730706892E+00
   22     6 C    -6.728365185703E-01 -6.318123796516E+00  1.686877084890E+00
   23     6 C     7.182677774402E-01  6.308163828749E+00 -1.694721394875E+00
   24     6 C     1.426793444894E+00  7.517848084750E+00  1.697855242870E+00
   25     6 C    -7.194908539225E+00  2.546817821900E+00 -1.693500488878E+00
   26     6 C    -5.792411399956E+00  2.555000409180E+00 -1.692173842880E+00
   27     6 C     5.824750461840E+00 -2.548817557460E+00  1.689885914884E+00
   28     6 C     5.121139723589E+00 -3.750793712624E+00  1.693689528877E+00
   29     6 C    -5.089255818128E+00  3.755905699533E+00 -1.697061172871E+00
   30     6 C    -5.774224181763E+00  4.979325805596E+00  1.697416166870E+00
   31     6 C    -7.200100632618E+00 -2.551029575446E+00 -1.699961610866E+00
   32     6 C    -5.797980898424E+00 -2.561322076934E+00  1.698163282869E+00
   33     6 C     5.814393700624E+00  2.544589897144E+00 -1.686456198891E+00
   34     6 C     5.113602414834E+00  3.748097103733E+00 -1.688523262887E+00
   35     6 C    -5.098266888295E+00 -3.764257398417E+00 -1.698646184868E+00
   36     6 C    -5.784147704174E+00 -4.988047323133E+00 -1.694423758876E+00
   37     8 O     7.313218832686E+00 -5.622384286562E-03  1.698775894868E+00
   38     8 O    -3.618772539172E+00  6.324186717235E+00 -1.691057622882E+00
   39     8 O    -3.623927706618E+00 -6.329246960668E+00  1.693574846877E+00
   40     8 O     3.661581616527E+00 -6.327534923733E+00 -1.690558910883E+00
   41     8 O     3.658463671550E+00  6.325669611136E+00 -1.665099744930E+00
   42     8 O    -7.275037066450E+00 -4.110804512707E-03 -1.682154756899E+00

 *******************************************************************************
 STARTING BASIS SET HANDLING 
 *******************************************************************************

 Loading internal basis set: SOLDEF2MSVP         

 Please cite in your publication:
 L. Dona', J. G. Brandenburg and B. Civalleri, J. Chem. Phys., 151, 121101 (2019
 )                                                                              
                                                                                
                    

 *******************************************************************************
 LOCAL ATOMIC FUNCTIONS BASIS SET
 *******************************************************************************
   ATOM   X(AU)   Y(AU)   Z(AU)  N. TYPE  EXPONENT  S COEF   P COEF   D/F/G COEF
 *******************************************************************************
   1 B   -9.444  11.948  -3.208
                                  1 S  
                                         2.410E+03 1.755E-03 0.000E+00 0.000E+00
                                         3.619E+02 1.344E-02 0.000E+00 0.000E+00
                                         8.231E+01 6.637E-02 0.000E+00 0.000E+00
                                         2.311E+01 2.303E-01 0.000E+00 0.000E+00
                                         7.252E+00 5.150E-01 0.000E+00 0.000E+00
                                  2 S  
                                         2.367E+00 1.000E+00 0.000E+00 0.000E+00
                                  3 S  
                                         5.533E-01 1.000E+00 0.000E+00 0.000E+00
                                  4 S  
                                         1.716E-01 1.000E+00 0.000E+00 0.000E+00
                           5-     7 P  
                                         6.002E+00 0.000E+00-3.555E-02 0.000E+00
                                         1.240E+00 0.000E+00-1.983E-01 0.000E+00
                                         3.367E-01 0.000E+00-5.048E-01 0.000E+00
                           8-    10 P  
                                         1.256E-01 0.000E+00 1.000E+00 0.000E+00
                          11-    15 D  
                                         8.880E-01 0.000E+00 0.000E+00 1.000E+00
   2 B   -5.543  14.212  -3.208
   3 B   -9.455 -11.963   3.208
   4 B    5.621  14.214  -3.177
   5 B  -15.052  -2.269  -3.151
   6 B  -15.045   2.257  -3.190
   7 H   -2.348  10.159  -3.183
                                 91 S  
                                         1.874E+01 1.968E-02 0.000E+00 0.000E+00
                                         2.826E+00 1.380E-01 0.000E+00 0.000E+00
                                         6.401E-01 4.783E-01 0.000E+00 0.000E+00
                                 92 S  
                                         1.756E-01 1.000E+00 0.000E+00 0.000E+00
   8 H    2.429 -10.178   3.167
   9 H   -2.347 -10.181   3.167
  10 H    2.429  10.159  -3.186
  11 H   -9.965   3.015  -3.185
  12 H   10.030  -3.000   3.178
  13 H    7.614  -7.109   3.186
  14 H   -7.555   7.127  -3.197
  15 H   -9.975  -3.026   3.198
  16 H    9.992   3.002  -3.173
  17 H    7.600   7.114  -3.176
  18 H   -7.572  -7.141   3.204
  19 C   -2.612  14.206  -3.210
                                115 S  
                                         3.624E+03 1.634E-03 0.000E+00 0.000E+00
                                         5.440E+02 1.252E-02 0.000E+00 0.000E+00
                                         1.237E+02 6.211E-02 0.000E+00 0.000E+00
                                         3.476E+01 2.182E-01 0.000E+00 0.000E+00
                                         1.093E+01 4.980E-01 0.000E+00 0.000E+00
                                116 S  
                                         3.574E+00 1.000E+00 0.000E+00 0.000E+00
                                117 S  
                                         7.742E-01 1.000E+00 0.000E+00 0.000E+00
                                118 S  
                                         2.330E-01 1.000E+00 0.000E+00 0.000E+00
                         119-   121 P  
                                         9.443E+00 0.000E+00 3.790E-02 0.000E+00
                                         2.002E+00 0.000E+00 2.082E-01 0.000E+00
                                         5.463E-01 0.000E+00 5.047E-01 0.000E+00
                         122-   124 P  
                                         1.820E-01 0.000E+00 1.000E+00 0.000E+00
                         125-   129 D  
                                         8.880E-01 0.000E+00 0.000E+00 1.000E+00
  20 C   -1.272  11.919  -3.198
  21 C    1.357 -11.939   3.186
  22 C   -1.271 -11.940   3.188
  23 C    1.357  11.921  -3.203
  24 C    2.696  14.207   3.208
  25 C  -13.596   4.813  -3.200
  26 C  -10.946   4.828  -3.198
  27 C   11.007  -4.817   3.193
  28 C    9.678  -7.088   3.201
  29 C   -9.617   7.098  -3.207
  30 C  -10.912   9.410   3.208
  31 C  -13.606  -4.821  -3.212
  32 C  -10.957  -4.840   3.209
  33 C   10.988   4.809  -3.187
  34 C    9.663   7.083  -3.191
  35 C   -9.634  -7.113  -3.210
  36 C  -10.930  -9.426  -3.202
  37 O   13.820  -0.011   3.210
                                385 S  
                                         6.773E+03 1.727E-03 0.000E+00 0.000E+00
                                         1.017E+03 1.325E-02 0.000E+00 0.000E+00
                                         2.313E+02 6.603E-02 0.000E+00 0.000E+00
                                         6.501E+01 2.353E-01 0.000E+00 0.000E+00
                                         2.050E+01 5.498E-01 0.000E+00 0.000E+00
                                386 S  
                                         6.716E+00 1.000E+00 0.000E+00 0.000E+00
                                387 S  
                                         1.147E+00 1.000E+00 0.000E+00 0.000E+00
                                388 S  
                                         3.342E-01 1.000E+00 0.000E+00 0.000E+00
                         389-   391 P  
                                         1.769E+01 0.000E+00 4.359E-02 0.000E+00
                                         3.854E+00 0.000E+00 2.318E-01 0.000E+00
                                         1.047E+00 0.000E+00 5.146E-01 0.000E+00
                         392-   394 P  
                                         2.759E-01 0.000E+00 1.000E+00 0.000E+00
                         395-   399 D  
                                         8.000E-01 0.000E+00 0.000E+00 1.000E+00
  38 O   -6.838  11.951  -3.196
  39 O   -6.848 -11.961   3.200
  40 O    6.919 -11.957  -3.195
  41 O    6.913  11.954  -3.147
  42 O  -13.748  -0.008  -3.179

 *******************************************************************************
 FINISHED BASIS SET HANDLING 
 *******************************************************************************

 INFORMATION **** SET_MPP **** PCRYSTAL CALCULATION
 INFORMATION **** READM2 **** NEW DEFAULT: FOCK/KS MATRIX MIXING SET TO 30 %
 INFORMATION **** READM2 **** NEW DEFAULT: FULL DIRECT SCF MODE
 INFORMATION **** READM2 **** NEW DEFAULT: COULOMB BIPOLAR BUFFER SET TO 32 Mb
 INFORMATION **** READM2 **** NEW DEFAULT: EXCHANGE BIPOLAR BUFFER SET TO 32 Mb

 *******************************************************************************
 NEW DEFAULT: DFT INTEGRATION GRID INCREASED TO XLGRID
 NEW DEFAULT: DIIS ACCELERATOR ACTIVE
 USE KEYWORD NODIIS TO TURN IT OFF
 *******************************************************************************

 WARNING **** RDDFTP **** HSEsol-HJS ACTIVE
 RANGE SEPARATION - OMEGA:   0.110000000000000     
 WARNING **** RDDFTP **** HSEsol-3c has to be combined with sol-def2-mSVP basis set
 *******************************************************************************
 N. OF ATOMS PER CELL        42  COULOMB OVERLAP TOL         (T1) 10**   -6
 NUMBER OF SHELLS           234  COULOMB PENETRATION TOL     (T2) 10**   -6
 NUMBER OF AO               474  EXCHANGE OVERLAP TOL        (T3) 10**   -6
 N. OF ELECTRONS PER CELL   198  EXCHANGE PSEUDO OVP (F(G))  (T4) 10**   -6
 CORE ELECTRONS PER CELL     60  EXCHANGE PSEUDO OVP (P(G))  (T5) 10**  -12
 N. OF SYMMETRY OPERATORS     1  POLE ORDER IN MONO ZONE                  4
 *******************************************************************************
 TYPE OF CALCULATION :  RESTRICTED CLOSED SHELL
 KOHN-SHAM HAMILTONIAN

 (EXCHANGE)[CORRELATION] FUNCTIONAL:(HSEsol GGA)[PBEsol]

 RANGE-SEPARATED HYBRID FUNCTIONAL 
 OMEGA (SHORT-RANGE)[LONG-RANGE]:(    0.1100)[    0.0000]

 HYBRID EXCHANGE - PERCENTAGE OF FOCK EXCHANGE    25.0000

 CAPPA:IS1  2;IS2  2;IS3  8; K PTS MONK NET  20; SYMMOPS:K SPACE   2;G SPACE   1

 *******************************************************************************
 MAX NUMBER OF SCF CYCLES      50  CONVERGENCE ON DELTAP        10**-16
 WEIGHT OF F(I) IN F(I+1)      30% CONVERGENCE ON ENERGY        10**- 6
 SHRINK. FACT.(MONKH.)    2  2  8  NUMBER OF K POINTS IN THE IBZ     20
 SHRINKING FACTOR(GILAT NET)    8  NUMBER OF K POINTS(GILAT NET)   1028
 *******************************************************************************
 *** K POINTS COORDINATES (OBLIQUE COORDINATES IN UNITS OF IS =  2)
   1-R(  0  0  0)   2-R(  1  0  0)   3-R(  0  1  0)   4-R(  1  1  0)
   5-C(  0  0  1)   6-C(  1  0  1)   7-C(  0  1  1)   8-C(  1  1  1)
   9-C(  0  0  2)  10-C(  1  0  2)  11-C(  0  1  2)  12-C(  1  1  2)
  13-C(  0  0  3)  14-C(  1  0  3)  15-C(  0  1  3)  16-C(  1  1  3)
  17-R(  0  0  4)  18-R(  1  0  4)  19-R(  0  1  4)  20-R(  1  1  4)

 DIRECT LATTICE VECTORS COMPON. (A.U.)     RECIP. LATTICE VECTORS COMPON. (A.U.) 
        X            Y            Z              X            Y            Z
   24.5689761  -14.2152832    0.0000000      0.2557366    0.0000000    0.0000049
    0.0000000   28.4297713    0.0000000      0.1278719    0.2210072    0.0000152
   -0.0001219   -0.0003706    6.4250688      0.0000000    0.0000000    0.9779172

 DISK SPACE FOR EIGENVECTORS (FTN 10)     7189632 REALS

 SYMMETRY ADAPTION OF THE BLOCH FUNCTIONS DISABLED
 TTTTTTTTTTTTTTTTTTTTTTTTTTTTTT gordsh1     TELAPSE        0.04 TCPU        0.04

 MATRIX SIZE: P(G)  399058, F(G)   81963, P(G) IRR  201986, F(G) IRR   82803
 MAX G-VECTOR INDEX FOR 1- AND 2-ELECTRON INTEGRALS 121

 TTTTTTTTTTTTTTTTTTTTTTTTTTTTTT INPUT       TELAPSE        0.29 TCPU        0.29

 NEIGHBORS OF THE NON-EQUIVALENT ATOMS

 N = NUMBER OF NEIGHBORS AT DISTANCE R
    ATOM  N     R/ANG      R/AU   NEIGHBORS (ATOM LABELS AND CELL INDICES)
   1 B    1     1.3787     2.6054   38 O    0 0 0
   1 B    1     1.3795     2.6068   37 O   -1 0-1
   1 B    1     1.5517     2.9323   30 C    0 0-1
   1 B    1     2.3868     4.5104    2 B    0 0 0
   1 B    1     2.3912     4.5187    3 B    0 1-1
   1 B    1     2.5629     4.8432   27 C   -1 0-1

   2 B    1     1.3792     2.6064   38 O    0 0 0
   2 B    1     1.3798     2.6075   39 O    0 1-1
   2 B    1     1.5510     2.9309   19 C    0 0 0
   2 B    1     2.3868     4.5104    1 B    0 0 0
   2 B    1     2.3894     4.5154    3 B    0 1-1
   2 B    1     2.5618     4.8411   22 C    0 1-1

   3 B    1     1.3790     2.6060   37 O   -1-1 0
   3 B    1     1.3795     2.6069   39 O    0 0 0
   3 B    1     1.5529     2.9346   36 C    0 0 1
   3 B    1     2.3894     4.5154    2 B    0-1 1
   3 B    1     2.3912     4.5187    1 B    0-1 1
   3 B    1     2.5679     4.8526   35 C    0 0 1

   4 B    1     1.3778     2.6037   41 O    0 0 0
   4 B    1     1.3786     2.6051   40 O    0 1 0
   4 B    1     1.5479     2.9251   24 C    0 0-1
   4 B    1     2.3857     4.5084    5 B    1 1 0
   4 B    1     2.3859     4.5087    6 B    1 1 0
   4 B    1     2.5584     4.8348   21 C    0 1-1

   5 B    1     1.3778     2.6037   41 O   -1-1 0
   5 B    1     1.3813     2.6104   42 O    0 0 0
   5 B    1     1.5523     2.9334   31 C    0 0 0
   5 B    1     2.3857     4.5084    4 B   -1-1 0
   5 B    1     2.3952     4.5263    6 B    0 0 0
   5 B    1     2.5590     4.8358   32 C    0 0-1

   6 B    1     1.3783     2.6045   40 O   -1 0 0
   6 B    1     1.3812     2.6101   42 O    0 0 0
   6 B    1     1.5546     2.9377   25 C    0 0 0
   6 B    1     2.3859     4.5087    4 B   -1-1 0
   6 B    1     2.3952     4.5263    5 B    0 0 0
   6 B    1     2.5605     4.8386   26 C    0 0 0

   7 H    1     1.0917     2.0629   20 C    0 0 0
   7 H    1     2.1461     4.0556   19 C    0 0 0
   7 H    1     2.1712     4.1029   23 C    0 0 0
   7 H    1     2.5280     4.7772   10 H    0 0 0
   7 H    1     2.5583     4.8346   38 O    0 0 0
   7 H    1     2.7310     5.1608    2 B    0 0 0

   8 H    1     1.0909     2.0615   21 C    0 0 0
   8 H    1     2.1454     4.0542   24 C    0-1 0
   8 H    1     2.1688     4.0985   22 C    0 0 0
   8 H    1     2.5272     4.7758    9 H    0 0 0
   8 H    1     2.5562     4.8305   40 O    0 0 1
   8 H    1     2.7243     5.1481    4 B    0-1 1

   9 H    1     1.0908     2.0614   22 C    0 0 0
   9 H    1     2.1442     4.0520   19 C    0-1 1
   9 H    1     2.1694     4.0995   21 C    0 0 0
   9 H    1     2.5272     4.7758    8 H    0 0 0
   9 H    1     2.5616     4.8406   39 O    0 0 0
   9 H    1     2.7248     5.1492    2 B    0-1 1

  10 H    1     1.0912     2.0621   23 C    0 0 0
  10 H    1     2.1469     4.0570   24 C    0 0-1
  10 H    1     2.1689     4.0986   20 C    0 0 0
  10 H    1     2.5280     4.7772    7 H    0 0 0
  10 H    1     2.5562     4.8305   41 O    0 0 0
  10 H    1     2.7309     5.1607    4 B    0 0 0

  11 H    1     1.0911     2.0619   26 C    0 0 0
  11 H    1     2.1443     4.0521   25 C    0 0 0
  11 H    1     2.1684     4.0978   29 C    0 0 0
  11 H    1     2.5222     4.7664   14 H    0 0 0
  11 H    1     2.5622     4.8419   42 O    0 0 0
  11 H    1     2.7179     5.1361    6 B    0 0 0

  12 H    1     1.0917     2.0630   27 C    0 0 0
  12 H    1     2.1441     4.0518   30 C    1 0 0
  12 H    1     2.1716     4.1037   28 C    0 0 0
  12 H    1     2.5226     4.7669   13 H    0 0 0
  12 H    1     2.5541     4.8265   37 O    0 0 0
  12 H    1     2.7237     5.1470    1 B    1 0 1

  13 H    1     1.0919     2.0633   28 C    0 0 0
  13 H    1     2.1522     4.0671   25 C    1 0 1
  13 H    1     2.1668     4.0946   27 C    0 0 0
  13 H    1     2.5226     4.7669   12 H    0 0 0
  13 H    1     2.5923     4.8987   40 O    0 0 1
  13 H    1     2.7582     5.2123    6 B    1 0 1

  14 H    1     1.0915     2.0627   29 C    0 0 0
  14 H    1     2.1483     4.0597   30 C    0 0-1
  14 H    1     2.1679     4.0968   26 C    0 0 0
  14 H    1     2.5222     4.7664   11 H    0 0 0
  14 H    1     2.5809     4.8771   38 O    0 0 0
  14 H    1     2.7404     5.1785    1 B    0 0 0

  15 H    1     1.0916     2.0628   32 C    0 0 0
  15 H    1     2.1436     4.0508   31 C    0 0 1
  15 H    1     2.1707     4.1021   35 C    0 0 1
  15 H    1     2.5217     4.7654   18 H    0 0 0
  15 H    1     2.5567     4.8315   42 O    0 0 1
  15 H    1     2.7165     5.1334    5 B    0 0 1

  16 H    1     1.0914     2.0624   33 C    0 0 0
  16 H    1     2.1488     4.0606   36 C    1 1 0
  16 H    1     2.1663     4.0937   34 C    0 0 0
  16 H    1     2.5170     4.7564   17 H    0 0 0
  16 H    1     2.5780     4.8716   37 O    0 0-1
  16 H    1     2.7395     5.1770    3 B    1 1-1

  17 H    1     1.0921     2.0638   34 C    0 0 0
  17 H    1     2.1502     4.0633   31 C    1 1 0
  17 H    1     2.1683     4.0976   33 C    0 0 0
  17 H    1     2.5170     4.7564   16 H    0 0 0
  17 H    1     2.5870     4.8888   41 O    0 0 0
  17 H    1     2.7510     5.1986    5 B    1 1 0

  18 H    1     1.0913     2.0622   35 C    0 0 1
  18 H    1     2.1495     4.0619   36 C    0 0 1
  18 H    1     2.1656     4.0923   32 C    0 0 0
  18 H    1     2.5217     4.7654   15 H    0 0 0
  18 H    1     2.5789     4.8734   39 O    0 0 0
  18 H    1     2.7392     5.1763    3 B    0 0 0

  19 C    1     1.4017     2.6488   22 C    0 1-1
  19 C    1     1.4025     2.6504   20 C    0 0 0
  19 C    1     1.5510     2.9309    2 B    0 0 0
  19 C    1     2.1442     4.0520    9 H    0 1-1
  19 C    1     2.1461     4.0556    7 H    0 0 0
  19 C    1     2.4236     4.5800   21 C    0 1-1

  20 C    1     1.0917     2.0629    7 H    0 0 0
  20 C    1     1.3915     2.6296   23 C    0 0 0
  20 C    1     1.4025     2.6504   19 C    0 0 0
  20 C    1     2.1689     4.0986   10 H    0 0 0
  20 C    1     2.4191     4.5715   22 C    0 1-1
  20 C    1     2.4241     4.5809   24 C    0 0-1

  21 C    1     1.0909     2.0615    8 H    0 0 0
  21 C    1     1.3909     2.6284   22 C    0 0 0
  21 C    1     1.4014     2.6483   24 C    0-1 0
  21 C    1     2.1694     4.0995    9 H    0 0 0
  21 C    1     2.4189     4.5710   23 C    0-1 1
  21 C    1     2.4236     4.5800   19 C    0-1 1

  22 C    1     1.0908     2.0614    9 H    0 0 0
  22 C    1     1.3909     2.6284   21 C    0 0 0
  22 C    1     1.4017     2.6488   19 C    0-1 1
  22 C    1     2.1688     4.0985    8 H    0 0 0
  22 C    1     2.4191     4.5715   20 C    0-1 1
  22 C    1     2.4226     4.5780   24 C    0-1 0

  23 C    1     1.0912     2.0621   10 H    0 0 0
  23 C    1     1.3915     2.6296   20 C    0 0 0
  23 C    1     1.4021     2.6496   24 C    0 0-1
  23 C    1     2.1712     4.1029    7 H    0 0 0
  23 C    1     2.4189     4.5710   21 C    0 1-1
  23 C    1     2.4237     4.5802   19 C    0 0 0

  24 C    1     1.4014     2.6483   21 C    0 1 0
  24 C    1     1.4021     2.6496   23 C    0 0 1
  24 C    1     1.5479     2.9251    4 B    0 0 1
  24 C    1     2.1454     4.0542    8 H    0 1 0
  24 C    1     2.1469     4.0570   10 H    0 0 1
  24 C    1     2.4226     4.5780   22 C    0 1 0

  25 C    1     1.4025     2.6504   26 C    0 0 0
  25 C    1     1.4037     2.6526   28 C   -1 0-1
  25 C    1     1.5546     2.9377    6 B    0 0 0
  25 C    1     2.1443     4.0521   11 H    0 0 0
  25 C    1     2.1522     4.0671   13 H   -1 0-1
  25 C    1     2.4271     4.5865   27 C   -1 0-1

  26 C    1     1.0911     2.0619   11 H    0 0 0
  26 C    1     1.3916     2.6298   29 C    0 0 0
  26 C    1     1.4025     2.6504   25 C    0 0 0
  26 C    1     2.1679     4.0968   14 H    0 0 0
  26 C    1     2.4165     4.5665   28 C   -1 0-1
  26 C    1     2.4246     4.5819   30 C    0 0-1

  27 C    1     1.0917     2.0630   12 H    0 0 0
  27 C    1     1.3928     2.6320   28 C    0 0 0
  27 C    1     1.4024     2.6502   30 C    1 0 0
  27 C    1     2.1668     4.0946   13 H    0 0 0
  27 C    1     2.4166     4.5668   29 C    1 0 1
  27 C    1     2.4271     4.5865   25 C    1 0 1

  28 C    1     1.0919     2.0633   13 H    0 0 0
  28 C    1     1.3928     2.6320   27 C    0 0 0
  28 C    1     1.4037     2.6526   25 C    1 0 1
  28 C    1     2.1716     4.1037   12 H    0 0 0
  28 C    1     2.4165     4.5665   26 C    1 0 1
  28 C    1     2.4277     4.5877   30 C    1 0 0

  29 C    1     1.0915     2.0627   14 H    0 0 0
  29 C    1     1.3916     2.6298   26 C    0 0 0
  29 C    1     1.4023     2.6499   30 C    0 0-1
  29 C    1     2.1684     4.0978   11 H    0 0 0
  29 C    1     2.4166     4.5668   27 C   -1 0-1
  29 C    1     2.4281     4.5884   25 C    0 0 0

  30 C    1     1.4023     2.6499   29 C    0 0 1
  30 C    1     1.4024     2.6502   27 C   -1 0 0
  30 C    1     1.5517     2.9323    1 B    0 0 1
  30 C    1     2.1441     4.0518   12 H   -1 0 0
  30 C    1     2.1483     4.0597   14 H    0 0 1
  30 C    1     2.4246     4.5819   26 C    0 0 1

  31 C    1     1.4022     2.6498   32 C    0 0-1
  31 C    1     1.4030     2.6513   34 C   -1-1 0
  31 C    1     1.5523     2.9334    5 B    0 0 0
  31 C    1     2.1436     4.0508   15 H    0 0-1
  31 C    1     2.1502     4.0633   17 H   -1-1 0
  31 C    1     2.4264     4.5853   33 C   -1-1 0

  32 C    1     1.0916     2.0628   15 H    0 0 0
  32 C    1     1.3918     2.6301   35 C    0 0 1
  32 C    1     1.4022     2.6498   31 C    0 0 1
  32 C    1     2.1656     4.0923   18 H    0 0 0
  32 C    1     2.4163     4.5661   34 C   -1-1 1
  32 C    1     2.4270     4.5863   36 C    0 0 1

  33 C    1     1.0914     2.0624   16 H    0 0 0
  33 C    1     1.3927     2.6318   34 C    0 0 0
  33 C    1     1.4029     2.6510   36 C    1 1 0
  33 C    1     2.1683     4.0976   17 H    0 0 0
  33 C    1     2.4155     4.5646   35 C    1 1 0
  33 C    1     2.4264     4.5853   31 C    1 1 0

  34 C    1     1.0921     2.0638   17 H    0 0 0
  34 C    1     1.3927     2.6318   33 C    0 0 0
  34 C    1     1.4030     2.6513   31 C    1 1 0
  34 C    1     2.1663     4.0937   16 H    0 0 0
  34 C    1     2.4163     4.5661   32 C    1 1-1
  34 C    1     2.4289     4.5899   36 C    1 1 0

  35 C    1     1.0913     2.0622   18 H    0 0-1
  35 C    1     1.3918     2.6301   32 C    0 0-1
  35 C    1     1.4029     2.6511   36 C    0 0 0
  35 C    1     2.1707     4.1021   15 H    0 0-1
  35 C    1     2.4155     4.5646   33 C   -1-1 0
  35 C    1     2.4269     4.5861   31 C    0 0 0

  36 C    1     1.4029     2.6510   33 C   -1-1 0
  36 C    1     1.4029     2.6511   35 C    0 0 0
  36 C    1     1.5529     2.9346    3 B    0 0-1
  36 C    1     2.1488     4.0606   16 H   -1-1 0
  36 C    1     2.1495     4.0619   18 H    0 0-1
  36 C    1     2.4270     4.5863   32 C    0 0-1

  37 O    1     1.3790     2.6060    3 B    1 1 0
  37 O    1     1.3795     2.6068    1 B    1 0 1
  37 O    1     2.3868     4.5105   39 O    1 1 0
  37 O    1     2.3885     4.5136   38 O    1 0 1
  37 O    1     2.5389     4.7979   30 C    1 0 0
  37 O    1     2.5412     4.8022   36 C    1 1 1

  38 O    1     1.3787     2.6054    1 B    0 0 0
  38 O    1     1.3792     2.6064    2 B    0 0 0
  38 O    1     2.3885     4.5136   37 O   -1 0-1
  38 O    1     2.3912     4.5187   39 O    0 1-1
  38 O    1     2.5351     4.7906   19 C    0 0 0
  38 O    1     2.5405     4.8008   30 C    0 0-1

  39 O    1     1.3795     2.6069    3 B    0 0 0
  39 O    1     1.3798     2.6075    2 B    0-1 1
  39 O    1     2.3868     4.5105   37 O   -1-1 0
  39 O    1     2.3912     4.5187   38 O    0-1 1
  39 O    1     2.5416     4.8030   19 C    0-1 1
  39 O    1     2.5427     4.8050   36 C    0 0 1

  40 O    1     1.3783     2.6045    6 B    1 0 0
  40 O    1     1.3786     2.6051    4 B    0-1 0
  40 O    1     2.3876     4.5119   42 O    1 0 0
  40 O    1     2.3913     4.5189   41 O    0-1 0
  40 O    1     2.5354     4.7912   25 C    1 0 0
  40 O    1     2.5360     4.7923   24 C    0-1-1

  41 O    1     1.3778     2.6037    4 B    0 0 0
  41 O    1     1.3778     2.6037    5 B    1 1 0
  41 O    1     2.3870     4.5107   42 O    1 1 0
  41 O    1     2.3913     4.5189   40 O    0 1 0
  41 O    1     2.5305     4.7819   24 C    0 0-1
  41 O    1     2.5353     4.7911   31 C    1 1 0

  42 O    1     1.3812     2.6101    6 B    0 0 0
  42 O    1     1.3813     2.6104    5 B    0 0 0
  42 O    1     2.3870     4.5107   41 O   -1-1 0
  42 O    1     2.3876     4.5119   40 O   -1 0 0
  42 O    1     2.5481     4.8152   31 C    0 0 0
  42 O    1     2.5522     4.8230   25 C    0 0 0


 SYMMETRY ALLOWED INTERNAL DEGREE(S) OF FREEDOM: 123
 TTTTTTTTTTTTTTTTTTTTTTTTTTTTTT SYMM        TELAPSE        0.29 TCPU        0.29
 TTTTTTTTTTTTTTTTTTTTTTTTTTTTTT INT_SCREEN  TELAPSE        0.32 TCPU        0.31

 DFT PARAMETERS

     ATOM       ELECTRONS   NET CHARGE   R(ANGSTROM)
   1   5  B       5.0000      0.0000     0.89000000
   7   1  H       1.0000      0.0000     1.11000000
  19   6  C       6.0000      0.0000     0.77000000
  37   8  O       8.0000      0.0000     0.74000000

 SIZE OF GRID=    1246830
 TTTTTTTTTTTTTTTTTTTTTTTTTTTTTT MAKE_GRID2  TELAPSE       12.59 TCPU       12.58
 BECKE WEIGHT FUNCTION
 RADSAFE =     2.00
 TOLERANCES - DENSITY:10**- 6; POTENTIAL:10**- 9; GRID WGT:10**-14

 RADIAL INTEGRATION  - INTERVALS (POINTS,UPPER LIMIT):            1( 75,  4.0*R)

 ANGULAR INTEGRATION - INTERVALS (ACCURACY LEVEL [N. POINTS] UPPER LIMIT):
  1(  4[  86]   0.2)  2(  8[ 194]   0.5)  3( 12[ 350]   0.9)  4( 16[ 974]   3.5)
  5( 12[ 350]9999.0)
 TTTTTTTTTTTTTTTTTTTTTTTTTTTTTT INT_CALC    TELAPSE       12.71 TCPU       12.69
 EEEEEEEEEE INT_CALC TERMINATION  DATE 02 12 2025 TIME 07:58:55.3

 *******************************************************************************
 COF-5_z34_inc_L000                                                              
 CRYSTAL - SCF - TYPE OF CALCULATION :  RESTRICTED CLOSED SHELL
 *******************************************************************************

 CAPPA:IS1  2;IS2  2;IS3  8; K PTS MONK NET  20; SYMMOPS:K SPACE   2;G SPACE   1

 TTTTTTTTTTTTTTTTTTTTTTTTTTTTTT SDIK        TELAPSE       13.94 TCPU       22.42

 AAAAAAAAAAAAAAAAAAAAAAAAAAAAAAAAAAAAAAAAAAAAAAAAAAAAAAAAAAAAAAAAAAAAAAAAAAAAAAA
         ATOMIC WAVEFUNCTION(S)


 NUCLEAR CHARGE  5.0  SYMMETRY SPECIES            S    P
 N. ELECTRONS    5.0  NUMBER OF PRIMITIVE GTOS    8    4
                      NUMBER OF CONTRACTED GTOS   4    2
                      NUMBER OF CLOSED SHELLS     2    0
                      OPEN SHELL OCCUPATION       0    1

  ZNUC  SCFIT    TOTAL HF ENERGY   KINETIC ENERGY   VIRIAL THEOREM ACCURACY
   5.0    11    -2.451164084E+01  2.462155050E+01 -1.995536038E+00  1.5E-06

 NUCLEAR CHARGE  1.0  SYMMETRY SPECIES            S
 N. ELECTRONS    1.0  NUMBER OF PRIMITIVE GTOS    4
                      NUMBER OF CONTRACTED GTOS   2
                      NUMBER OF CLOSED SHELLS     0
                      OPEN SHELL OCCUPATION       1

  ZNUC  SCFIT    TOTAL HF ENERGY   KINETIC ENERGY   VIRIAL THEOREM ACCURACY
   1.0     1    -4.977266687E-01  5.190767460E-01 -1.958869132E+00  0.0E+00

 NUCLEAR CHARGE  6.0  SYMMETRY SPECIES            S    P
 N. ELECTRONS    6.0  NUMBER OF PRIMITIVE GTOS    8    4
                      NUMBER OF CONTRACTED GTOS   4    2
                      NUMBER OF CLOSED SHELLS     2    0
                      OPEN SHELL OCCUPATION       0    2

  ZNUC  SCFIT    TOTAL HF ENERGY   KINETIC ENERGY   VIRIAL THEOREM ACCURACY
   6.0     9    -3.766704647E+01  3.775180683E+01 -1.997754800E+00  1.1E-06

 NUCLEAR CHARGE  8.0  SYMMETRY SPECIES            S    P
 N. ELECTRONS    8.0  NUMBER OF PRIMITIVE GTOS    8    4
                      NUMBER OF CONTRACTED GTOS   4    2
                      NUMBER OF CLOSED SHELLS     2    0
                      OPEN SHELL OCCUPATION       0    4

  ZNUC  SCFIT    TOTAL HF ENERGY   KINETIC ENERGY   VIRIAL THEOREM ACCURACY
   8.0    12    -7.477373220E+01  7.477365593E+01 -2.000001020E+00  3.8E-06

 AAAAAAAAAAAAAAAAAAAAAAAAAAAAAAAAAAAAAAAAAAAAAAAAAAAAAAAAAAAAAAAAAAAAAAAAAAAAAAA

 CHARGE NORMALIZATION FACTOR   1.00000000
 TOTAL ATOMIC CHARGES:
   5.0000000   5.0000000   5.0000000   5.0000000   5.0000000   5.0000000
   1.0000000   1.0000000   1.0000000   1.0000000   1.0000000   1.0000000
   1.0000000   1.0000000   1.0000000   1.0000000   1.0000000   1.0000000
   6.0000000   6.0000000   6.0000000   6.0000000   6.0000000   6.0000000
   6.0000000   6.0000000   6.0000000   6.0000000   6.0000000   6.0000000
   6.0000000   6.0000000   6.0000000   6.0000000   6.0000000   6.0000000
   8.0000000   8.0000000   8.0000000   8.0000000   8.0000000   8.0000000
 TTTTTTTTTTTTTTTTTTTTTTTTTTTTTT MOQGAD      TELAPSE       14.05 TCPU       24.40
 TTTTTTTTTTTTTTTTTTTTTTTTTTTTTT SHELLXN     TELAPSE       27.03 TCPU      426.22
 TTTTTTTTTTTTTTTTTTTTTTTTTTTTTT MONMO3      TELAPSE       27.23 TCPU      432.85
 NUMERICALLY INTEGRATED DENSITY    197.9999576274
 TTTTTTTTTTTTTTTTTTTTTTTTTTTTTT NUMDFT      TELAPSE       27.89 TCPU      453.76
 CYC   0 ETOT(AU) -1.295993591657E+03 DETOT -1.30E+03 tst  0.00E+00 PX  1.00E+00
 TTTTTTTTTTTTTTTTTTTTTTTTTTTTTT DIIS        TELAPSE       27.93 TCPU      454.93
 TTTTTTTTTTTTTTTTTTTTTTTTTTTTTT FDIK        TELAPSE       28.44 TCPU      471.42
 INSULATING STATE
 TOP OF VALENCE BANDS -    BAND     99; K    1; EIG -2.8654751E-01 AU
 BOTTOM OF VIRTUAL BANDS - BAND    100; K   17; EIG -1.8687195E-01 AU
 INDIRECT ENERGY BAND GAP:   2.7123 eV
 BOTTOM OF VIRTUAL BANDS - BAND    100; K    1; EIG -1.2176560E-01 AU
 TTTTTTTTTTTTTTTTTTTTTTTTTTTTTT PDIG        TELAPSE       28.74 TCPU      477.56
 CHARGE NORMALIZATION FACTOR   1.00000000
 TOTAL ATOMIC CHARGES:
   4.1104151   4.1096306   4.1108715   4.1122471   4.1100396   4.1097030
   0.7864926   0.7864622   0.7865928   0.7866419   0.7864228   0.7863367
   0.7873153   0.7868783   0.7862062   0.7867973   0.7868053   0.7870478
   6.0608767   6.2736540   6.2736831   6.2747126   6.2733650   6.0632899
   6.0568214   6.2749119   6.2730702   6.2757960   6.2755644   6.0605461
   6.0594598   6.2736322   6.2746333   6.2743147   6.2759601   6.0571404
   8.7079902   8.7072343   8.7077124   8.7068627   8.7065857   8.7092769
 TTTTTTTTTTTTTTTTTTTTTTTTTTTTTT MOQGAD      TELAPSE       28.79 TCPU      477.61
 TTTTTTTTTTTTTTTTTTTTTTTTTTTTTT SHELLXN     TELAPSE       41.80 TCPU      892.69
 TTTTTTTTTTTTTTTTTTTTTTTTTTTTTT MONMO3      TELAPSE       42.00 TCPU      899.03
 NUMERICALLY INTEGRATED DENSITY    197.9999633875
 TTTTTTTTTTTTTTTTTTTTTTTTTTTTTT NUMDFT      TELAPSE       42.68 TCPU      920.79
 CYC   1 ETOT(AU) -1.288792828890E+03 DETOT  7.20E+00 tst  0.00E+00 PX  1.00E+00
 TTTTTTTTTTTTTTTTTTTTTTTTTTTTTT DIIS        TELAPSE       42.73 TCPU      922.39
 DIIS TEST: 0.11282E+01 AT SCF   CYCLE   1 - MIX   30 %
 TTTTTTTTTTTTTTTTTTTTTTTTTTTTTT FDIK        TELAPSE       43.26 TCPU      939.24
 INSULATING STATE
 TOP OF VALENCE BANDS -    BAND     99; K    1; EIG -1.8146040E-01 AU
 BOTTOM OF VIRTUAL BANDS - BAND    100; K   17; EIG -1.1167947E-01 AU
 INDIRECT ENERGY BAND GAP:   1.8988 eV
 BOTTOM OF VIRTUAL BANDS - BAND    100; K    1; EIG -3.5714392E-02 AU
 TTTTTTTTTTTTTTTTTTTTTTTTTTTTTT PDIG        TELAPSE       43.54 TCPU      945.38
 CHARGE NORMALIZATION FACTOR   1.00000000
 TOTAL ATOMIC CHARGES:
   4.6876044   4.6876379   4.6881969   4.6874322   4.6874768   4.6883793
   0.9266200   0.9270094   0.9271112   0.9269635   0.9266334   0.9261353
   0.9271932   0.9274624   0.9262286   0.9266610   0.9267941   0.9270679
   5.8674554   6.1224190   6.1203419   6.1203489   6.1217968   5.8627594
   5.8714227   6.1170042   6.1186602   6.1232474   6.1200177   5.8656009
   5.8681489   6.1170484   6.1197743   6.1217155   6.1195884   5.8699751
   8.3510412   8.3497100   8.3513496   8.3485662   8.3478950   8.3555050
 TTTTTTTTTTTTTTTTTTTTTTTTTTTTTT MOQGAD      TELAPSE       43.60 TCPU      945.43
 TTTTTTTTTTTTTTTTTTTTTTTTTTTTTT SHELLXN     TELAPSE       56.64 TCPU     1361.53
 TTTTTTTTTTTTTTTTTTTTTTTTTTTTTT MONMO3      TELAPSE       56.84 TCPU     1367.84
 NUMERICALLY INTEGRATED DENSITY    197.9999570234
 TTTTTTTTTTTTTTTTTTTTTTTTTTTTTT NUMDFT      TELAPSE       57.51 TCPU     1389.27
 CYC   2 ETOT(AU) -1.288984771671E+03 DETOT -1.92E-01 tst  4.92E-03 PX  1.56E-01
 TTTTTTTTTTTTTTTTTTTTTTTTTTTTTT DIIS        TELAPSE       57.56 TCPU     1390.91
 DIIS TEST: 0.51428E+00 AT SCF   CYCLE   2 - DIIS ACTIVE - HISTORY:     2 CYCLES
 TTTTTTTTTTTTTTTTTTTTTTTTTTTTTT FDIK        TELAPSE       58.09 TCPU     1408.04
 INSULATING STATE
 TOP OF VALENCE BANDS -    BAND     99; K    1; EIG -2.0148139E-01 AU
 BOTTOM OF VIRTUAL BANDS - BAND    100; K   17; EIG -1.0559718E-01 AU
 INDIRECT ENERGY BAND GAP:   2.6091 eV
 BOTTOM OF VIRTUAL BANDS - BAND    100; K    1; EIG -2.7240598E-02 AU
 TTTTTTTTTTTTTTTTTTTTTTTTTTTTTT PDIG        TELAPSE       58.38 TCPU     1414.18
 CHARGE NORMALIZATION FACTOR   1.00000000
 TOTAL ATOMIC CHARGES:
   4.4594012   4.4582350   4.4590790   4.4605704   4.4587256   4.4581706
   0.8951022   0.8947663   0.8949588   0.8951642   0.8943210   0.8940837
   0.8960334   0.8952472   0.8937743   0.8950591   0.8954812   0.8950721
   5.8981539   6.1676008   6.1690495   6.1679857   6.1688599   5.9021833
   5.8971597   6.1668878   6.1679465   6.1701549   6.1709642   5.9007562
   5.8998144   6.1673044   6.1682608   6.1700590   6.1697541   5.8981615
   8.5145097   8.5140016   8.5144033   8.5133914   8.5132108   8.5161813
 TTTTTTTTTTTTTTTTTTTTTTTTTTTTTT MOQGAD      TELAPSE       58.44 TCPU     1414.24
 TTTTTTTTTTTTTTTTTTTTTTTTTTTTTT SHELLXN     TELAPSE       71.47 TCPU     1830.16
 TTTTTTTTTTTTTTTTTTTTTTTTTTTTTT MONMO3      TELAPSE       71.67 TCPU     1836.51
 NUMERICALLY INTEGRATED DENSITY    197.9999572174
 TTTTTTTTTTTTTTTTTTTTTTTTTTTTTT NUMDFT      TELAPSE       72.34 TCPU     1858.04
 CYC   3 ETOT(AU) -1.289093332104E+03 DETOT -1.09E-01 tst  7.09E-04 PX  5.63E-02
 TTTTTTTTTTTTTTTTTTTTTTTTTTTTTT DIIS        TELAPSE       72.41 TCPU     1860.00
 DIIS TEST: 0.99391E-02 AT SCF   CYCLE   3 - DIIS ACTIVE - HISTORY:     3 CYCLES
 TTTTTTTTTTTTTTTTTTTTTTTTTTTTTT FDIK        TELAPSE       72.93 TCPU     1876.86
 INSULATING STATE
 TOP OF VALENCE BANDS -    BAND     99; K    1; EIG -2.0909991E-01 AU
 BOTTOM OF VIRTUAL BANDS - BAND    100; K   17; EIG -1.1675655E-01 AU
 INDIRECT ENERGY BAND GAP:   2.5128 eV
 BOTTOM OF VIRTUAL BANDS - BAND    100; K    1; EIG -3.9766923E-02 AU
 TTTTTTTTTTTTTTTTTTTTTTTTTTTTTT PDIG        TELAPSE       73.22 TCPU     1883.00
 CHARGE NORMALIZATION FACTOR   1.00000000
 TOTAL ATOMIC CHARGES:
   4.4696902   4.4699291   4.4703145   4.4704137   4.4693188   4.4699632
   0.8802672   0.8808462   0.8806089   0.8808141   0.8800504   0.8799884
   0.8812266   0.8814034   0.8798423   0.8805382   0.8809472   0.8809449
   5.9598947   6.1605376   6.1574583   6.1600126   6.1580281   5.9534611
   5.9604253   6.1583706   6.1568189   6.1609821   6.1576827   5.9547454
   5.9571700   6.1571955   6.1583957   6.1581947   6.1591650   5.9586238
   8.4945609   8.4933505   8.4950555   8.4925929   8.4916627   8.4985081
 TTTTTTTTTTTTTTTTTTTTTTTTTTTTTT MOQGAD      TELAPSE       73.28 TCPU     1883.05
 TTTTTTTTTTTTTTTTTTTTTTTTTTTTTT SHELLXN     TELAPSE       86.29 TCPU     2298.28
 TTTTTTTTTTTTTTTTTTTTTTTTTTTTTT MONMO3      TELAPSE       86.49 TCPU     2304.83
 NUMERICALLY INTEGRATED DENSITY    197.9999572944
 TTTTTTTTTTTTTTTTTTTTTTTTTTTTTT NUMDFT      TELAPSE       87.17 TCPU     2326.30
 CYC   4 ETOT(AU) -1.289095283414E+03 DETOT -1.95E-03 tst  4.15E-05 PX  1.33E-02
 TTTTTTTTTTTTTTTTTTTTTTTTTTTTTT DIIS        TELAPSE       87.23 TCPU     2328.29
 DIIS TEST: 0.35544E-02 AT SCF   CYCLE   4 - DIIS ACTIVE - HISTORY:     4 CYCLES
 TTTTTTTTTTTTTTTTTTTTTTTTTTTTTT FDIK        TELAPSE       87.76 TCPU     2345.14
 INSULATING STATE
 TOP OF VALENCE BANDS -    BAND     99; K    1; EIG -2.0876092E-01 AU
 BOTTOM OF VIRTUAL BANDS - BAND    100; K   17; EIG -1.1483329E-01 AU
 INDIRECT ENERGY BAND GAP:   2.5559 eV
 BOTTOM OF VIRTUAL BANDS - BAND    100; K    1; EIG -3.7500105E-02 AU
 TTTTTTTTTTTTTTTTTTTTTTTTTTTTTT PDIG        TELAPSE       88.05 TCPU     2351.29
 CHARGE NORMALIZATION FACTOR   1.00000000
 TOTAL ATOMIC CHARGES:
   4.4706743   4.4695755   4.4704845   4.4716209   4.4701218   4.4698686
   0.8828684   0.8825781   0.8828805   0.8828602   0.8823472   0.8819249
   0.8837449   0.8830797   0.8817961   0.8828343   0.8831060   0.8829968
   5.9241939   6.1679696   6.1692236   6.1673728   6.1698813   5.9290015
   5.9248075   6.1662355   6.1682842   6.1699970   6.1702913   5.9278977
   5.9275996   6.1666040   6.1685647   6.1705476   6.1683547   5.9255042
   8.5009161   8.4999540   8.5002947   8.4991976   8.4992665   8.5026776
 TTTTTTTTTTTTTTTTTTTTTTTTTTTTTT MOQGAD      TELAPSE       88.11 TCPU     2351.35
 TTTTTTTTTTTTTTTTTTTTTTTTTTTTTT SHELLXN     TELAPSE      101.11 TCPU     2766.15
 TTTTTTTTTTTTTTTTTTTTTTTTTTTTTT MONMO3      TELAPSE      101.31 TCPU     2772.64
 NUMERICALLY INTEGRATED DENSITY    197.9999574462
 TTTTTTTTTTTTTTTTTTTTTTTTTTTTTT NUMDFT      TELAPSE      102.00 TCPU     2794.52
 CYC   5 ETOT(AU) -1.289096060743E+03 DETOT -7.77E-04 tst  1.04E-05 PX  8.10E-03
 TTTTTTTTTTTTTTTTTTTTTTTTTTTTTT DIIS        TELAPSE      102.07 TCPU     2796.76
 DIIS TEST: 0.16919E-03 AT SCF   CYCLE   5 - DIIS ACTIVE - HISTORY:     5 CYCLES
 TTTTTTTTTTTTTTTTTTTTTTTTTTTTTT FDIK        TELAPSE      102.59 TCPU     2813.41
 INSULATING STATE
 TOP OF VALENCE BANDS -    BAND     99; K    1; EIG -2.0820523E-01 AU
 BOTTOM OF VIRTUAL BANDS - BAND    100; K   17; EIG -1.1438585E-01 AU
 INDIRECT ENERGY BAND GAP:   2.5530 eV
 BOTTOM OF VIRTUAL BANDS - BAND    100; K    1; EIG -3.7031159E-02 AU
 TTTTTTTTTTTTTTTTTTTTTTTTTTTTTT PDIG        TELAPSE      102.87 TCPU     2819.55
 CHARGE NORMALIZATION FACTOR   1.00000000
 TOTAL ATOMIC CHARGES:
   4.4696125   4.4697280   4.4701297   4.4702087   4.4690521   4.4694927
   0.8838964   0.8842952   0.8840607   0.8844233   0.8835135   0.8835138
   0.8848361   0.8848027   0.8832391   0.8841618   0.8845924   0.8843295
   5.9337586   6.1670657   6.1647163   6.1679017   6.1639740   5.9266330
   5.9323262   6.1657684   6.1634815   6.1680914   6.1659811   5.9281488
   5.9292475   6.1649910   6.1648350   6.1646379   6.1680711   5.9316231
   8.4999738   8.4994119   8.5012137   8.4987875   8.4975356   8.5039369
 TTTTTTTTTTTTTTTTTTTTTTTTTTTTTT MOQGAD      TELAPSE      102.93 TCPU     2819.60
 TTTTTTTTTTTTTTTTTTTTTTTTTTTTTT SHELLXN     TELAPSE      116.17 TCPU     3242.23
 TTTTTTTTTTTTTTTTTTTTTTTTTTTTTT MONMO3      TELAPSE      116.38 TCPU     3248.79
 NUMERICALLY INTEGRATED DENSITY    197.9999574130
 TTTTTTTTTTTTTTTTTTTTTTTTTTTTTT NUMDFT      TELAPSE      117.06 TCPU     3270.46
 CYC   6 ETOT(AU) -1.289096075458E+03 DETOT -1.47E-05 tst  1.37E-06 PX  2.01E-03
 TTTTTTTTTTTTTTTTTTTTTTTTTTTTTT DIIS        TELAPSE      117.13 TCPU     3272.91
 DIIS TEST: 0.95253E-04 AT SCF   CYCLE   6 - DIIS ACTIVE - HISTORY:     6 CYCLES
 TTTTTTTTTTTTTTTTTTTTTTTTTTTTTT FDIK        TELAPSE      117.68 TCPU     3290.53
 INSULATING STATE
 TOP OF VALENCE BANDS -    BAND     99; K    1; EIG -2.0828437E-01 AU
 BOTTOM OF VIRTUAL BANDS - BAND    100; K   17; EIG -1.1445284E-01 AU
 INDIRECT ENERGY BAND GAP:   2.5533 eV
 BOTTOM OF VIRTUAL BANDS - BAND    100; K    1; EIG -3.7100872E-02 AU
 TTTTTTTTTTTTTTTTTTTTTTTTTTTTTT PDIG        TELAPSE      117.97 TCPU     3296.67
 CHARGE NORMALIZATION FACTOR   1.00000000
 TOTAL ATOMIC CHARGES:
   4.4699924   4.4693352   4.4700565   4.4709856   4.4695716   4.4695663
   0.8839424   0.8839816   0.8840741   0.8841434   0.8835127   0.8832419
   0.8848533   0.8845063   0.8831005   0.8840234   0.8843556   0.8842814
   5.9297038   6.1661153   6.1657745   6.1653625   6.1666228   5.9310523
   5.9305252   6.1642824   6.1650101   6.1678264   6.1665637   5.9302129
   5.9312283   6.1639988   6.1658692   6.1672638   6.1657676   5.9299268
   8.5003656   8.4993028   8.5000443   8.4985634   8.4983344   8.5027586
 TTTTTTTTTTTTTTTTTTTTTTTTTTTTTT MOQGAD      TELAPSE      118.02 TCPU     3296.72
 TTTTTTTTTTTTTTTTTTTTTTTTTTTTTT SHELLXN     TELAPSE      131.07 TCPU     3712.92
 TTTTTTTTTTTTTTTTTTTTTTTTTTTTTT MONMO3      TELAPSE      131.27 TCPU     3719.44
 NUMERICALLY INTEGRATED DENSITY    197.9999574023
 TTTTTTTTTTTTTTTTTTTTTTTTTTTTTT NUMDFT      TELAPSE      131.94 TCPU     3740.79
 CYC   7 ETOT(AU) -1.289096097695E+03 DETOT -2.22E-05 tst  7.39E-07 PX  1.03E-03
 TTTTTTTTTTTTTTTTTTTTTTTTTTTTTT DIIS        TELAPSE      132.02 TCPU     3743.33
 DIIS TEST: 0.67490E-05 AT SCF   CYCLE   7 - DIIS ACTIVE - HISTORY:     7 CYCLES
 TTTTTTTTTTTTTTTTTTTTTTTTTTTTTT FDIK        TELAPSE      132.55 TCPU     3760.29
 INSULATING STATE
 TOP OF VALENCE BANDS -    BAND     99; K    1; EIG -2.0835609E-01 AU
 BOTTOM OF VIRTUAL BANDS - BAND    100; K   17; EIG -1.1451917E-01 AU
 INDIRECT ENERGY BAND GAP:   2.5534 eV
 BOTTOM OF VIRTUAL BANDS - BAND    100; K    1; EIG -3.7164235E-02 AU
 TTTTTTTTTTTTTTTTTTTTTTTTTTTTTT PDIG        TELAPSE      132.84 TCPU     3766.43
 CHARGE NORMALIZATION FACTOR   1.00000000
 TOTAL ATOMIC CHARGES:
   4.4702715   4.4696484   4.4703595   4.4710437   4.4696629   4.4696847
   0.8838287   0.8838100   0.8838993   0.8840332   0.8833628   0.8831020
   0.8847432   0.8843199   0.8829174   0.8839131   0.8842593   0.8840800
   5.9301680   6.1662813   6.1660625   6.1662574   6.1661579   5.9299944
   5.9298131   6.1646265   6.1650918   6.1677368   6.1672051   5.9302616
   5.9302791   6.1645634   6.1657506   6.1667258   6.1668504   5.9302112
   8.5001200   8.4992696   8.5002072   8.4985473   8.4980961   8.5027833
 TTTTTTTTTTTTTTTTTTTTTTTTTTTTTT MOQGAD      TELAPSE      132.89 TCPU     3766.49
 TTTTTTTTTTTTTTTTTTTTTTTTTTTTTT SHELLXN     TELAPSE      145.92 TCPU     4182.13
 TTTTTTTTTTTTTTTTTTTTTTTTTTTTTT MONMO3      TELAPSE      146.12 TCPU     4188.63
 NUMERICALLY INTEGRATED DENSITY    197.9999574013
 TTTTTTTTTTTTTTTTTTTTTTTTTTTTTT NUMDFT      TELAPSE      146.81 TCPU     4210.43
 CYC   8 ETOT(AU) -1.289096099235E+03 DETOT -1.54E-06 tst  3.51E-08 PX  2.64E-04
 TTTTTTTTTTTTTTTTTTTTTTTTTTTTTT DIIS        TELAPSE      146.89 TCPU     4213.04
 DIIS TEST: 0.98641E-06 AT SCF   CYCLE   8 - DIIS ACTIVE - HISTORY:     8 CYCLES
 TTTTTTTTTTTTTTTTTTTTTTTTTTTTTT FDIK        TELAPSE      147.41 TCPU     4229.58
 INSULATING STATE
 TOP OF VALENCE BANDS -    BAND     99; K    1; EIG -2.0835224E-01 AU
 BOTTOM OF VIRTUAL BANDS - BAND    100; K   17; EIG -1.1452588E-01 AU
 INDIRECT ENERGY BAND GAP:   2.5531 eV
 BOTTOM OF VIRTUAL BANDS - BAND    100; K    1; EIG -3.7169003E-02 AU
 TTTTTTTTTTTTTTTTTTTTTTTTTTTTTT PDIG        TELAPSE      147.69 TCPU     4235.72
 CHARGE NORMALIZATION FACTOR   1.00000000
 TOTAL ATOMIC CHARGES:
   4.4701778   4.4696300   4.4703085   4.4710614   4.4696999   4.4697649
   0.8837913   0.8838441   0.8839007   0.8840284   0.8833475   0.8831156
   0.8847011   0.8843608   0.8829369   0.8838933   0.8842379   0.8841012
   5.9301088   6.1663833   6.1659421   6.1661376   6.1662685   5.9300234
   5.9303573   6.1647759   6.1649419   6.1680025   6.1668804   5.9297100
   5.9305180   6.1645310   6.1657773   6.1669038   6.1666149   5.9299635
   8.5001727   8.4992839   8.5002317   8.4985742   8.4981255   8.5028704
 TTTTTTTTTTTTTTTTTTTTTTTTTTTTTT MOQGAD      TELAPSE      147.75 TCPU     4235.78
 TTTTTTTTTTTTTTTTTTTTTTTTTTTTTT SHELLXN     TELAPSE      160.81 TCPU     4652.47
 TTTTTTTTTTTTTTTTTTTTTTTTTTTTTT MONMO3      TELAPSE      161.01 TCPU     4658.81
 NUMERICALLY INTEGRATED DENSITY    197.9999574013
 TTTTTTTTTTTTTTTTTTTTTTTTTTTTTT NUMDFT      TELAPSE      161.69 TCPU     4680.65
 CYC   9 ETOT(AU) -1.289096099437E+03 DETOT -2.02E-07 tst  1.30E-08 PX  1.38E-04
 TTTTTTTTTTTTTTTTTTTTTTTTTTTTTT DIIS        TELAPSE      161.79 TCPU     4683.67
 DIIS TEST: 0.14294E-06 AT SCF   CYCLE   9 - DIIS ACTIVE - HISTORY:     9 CYCLES
 TTTTTTTTTTTTTTTTTTTTTTTTTTTTTT FDIK        TELAPSE      162.32 TCPU     4700.52
 INSULATING STATE
 TOP OF VALENCE BANDS -    BAND     99; K    1; EIG -2.0834635E-01 AU
 BOTTOM OF VIRTUAL BANDS - BAND    100; K   17; EIG -1.1452360E-01 AU
 INDIRECT ENERGY BAND GAP:   2.5530 eV
 BOTTOM OF VIRTUAL BANDS - BAND    100; K    1; EIG -3.7165883E-02 AU
 TTTTTTTTTTTTTTTTTTTTTTTTTTTTTT PDIG        TELAPSE      162.60 TCPU     4706.66
 CHARGE NORMALIZATION FACTOR   1.00000000
 TOTAL ATOMIC CHARGES:
   4.4701749   4.4696138   4.4702967   4.4710224   4.4696528   4.4697083
   0.8837979   0.8838528   0.8839099   0.8840344   0.8833604   0.8831191
   0.8847124   0.8843667   0.8829493   0.8838978   0.8842453   0.8841113
   5.9301957   6.1664061   6.1658753   6.1661019   6.1662633   5.9300052
   5.9302332   6.1646677   6.1650121   6.1679263   6.1668935   5.9299138
   5.9304609   6.1644201   6.1658463   6.1668907   6.1665660   5.9301011
   8.5002275   8.4993068   8.5002318   8.4985847   8.4981632   8.5028806
 TTTTTTTTTTTTTTTTTTTTTTTTTTTTTT MOQGAD      TELAPSE      162.66 TCPU     4706.72
 TTTTTTTTTTTTTTTTTTTTTTTTTTTTTT SHELLXN     TELAPSE      175.72 TCPU     5123.31
 +++ ENERGIES IN A.U. +++
 ::: EXT EL-POLE                                  -1.5108839346333E+03
 ::: EXT EL-SPHEROPOLE                             1.6811816779875E+01
 ::: BIELET ZONE E-E                               2.4842301192654E+03
 ::: TOTAL E-E                                     9.9015800141195E+02
 ::: TOTAL E-N + N-E                              -3.8043374061597E+03
 ::: TOTAL N-N                                     3.7880119535346E+02
 ::: KINETIC ENERGY                                1.2800172362946E+03
 ::: PSEUDO TOTAL   ENERGY                        -1.1553609730997E+03
 ::: VIRIAL COEFFICIENT                            1.0511855869918E+00
 TTTTTTTTTTTTTTTTTTTTTTTTTTTTTT MONMO3      TELAPSE      175.93 TCPU     5129.89
 NUMERICALLY INTEGRATED DENSITY    197.9999574010
 EXCHANGE ENERGY: -0.126024414399E+03  CORRELATION ENERGY: -0.771071195644E+01
 TTTTTTTTTTTTTTTTTTTTTTTTTTTTTT NUMDFT      TELAPSE      176.60 TCPU     5151.34
 CYC  10 ETOT(AU) -1.289096099455E+03 DETOT -1.82E-08 tst  1.40E-09 PX  1.38E-04

 == SCF ENDED - CONVERGENCE ON ENERGY      E(AU) -1.2890960994552E+03 CYCLES  10


 ENERGY EXPRESSION=HARTREE+FOCK EXCH*0.00000+(HSESOL     EXCH)*1.00000+PBESOL     CORR


 TOTAL ENERGY(DFT)(AU)( 10) -1.2890960994552E+03 DE-1.8E-08 tester 1.4E-09
 TTTTTTTTTTTTTTTTTTTTTTTTTTTTTT EDFT        TELAPSE      176.60 TCPU     5151.35
 
 INFORMATION **** DFTD3 ENERGY **** CALCULATE DFTD3 ENERGY

           DFT-D V3(BJ)
 DF                                         hsesol3c  
 parameters
 s6       :    1.0000
 s8       :    0.0000
 a1       :    0.5196
 a2       :    4.9385
 k1 k3    :   16.0000   -4.0000
 Cutoff   :   50.2022
 CN-Cutoff:   21.1671
 ABC-Cutoff:   21.1671
 
 Edisp /kcal,au:   -31.7181 -0.05054605

 E6    /kcal :   -34.0033
 E8    /kcal :     0.0000
 E6(ABC) "   :   2.285160
 
 INFORMATION **** DFTD3 ENERGY **** NORMAL TERMINATION OF DFTD3 MODULE

 GCP ENERGY CALCULATION
  level        hsesol3c            basis:hsesol3c
  Nbf            474
  Atoms           42

  Parameters: 
  sigma     1.0000
  eta       1.4281
  alpha     0.2936
  beta      1.9467

  dmp_scal      4.0000
  dmp_exp       6.0000
 cutoffs: 
   distance [bohr] 60.0
   noise    [a.u.] 2.2E-16
 SR-damping   T
 ** gCP correction **
  Egcp:        0.0842622196 / (a.u.) ||      52.8753 / (kcal/mol)
 INFORMATION **** GCP **** NORMAL TERMINATION OF GCP MODULE

 *******************************************************************************

 DFT-D3-GCP DISPERSION AND COUNTERPOISE CORRECTION

 D3 DISPERSION ENERGY (AU)      -5.0546050888774E-02
 GCP ENERGY (AU)                 8.4262219574540E-02
 TOTAL ENERGY + DISP + GCP (AU) -1.2890623832865E+03

 *******************************************************************************

 EIGENVECTORS IN FORTRAN UNIT  8
 TTTTTTTTTTTTTTTTTTTTTTTTTTTTTT END         TELAPSE      178.03 TCPU     5158.67
 EEEEEEEEEE TERMINATION  DATE 02 12 2025 TIME 08:01:40.7
