 Default number of threads is:           32

         
 *******************************************************************************
 *                                                                             *
 *                               CRYSTAL23                                     *
 *                      public : 1.0.1 - October 2022                          *
 *                       HTTP://WWW.CRYSTAL.UNITO.IT                           *
 *                                                                             *
 *                              MAIN AUTHORS                                   *
 *                                                                             *
 *  R. DOVESI(1,11), V.R. SAUNDERS(2), C. ROETTI(1,11), R. ORLANDO(1,11),      *
 *  C.M. ZICOVICH-WILSON(1,3), F. PASCALE(4), B. CIVALLERI(1,11),              *
 *  K. DOLL(5), N.M. HARRISON(6), I.J. BUSH(7), Ph. D'ARCO(8),                 *
 *  M. LLUNELL(9), M. CAUSA'(10), Y. NOEL(8), L. MASCHIO(1,11), A. ERBA(1,11)  *
 *  M. RE'RAT(14), S. CASASSA(1,11), B.G. SEARLE(2), J.K. DESMARAIS(1)         *
 *                                                                             *
 *        CONTRIBUTIONS TO THE CODE HAVE ALSO BEEN GIVEN BY                    *
 *                                                                             *
 *  M. FERRABONE(1,11), M. DE LA PIERRE(1,11), M. FERRERO(1,11),               *
 *  J. BAIMA(1,11), E. ALBANESE(1,11), M.F. PEINTINGER(12), R. BAST(13),       *
 *  B. KIRTMAN(15), V. LACIVITA(1,11), R. DEMICHELIS(1,16)                     *
 *  G. BRANDEBURG(17), S. SALUSTRO(1,11), G. SANSONE(1,11)                     *
 *  M.T. RUGGIERO(18), L.E. DAGA(1), L. DONA'(1), A. COSSARD(1)                *
 *                                                                             *
 * (1) THEORETICAL CHEMISTRY GROUP - UNIVERSITA' DI TORINO - TORINO (ITALY)    *
 * (2) SCIENTIFIC COMPUTING DEPARTMENT - STFC DARESBURY (UK)                   *
 * (3) UNIVERSIDAD AUTONOMA DEL ESTADO DE MORELOS - CUERNAVACA (MEXICO)        *
 * (4) UNIVERSITE' DE LORRAINE - NANCY (FRANCE)                                *
 * (5) UNIVERSITAET STUTTGART- STUTTGART (GERMANY)                             *
 * (6) IMPERIAL COLLEGE - LONDON (UK)                                          *
 * (7) SCIENTIFIC COMPUTING DEPARTMENT - STFC RAL (UK)                         *
 * (8) UPMC - SORBONNE UNIVERSITES - PARIS (FRANCE)                            *
 * (9) UNIVERSIDAD DE BARCELONA - BARCELONA (SPAIN)                            *
 *(10) UNIVERSITA' DI NAPOLI "FEDERICO II" - NAPOLI (ITALY)                    *
 *(11) NIS - NANOSTRUCTURED INTERFACES AND SURFACES - TORINO (ITALY)           *
 *(12) MPI FUER CHEMISCHE ENERGIEKONVERSION - MUELHEIM AN DER RUHR (GERMANY)   *
 *(13) UNIVERSITY OF TROMSO - TROMSO (NORWAY)                                  *
 *(14) UNIVERSITE' DE PAU ET DES PAYS DE L'ADOUR - PAU (FRANCE)                *
 *(15) UNIVERSITY OF CALIFORNIA SANTA BARBARA - SANTA BARBARA (USA)            *
 *(16) CURTIN UNIVERSITY - PERTH (AUSTRALIA)                                   *
 *(17) UNIVERSITY COLLEGE LONDON - LONDON (UK)                                 *
 *(18) UNIVERSITY OF VERMONT - BURLINGTON (USA)                                *
 *                                                                             *
 *******************************************************************************
 EEEEEEEEEE STARTING  DATE 19 02 2026 TIME 20:13:23.3
 cof-1_z36_L020_serr                                                             

 CRYSTAL CALCULATION
 (INPUT ACCORDING TO THE INTERNATIONAL TABLES FOR X-RAY CRYSTALLOGRAPHY)
 CRYSTAL FAMILY                       :  TRICLINIC   
 CRYSTAL CLASS  (GROTH - 1921)        :  TRICLINIC PEDIAL                     

 SPACE GROUP (NONCENTROSYMMETRIC)     :  P 1             

 LATTICE PARAMETERS  (ANGSTROMS AND DEGREES) - CONVENTIONAL CELL
        A           B           C        ALPHA        BETA       GAMMA
    15.02361    15.02392     7.20000    90.00032    89.99994   119.99596


 NUMBER OF IRREDUCIBLE ATOMS IN THE CONVENTIONAL CELL:   84

 INPUT COORDINATES

 ATOM AT. N.              COORDINATES
   1   5     6.136805400000E-01  2.273182200000E-01  2.506634300000E-01
   2   5     6.905271000000E-01  3.810269500000E-01  7.506634300000E-01
   3   5     7.727362000000E-01  3.863778800000E-01  2.506634400000E-01
   4   5     8.495827600000E-01  5.400866100000E-01  7.506634500000E-01
   5   5     6.136762700000E-01  3.863606700000E-01  2.492685600000E-01
   6   5     6.905228300000E-01  5.400694000000E-01  7.492685600000E-01
   7   5     2.272552500000E-01  6.136332200000E-01  2.506634400000E-01
   8   5     3.041018100000E-01  7.673419500000E-01  7.506634400000E-01
   9   5     3.863632200000E-01  6.136124500000E-01  2.506634300000E-01
  10   5     4.632097800000E-01  7.673211800000E-01  7.506634300000E-01
  11   5     3.863435000000E-01  7.727516500000E-01  2.492685600000E-01
  12   5     4.631900600000E-01  9.264603800000E-01  7.492685600000E-01
  13   1     9.030436200000E-01  3.089300500000E-01  2.477715600000E-01
  14   1     9.798901800000E-01  4.626387800000E-01  7.477715600000E-01
  15   1     9.663453000000E-02  6.910534400000E-01  2.473293400000E-01
  16   1     1.734810900000E-01  8.447621700000E-01  7.473293400000E-01
  17   1     9.029714200000E-01  5.940724300000E-01  2.472612800000E-01
  18   1     9.798179800000E-01  7.477811600000E-01  7.472612800000E-01
  19   1     9.673618000000E-02  4.056849400000E-01  2.472782600000E-01
  20   1     1.735827400000E-01  5.593936700000E-01  7.472782600000E-01
  21   1     6.910324000000E-01  9.700412000000E-02  2.522284600000E-01
  22   1     7.678789600000E-01  2.507128500000E-01  7.522284600000E-01
  23   1     3.089297200000E-01  9.034373100000E-01  2.526707100000E-01
  24   1     3.857762800000E-01  5.714604000000E-02  7.526707100000E-01
  25   1     4.058699900000E-01  9.704998000000E-02  2.527388100000E-01
  26   1     4.827165500000E-01  2.507587100000E-01  7.527388100000E-01
  27   1     5.943122100000E-01  9.033473200000E-01  2.527217200000E-01
  28   1     6.711587700000E-01  5.705605000000E-02  7.527217200000E-01
  29   1     6.910727400000E-01  5.940542100000E-01  2.477715900000E-01
  30   1     7.679193000000E-01  7.477629400000E-01  7.477715900000E-01
  31   1     3.089618300000E-01  4.056093300000E-01  2.473293200000E-01
  32   1     3.858083900000E-01  5.593180600000E-01  7.473293200000E-01
  33   1     4.058405700000E-01  3.088232500000E-01  2.472612300000E-01
  34   1     4.826871300000E-01  4.625319800000E-01  7.472612300000E-01
  35   1     5.942908800000E-01  6.909579300000E-01  2.472783100000E-01
  36   1     6.711374400000E-01  8.446666600000E-01  7.472783100000E-01
  37   6     8.918903100000E-01  4.459436900000E-01  2.492175200000E-01
  38   6     9.687368700000E-01  5.996524200000E-01  7.492175200000E-01
  39   6     9.464891100000E-01  3.927856300000E-01  2.478396100000E-01
  40   6     2.333567000000E-02  5.464943600000E-01  7.478396100000E-01
  41   6     5.338812000000E-02  6.071853000000E-01  2.477205800000E-01
  42   6     1.302346800000E-01  7.608940300000E-01  7.477205800000E-01
  43   6     9.464521100000E-01  5.536921900000E-01  2.480778100000E-01
  44   6     2.329867000000E-02  7.074009200000E-01  7.480778100000E-01
  45   6     5.342634000000E-02  4.462499700000E-01  2.471591800000E-01
  46   6     1.302729000000E-01  5.999587000000E-01  7.471591800000E-01
  47   6     1.080358900000E-01  5.540356300000E-01  2.480948000000E-01
  48   6     1.848824500000E-01  7.077443600000E-01  7.480948000000E-01
  49   6     5.540394200000E-01  1.081684600000E-01  2.507825200000E-01
  50   6     6.308859800000E-01  2.618771900000E-01  7.507825200000E-01
  51   6     6.071778500000E-01  5.355594000000E-02  2.521604000000E-01
  52   6     6.840244100000E-01  2.072646700000E-01  7.521604000000E-01
  53   6     3.927986700000E-01  9.466631600000E-01  2.522794700000E-01
  54   6     4.696452300000E-01  1.003718900000E-01  7.522794800000E-01
  55   6     4.462875800000E-01  5.360286000000E-02  2.519222600000E-01
  56   6     5.231341400000E-01  2.073115900000E-01  7.519222600000E-01
  57   6     5.537168500000E-01  9.466235600000E-01  2.528408200000E-01
  58   6     6.305634100000E-01  1.003322900000E-01  7.528408200000E-01
  59   6     4.459279100000E-01  8.919920600000E-01  2.519052300000E-01
  60   6     5.227744700000E-01  4.570079000000E-02  7.519052300000E-01
  61   6     5.540448700000E-01  4.458745500000E-01  2.492175200000E-01
  62   6     6.308914300000E-01  5.995832800000E-01  7.492175200000E-01
  63   6     6.072102200000E-01  5.536257800000E-01  2.478396400000E-01
  64   6     6.840567800000E-01  7.073345100000E-01  7.478396400000E-01
  65   6     3.928233700000E-01  4.461720300000E-01  2.477205500000E-01
  66   6     4.696699300000E-01  5.998807600000E-01  7.477205500000E-01
  67   6     4.462872600000E-01  3.926899900000E-01  2.480777700000E-01
  68   6     5.231338200000E-01  5.463987200000E-01  7.480777700000E-01
  69   6     5.537429600000E-01  6.070980000000E-01  2.471592200000E-01
  70   6     6.305895200000E-01  7.608067300000E-01  7.471592200000E-01
  71   6     4.459599800000E-01  5.539582300000E-01  2.480948000000E-01
  72   6     5.228065400000E-01  7.076669600000E-01  7.480948000000E-01
  73   8     5.607366800000E-01  2.803706300000E-01  2.496427900000E-01
  74   8     6.375832400000E-01  4.340793600000E-01  7.496427900000E-01
  75   8     7.196817000000E-01  2.803783300000E-01  2.525856600000E-01
  76   8     7.965282600000E-01  4.340870600000E-01  7.525856600000E-01
  77   8     7.196794200000E-01  4.393234600000E-01  2.481458500000E-01
  78   8     7.965259800000E-01  5.930321900000E-01  7.481458500000E-01
  79   8     2.803245100000E-01  7.196511100000E-01  2.496428000000E-01
  80   8     3.571710700000E-01  8.733598400000E-01  7.496428000000E-01
  81   8     2.803439700000E-01  5.606956100000E-01  2.525856600000E-01
  82   8     3.571905300000E-01  7.144043400000E-01  7.525856600000E-01
  83   8     4.392638400000E-01  7.196354200000E-01  2.481458400000E-01
  84   8     5.161104000000E-01  8.733441500000E-01  7.481458400000E-01

 *******************************************************************************

 << INFORMATION >>: FROM NOW ON, ALL COORDINATES REFER TO THE PRIMITIVE CELL

 *******************************************************************************

 LATTICE PARAMETERS  (ANGSTROMS AND DEGREES) - PRIMITIVE CELL
       A          B          C        ALPHA      BETA     GAMMA        VOLUME
   15.02361   15.02392    7.20000    90.00032  89.99994 119.99596   1407.467146

 COORDINATES OF THE EQUIVALENT ATOMS (FRACTIONAL UNITS)

 N. ATOM EQUIV AT. N.          X                  Y                  Z

   1   1   1    5 B    -3.86319460000E-01  2.27318220000E-01  2.50663430000E-01

   2   2   1    5 B    -3.09472900000E-01  3.81026950000E-01 -2.49336570000E-01

   3   3   1    5 B    -2.27263800000E-01  3.86377880000E-01  2.50663440000E-01

   4   4   1    5 B    -1.50417240000E-01 -4.59913390000E-01 -2.49336550000E-01

   5   5   1    5 B    -3.86323730000E-01  3.86360670000E-01  2.49268560000E-01

   6   6   1    5 B    -3.09477170000E-01 -4.59930600000E-01 -2.50731440000E-01

   7   7   1    5 B     2.27255250000E-01 -3.86366780000E-01  2.50663440000E-01

   8   8   1    5 B     3.04101810000E-01 -2.32658050000E-01 -2.49336560000E-01

   9   9   1    5 B     3.86363220000E-01 -3.86387550000E-01  2.50663430000E-01

  10  10   1    5 B     4.63209780000E-01 -2.32678820000E-01 -2.49336570000E-01

  11  11   1    5 B     3.86343500000E-01 -2.27248350000E-01  2.49268560000E-01

  12  12   1    5 B     4.63190060000E-01 -7.35396200000E-02 -2.50731440000E-01

  13  13   1    1 H    -9.69563800000E-02  3.08930050000E-01  2.47771560000E-01

  14  14   1    1 H    -2.01098200000E-02  4.62638780000E-01 -2.52228440000E-01

  15  15   1    1 H     9.66345300000E-02 -3.08946560000E-01  2.47329340000E-01

  16  16   1    1 H     1.73481090000E-01 -1.55237830000E-01 -2.52670660000E-01

  17  17   1    1 H    -9.70285800000E-02 -4.05927570000E-01  2.47261280000E-01

  18  18   1    1 H    -2.01820200000E-02 -2.52218840000E-01 -2.52738720000E-01

  19  19   1    1 H     9.67361800000E-02  4.05684940000E-01  2.47278260000E-01

  20  20   1    1 H     1.73582740000E-01 -4.40606330000E-01 -2.52721740000E-01

  21  21   1    1 H    -3.08967600000E-01  9.70041200000E-02  2.52228460000E-01

  22  22   1    1 H    -2.32121040000E-01  2.50712850000E-01 -2.47771540000E-01

  23  23   1    1 H     3.08929720000E-01 -9.65626900000E-02  2.52670710000E-01

  24  24   1    1 H     3.85776280000E-01  5.71460400000E-02 -2.47329290000E-01

  25  25   1    1 H     4.05869990000E-01  9.70499800000E-02  2.52738810000E-01

  26  26   1    1 H     4.82716550000E-01  2.50758710000E-01 -2.47261190000E-01

  27  27   1    1 H    -4.05687790000E-01 -9.66526800000E-02  2.52721720000E-01

  28  28   1    1 H    -3.28841230000E-01  5.70560500000E-02 -2.47278280000E-01

  29  29   1    1 H    -3.08927260000E-01 -4.05945790000E-01  2.47771590000E-01

  30  30   1    1 H    -2.32080700000E-01 -2.52237060000E-01 -2.52228410000E-01

  31  31   1    1 H     3.08961830000E-01  4.05609330000E-01  2.47329320000E-01

  32  32   1    1 H     3.85808390000E-01 -4.40681940000E-01 -2.52670680000E-01

  33  33   1    1 H     4.05840570000E-01  3.08823250000E-01  2.47261230000E-01

  34  34   1    1 H     4.82687130000E-01  4.62531980000E-01 -2.52738770000E-01

  35  35   1    1 H    -4.05709120000E-01 -3.09042070000E-01  2.47278310000E-01

  36  36   1    1 H    -3.28862560000E-01 -1.55333340000E-01 -2.52721690000E-01

  37  37   1    6 C    -1.08109690000E-01  4.45943690000E-01  2.49217520000E-01

  38  38   1    6 C    -3.12631300000E-02 -4.00347580000E-01 -2.50782480000E-01

  39  39   1    6 C    -5.35108900000E-02  3.92785630000E-01  2.47839610000E-01

  40  40   1    6 C     2.33356700000E-02 -4.53505640000E-01 -2.52160390000E-01

  41  41   1    6 C     5.33881200000E-02 -3.92814700000E-01  2.47720580000E-01

  42  42   1    6 C     1.30234680000E-01 -2.39105970000E-01 -2.52279420000E-01

  43  43   1    6 C    -5.35478900000E-02 -4.46307810000E-01  2.48077810000E-01

  44  44   1    6 C     2.32986700000E-02 -2.92599080000E-01 -2.51922190000E-01

  45  45   1    6 C     5.34263400000E-02  4.46249970000E-01  2.47159180000E-01

  46  46   1    6 C     1.30272900000E-01 -4.00041300000E-01 -2.52840820000E-01

  47  47   1    6 C     1.08035890000E-01 -4.45964370000E-01  2.48094800000E-01

  48  48   1    6 C     1.84882450000E-01 -2.92255640000E-01 -2.51905200000E-01

  49  49   1    6 C    -4.45960580000E-01  1.08168460000E-01  2.50782520000E-01

  50  50   1    6 C    -3.69114020000E-01  2.61877190000E-01 -2.49217480000E-01

  51  51   1    6 C    -3.92822150000E-01  5.35559400000E-02  2.52160400000E-01

  52  52   1    6 C    -3.15975590000E-01  2.07264670000E-01 -2.47839600000E-01

  53  53   1    6 C     3.92798670000E-01 -5.33368400000E-02  2.52279470000E-01

  54  54   1    6 C     4.69645230000E-01  1.00371890000E-01 -2.47720520000E-01

  55  55   1    6 C     4.46287580000E-01  5.36028600000E-02  2.51922260000E-01

  56  56   1    6 C    -4.76865860000E-01  2.07311590000E-01 -2.48077740000E-01

  57  57   1    6 C    -4.46283150000E-01 -5.33764400000E-02  2.52840820000E-01

  58  58   1    6 C    -3.69436590000E-01  1.00332290000E-01 -2.47159180000E-01

  59  59   1    6 C     4.45927910000E-01 -1.08007940000E-01  2.51905230000E-01

  60  60   1    6 C    -4.77225530000E-01  4.57007900000E-02 -2.48094770000E-01

  61  61   1    6 C    -4.45955130000E-01  4.45874550000E-01  2.49217520000E-01

  62  62   1    6 C    -3.69108570000E-01 -4.00416720000E-01 -2.50782480000E-01

  63  63   1    6 C    -3.92789780000E-01 -4.46374220000E-01  2.47839640000E-01

  64  64   1    6 C    -3.15943220000E-01 -2.92665490000E-01 -2.52160360000E-01

  65  65   1    6 C     3.92823370000E-01  4.46172030000E-01  2.47720550000E-01

  66  66   1    6 C     4.69669930000E-01 -4.00119240000E-01 -2.52279450000E-01

  67  67   1    6 C     4.46287260000E-01  3.92689990000E-01  2.48077770000E-01

  68  68   1    6 C    -4.76866180000E-01 -4.53601280000E-01 -2.51922230000E-01

  69  69   1    6 C    -4.46257040000E-01 -3.92902000000E-01  2.47159220000E-01

  70  70   1    6 C    -3.69410480000E-01 -2.39193270000E-01 -2.52840780000E-01

  71  71   1    6 C     4.45959980000E-01 -4.46041770000E-01  2.48094800000E-01

  72  72   1    6 C    -4.77193460000E-01 -2.92333040000E-01 -2.51905200000E-01

  73  73   1    8 O    -4.39263320000E-01  2.80370630000E-01  2.49642790000E-01

  74  74   1    8 O    -3.62416760000E-01  4.34079360000E-01 -2.50357210000E-01

  75  75   1    8 O    -2.80318300000E-01  2.80378330000E-01  2.52585660000E-01

  76  76   1    8 O    -2.03471740000E-01  4.34087060000E-01 -2.47414340000E-01

  77  77   1    8 O    -2.80320580000E-01  4.39323460000E-01  2.48145850000E-01

  78  78   1    8 O    -2.03474020000E-01 -4.06967810000E-01 -2.51854150000E-01

  79  79   1    8 O     2.80324510000E-01 -2.80348890000E-01  2.49642800000E-01

  80  80   1    8 O     3.57171070000E-01 -1.26640160000E-01 -2.50357200000E-01

  81  81   1    8 O     2.80343970000E-01 -4.39304390000E-01  2.52585660000E-01

  82  82   1    8 O     3.57190530000E-01 -2.85595660000E-01 -2.47414340000E-01

  83  83   1    8 O     4.39263840000E-01 -2.80364580000E-01  2.48145840000E-01

  84  84   1    8 O    -4.83889600000E-01 -1.26655850000E-01 -2.51854160000E-01

 NUMBER OF SYMMETRY OPERATORS         :    1
 *******************************************************************************
 * GEOMETRY EDITING - INPUT COORDINATES ARE GIVEN IN ANGSTROM         
 *******************************************************************************

 GCALCO - MAX INDICES DIRECT LATTICE VECTOR    12    12    21
 NO.OF VECTORS CREATED 6999 STARS 3500 RMAX   251.34433 BOHR

 GEOMETRY FOR WAVE FUNCTION - DIMENSIONALITY OF THE SYSTEM    3
 (NON PERIODIC DIRECTION: LATTICE PARAMETER FORMALLY SET TO 500)
 *******************************************************************************
 LATTICE PARAMETERS (ANGSTROMS AND DEGREES) - BOHR = 0.5291772083 ANGSTROM
 PRIMITIVE CELL - CENTRING CODE 1/0 VOLUME=  1407.467146 - DENSITY  0.921 g/cm^3
         A              B              C           ALPHA      BETA       GAMMA 
    15.02361100    15.02391600     7.20000000    90.000323  89.999944 119.995964
 *******************************************************************************
 ATOMS IN THE ASYMMETRIC UNIT   84 - ATOMS IN THE UNIT CELL:   84
     ATOM                 X/A                 Y/B                 Z/C    
 *******************************************************************************
      1 T   5 B    -3.863194600000E-01  2.273182200000E-01  2.506634300000E-01
      2 T   5 B    -3.094729000000E-01  3.810269500000E-01 -2.493365700000E-01
      3 T   5 B    -2.272638000000E-01  3.863778800000E-01  2.506634400000E-01
      4 T   5 B    -1.504172400000E-01 -4.599133900000E-01 -2.493365500000E-01
      5 T   5 B    -3.863237300000E-01  3.863606700000E-01  2.492685600000E-01
      6 T   5 B    -3.094771700000E-01 -4.599306000000E-01 -2.507314400000E-01
      7 T   5 B     2.272552500000E-01 -3.863667800000E-01  2.506634400000E-01
      8 T   5 B     3.041018100000E-01 -2.326580500000E-01 -2.493365600000E-01
      9 T   5 B     3.863632200000E-01 -3.863875500000E-01  2.506634300000E-01
     10 T   5 B     4.632097800000E-01 -2.326788200000E-01 -2.493365700000E-01
     11 T   5 B     3.863435000000E-01 -2.272483500000E-01  2.492685600000E-01
     12 T   5 B     4.631900600000E-01 -7.353962000000E-02 -2.507314400000E-01
     13 T   1 H    -9.695638000000E-02  3.089300500000E-01  2.477715600000E-01
     14 T   1 H    -2.010982000000E-02  4.626387800000E-01 -2.522284400000E-01
     15 T   1 H     9.663453000000E-02 -3.089465600000E-01  2.473293400000E-01
     16 T   1 H     1.734810900000E-01 -1.552378300000E-01 -2.526706600000E-01
     17 T   1 H    -9.702858000000E-02 -4.059275700000E-01  2.472612800000E-01
     18 T   1 H    -2.018202000000E-02 -2.522188400000E-01 -2.527387200000E-01
     19 T   1 H     9.673618000000E-02  4.056849400000E-01  2.472782600000E-01
     20 T   1 H     1.735827400000E-01 -4.406063300000E-01 -2.527217400000E-01
     21 T   1 H    -3.089676000000E-01  9.700412000000E-02  2.522284600000E-01
     22 T   1 H    -2.321210400000E-01  2.507128500000E-01 -2.477715400000E-01
     23 T   1 H     3.089297200000E-01 -9.656269000000E-02  2.526707100000E-01
     24 T   1 H     3.857762800000E-01  5.714604000000E-02 -2.473292900000E-01
     25 T   1 H     4.058699900000E-01  9.704998000000E-02  2.527388100000E-01
     26 T   1 H     4.827165500000E-01  2.507587100000E-01 -2.472611900000E-01
     27 T   1 H    -4.056877900000E-01 -9.665268000000E-02  2.527217200000E-01
     28 T   1 H    -3.288412300000E-01  5.705605000000E-02 -2.472782800000E-01
     29 T   1 H    -3.089272600000E-01 -4.059457900000E-01  2.477715900000E-01
     30 T   1 H    -2.320807000000E-01 -2.522370600000E-01 -2.522284100000E-01
     31 T   1 H     3.089618300000E-01  4.056093300000E-01  2.473293200000E-01
     32 T   1 H     3.858083900000E-01 -4.406819400000E-01 -2.526706800000E-01
     33 T   1 H     4.058405700000E-01  3.088232500000E-01  2.472612300000E-01
     34 T   1 H     4.826871300000E-01  4.625319800000E-01 -2.527387700000E-01
     35 T   1 H    -4.057091200000E-01 -3.090420700000E-01  2.472783100000E-01
     36 T   1 H    -3.288625600000E-01 -1.553333400000E-01 -2.527216900000E-01
     37 T   6 C    -1.081096900000E-01  4.459436900000E-01  2.492175200000E-01
     38 T   6 C    -3.126313000000E-02 -4.003475800000E-01 -2.507824800000E-01
     39 T   6 C    -5.351089000000E-02  3.927856300000E-01  2.478396100000E-01
     40 T   6 C     2.333567000000E-02 -4.535056400000E-01 -2.521603900000E-01
     41 T   6 C     5.338812000000E-02 -3.928147000000E-01  2.477205800000E-01
     42 T   6 C     1.302346800000E-01 -2.391059700000E-01 -2.522794200000E-01
     43 T   6 C    -5.354789000000E-02 -4.463078100000E-01  2.480778100000E-01
     44 T   6 C     2.329867000000E-02 -2.925990800000E-01 -2.519221900000E-01
     45 T   6 C     5.342634000000E-02  4.462499700000E-01  2.471591800000E-01
     46 T   6 C     1.302729000000E-01 -4.000413000000E-01 -2.528408200000E-01
     47 T   6 C     1.080358900000E-01 -4.459643700000E-01  2.480948000000E-01
     48 T   6 C     1.848824500000E-01 -2.922556400000E-01 -2.519052000000E-01
     49 T   6 C    -4.459605800000E-01  1.081684600000E-01  2.507825200000E-01
     50 T   6 C    -3.691140200000E-01  2.618771900000E-01 -2.492174800000E-01
     51 T   6 C    -3.928221500000E-01  5.355594000000E-02  2.521604000000E-01
     52 T   6 C    -3.159755900000E-01  2.072646700000E-01 -2.478396000000E-01
     53 T   6 C     3.927986700000E-01 -5.333684000000E-02  2.522794700000E-01
     54 T   6 C     4.696452300000E-01  1.003718900000E-01 -2.477205200000E-01
     55 T   6 C     4.462875800000E-01  5.360286000000E-02  2.519222600000E-01
     56 T   6 C    -4.768658600000E-01  2.073115900000E-01 -2.480777400000E-01
     57 T   6 C    -4.462831500000E-01 -5.337644000000E-02  2.528408200000E-01
     58 T   6 C    -3.694365900000E-01  1.003322900000E-01 -2.471591800000E-01
     59 T   6 C     4.459279100000E-01 -1.080079400000E-01  2.519052300000E-01
     60 T   6 C    -4.772255300000E-01  4.570079000000E-02 -2.480947700000E-01
     61 T   6 C    -4.459551300000E-01  4.458745500000E-01  2.492175200000E-01
     62 T   6 C    -3.691085700000E-01 -4.004167200000E-01 -2.507824800000E-01
     63 T   6 C    -3.927897800000E-01 -4.463742200000E-01  2.478396400000E-01
     64 T   6 C    -3.159432200000E-01 -2.926654900000E-01 -2.521603600000E-01
     65 T   6 C     3.928233700000E-01  4.461720300000E-01  2.477205500000E-01
     66 T   6 C     4.696699300000E-01 -4.001192400000E-01 -2.522794500000E-01
     67 T   6 C     4.462872600000E-01  3.926899900000E-01  2.480777700000E-01
     68 T   6 C    -4.768661800000E-01 -4.536012800000E-01 -2.519222300000E-01
     69 T   6 C    -4.462570400000E-01 -3.929020000000E-01  2.471592200000E-01
     70 T   6 C    -3.694104800000E-01 -2.391932700000E-01 -2.528407800000E-01
     71 T   6 C     4.459599800000E-01 -4.460417700000E-01  2.480948000000E-01
     72 T   6 C    -4.771934600000E-01 -2.923330400000E-01 -2.519052000000E-01
     73 T   8 O    -4.392633200000E-01  2.803706300000E-01  2.496427900000E-01
     74 T   8 O    -3.624167600000E-01  4.340793600000E-01 -2.503572100000E-01
     75 T   8 O    -2.803183000000E-01  2.803783300000E-01  2.525856600000E-01
     76 T   8 O    -2.034717400000E-01  4.340870600000E-01 -2.474143400000E-01
     77 T   8 O    -2.803205800000E-01  4.393234600000E-01  2.481458500000E-01
     78 T   8 O    -2.034740200000E-01 -4.069678100000E-01 -2.518541500000E-01
     79 T   8 O     2.803245100000E-01 -2.803488900000E-01  2.496428000000E-01
     80 T   8 O     3.571710700000E-01 -1.266401600000E-01 -2.503572000000E-01
     81 T   8 O     2.803439700000E-01 -4.393043900000E-01  2.525856600000E-01
     82 T   8 O     3.571905300000E-01 -2.855956600000E-01 -2.474143400000E-01
     83 T   8 O     4.392638400000E-01 -2.803645800000E-01  2.481458400000E-01
     84 T   8 O    -4.838896000000E-01 -1.266558500000E-01 -2.518541600000E-01

 T = ATOM BELONGING TO THE ASYMMETRIC UNIT

 ****    1 SYMMOPS - TRANSLATORS IN FRACTIONAL UNITS
 **** MATRICES AND TRANSLATORS IN THE CRYSTALLOGRAPHIC REFERENCE FRAME
   V INV                    ROTATION MATRICES                   TRANSLATORS
   1   1  1.00 -0.00  0.00  0.00  1.00  0.00  0.00  0.00  1.00  0.00  0.00  0.00

 DIRECT LATTICE VECTORS CARTESIAN COMPONENTS (ANGSTROM)
          X                    Y                    Z
   0.130113578931E+02  -0.751088897922E+01   0.000000000000E+00
   0.000000000000E+00   0.150239160000E+02   0.000000000000E+00
  -0.153049849927E-04  -0.405893770827E-04   0.719999999987E+01


 CARTESIAN COORDINATES - PRIMITIVE CELL
 *******************************************************************************
 *      ATOM          X(ANGSTROM)         Y(ANGSTROM)         Z(ANGSTROM)
 *******************************************************************************
    1     5 B    -5.026544591512E+00  6.316802242848E+00  1.804776695967E+00
    2     5 B    -4.026658844010E+00 -6.974972395072E+00 -1.795223303967E+00
    3     5 B    -2.957014474336E+00  7.511851809900E+00  1.804776767967E+00
    4     5 B    -1.957128726834E+00 -5.779922828020E+00 -1.795223159967E+00
    5     5 B    -5.026600128662E+00 -6.317641219805E+00  1.794733631967E+00
    6     5 B    -4.026714381159E+00 -4.585499857725E+00 -1.805266367967E+00
    7     5 B     2.956895554426E+00 -7.511641174877E+00  1.804776767967E+00
    8     5 B     3.956781301929E+00 -5.779499812797E+00 -1.795223231967E+00
    9     5 B     5.027106295734E+00  6.316920480009E+00  1.804776695967E+00
   10     5 B    -6.984365849820E+00  5.360348213061E-01 -1.795223303967E+00
   11     5 B     5.026849733105E+00 -6.315953375536E+00  1.794733631967E+00
   12     5 B     6.026735480607E+00 -4.583812013456E+00 -1.805266367967E+00
   13     1 H    -1.261537952335E+00  5.369557670189E+00  1.783955231968E+00
   14     1 H    -2.616522048325E-01  7.101699032270E+00 -1.816044767967E+00
   15     1 H     1.257342669285E+00 -5.367408431262E+00  1.780771247968E+00
   16     1 H     2.257228416788E+00 -3.635267069181E+00 -1.819228751967E+00
   17     1 H    -1.262477364565E+00 -5.369860857754E+00  1.780281215968E+00
   18     1 H    -2.625916170625E-01 -3.637719495674E+00 -1.819718783967E+00
   19     1 H     1.258665274597E+00  5.368391715901E+00  1.780403471968E+00
   20     1 H     2.258551022100E+00  7.100533077982E+00 -1.819596527967E+00
   21     1 H    -4.020091881312E+00  3.777992854513E+00  1.816044911967E+00
   22     1 H    -3.020206133809E+00  5.510134216593E+00 -1.783955087968E+00
   23     1 H     4.019591283600E+00 -3.771096828341E+00  1.819229111967E+00
   24     1 H     5.019477031103E+00 -2.038955466261E+00 -1.780770887968E+00
   25     1 H     5.280915829778E+00 -1.590383946075E+00  1.819719431967E+00
   26     1 H     6.280801577280E+00  1.417574160056E-01 -1.780280567968E+00
   27     1 H    -5.278552896435E+00  1.594963947602E+00  1.819596383967E+00
   28     1 H    -4.278667148933E+00  3.327105309682E+00 -1.780403615968E+00
   29     1 H    -4.019566934922E+00 -3.778587153895E+00  1.783955447968E+00
   30     1 H    -3.019681187419E+00 -2.046445791814E+00 -1.816044551967E+00
   31     1 H     4.020009160052E+00  3.773252459848E+00  1.780771103968E+00
   32     1 H     5.019894907555E+00  5.505393821928E+00 -1.819228895967E+00
   33     1 H     5.280533119463E+00  1.591501066136E+00  1.780280855968E+00
   34     1 H     6.280418866965E+00  3.323642428216E+00 -1.819719143967E+00
   35     1 H    -5.278830345388E+00 -1.595795978843E+00  1.780403831968E+00
   36     1 H    -4.278944597885E+00  1.363453832374E-01 -1.819596167967E+00
   37     6 C    -1.406657682568E+00  7.511810302874E+00  1.794366143967E+00
   38     6 C    -4.067719350651E-01 -5.779964335046E+00 -1.805633855967E+00
   39     6 C    -6.962531341475E-01  6.303082605441E+00  1.784445191968E+00
   40     6 C     3.036326133552E-01 -6.988692032479E+00 -1.815554807967E+00
   41     6 C     6.946481451977E-01 -6.302617353318E+00  1.783588175968E+00
   42     6 C     1.694533892700E+00 -4.570475991238E+00 -1.816411823967E+00
   43     6 C    -6.967345580352E-01 -6.303108860046E+00  1.786160231968E+00
   44     6 C     3.031511894676E-01 -4.570967497966E+00 -1.813839767967E+00
   45     6 C     6.951454478886E-01  6.303132723939E+00  1.779546095968E+00
   46     6 C     1.695031195391E+00 -6.988641913980E+00 -1.820453903967E+00
   47     6 C     1.405689832998E+00 -7.511586879447E+00  1.786282559968E+00
   48     6 C     2.405575580500E+00 -5.779445517367E+00 -1.813717439967E+00
   49     6 C     7.208801342259E+00 -2.536224895946E+00  1.805634143967E+00
   50     6 C     8.208687089762E+00 -8.040835338659E-01 -1.794365855967E+00
   51     6 C    -5.111153441281E+00  3.755053266055E+00  1.815554879967E+00
   52     6 C    -4.111267693778E+00  5.487194628135E+00 -1.784445119968E+00
   53     6 C     5.110840214153E+00 -3.751605645286E+00  1.816412183967E+00
   54     6 C     6.110725961656E+00 -2.019464283206E+00 -1.783587743968E+00
   55     6 C     5.806803570940E+00 -2.546701825551E+00  1.813840271967E+00
   56     6 C     6.806689318442E+00 -8.145604634705E-01 -1.786159727968E+00
   57     6 C    -5.806753656016E+00  2.550049779355E+00  1.820453903967E+00
   58     6 C    -4.806867908513E+00  4.282191141435E+00 -1.779546095968E+00
   59     6 C     5.802123776107E+00 -4.972027467313E+00  1.813717655967E+00
   60     6 C     6.802009523610E+00 -3.239886105233E+00 -1.786282343968E+00
   61     6 C     7.208872278112E+00  2.537402162079E+00  1.794366143967E+00
   62     6 C    -4.802599867442E+00 -3.243483496624E+00 -1.805633855967E+00
   63     6 C    -5.110732197497E+00 -3.756098415751E+00  1.784445407968E+00
   64     6 C    -4.110846449994E+00 -2.023957053671E+00 -1.815554591967E+00
   65     6 C     5.111161664467E+00  3.752788324935E+00  1.783587959968E+00
   66     6 C    -6.900310481087E+00 -2.028097333768E+00 -1.816412039967E+00
   67     6 C     5.806799466145E+00  2.547717291780E+00  1.786159943968E+00
   68     6 C    -6.204672679409E+00 -3.233168366923E+00 -1.813840055967E+00
   69     6 C    -5.806413842504E+00 -2.551149592637E+00  1.779546383968E+00
   70     6 C    -4.806528095001E+00 -8.190082305565E-01 -1.820453615967E+00
   71     6 C     5.802541108673E+00  4.973055946062E+00  1.786282559968E+00
   72     6 C    -6.208931036881E+00 -8.078297126413E-01 -1.813717439967E+00
   73     8 O     7.295941806465E+00  6.237110873148E-04  1.797428087967E+00
   74     8 O    -4.715530339089E+00 -5.780261947616E+00 -1.802571911967E+00
   75     8 O    -3.647325591093E+00  6.317809855988E+00  1.818616751967E+00
   76     8 O    -2.647439843590E+00 -6.973964781931E+00 -1.781383247968E+00
   77     8 O    -3.647355189038E+00 -6.318110557247E+00  1.786650119968E+00
   78     8 O    -2.647469441535E+00 -4.585969195166E+00 -1.813349879967E+00
   79     8 O     3.647398705026E+00 -6.317434579662E+00  1.797428159967E+00
   80     8 O     4.647284452529E+00 -4.585293217582E+00 -1.802571839967E+00
   81     8 O     3.647651861011E+00  6.318201059251E+00  1.818616751967E+00
   82     8 O     4.647537608513E+00 -6.973573578668E+00 -1.781383247968E+00
   83     8 O    -7.295942659207E+00 -5.569269881935E-04  1.786650047968E+00
   84     8 O    -6.296056911704E+00  1.731584435092E+00 -1.813349951967E+00

 *******************************************************************************
 STARTING BASIS SET HANDLING 
 *******************************************************************************

 Loading internal basis set: SOLDEF2MSVP         

 Please cite in your publication:
 L. Dona', J. G. Brandenburg and B. Civalleri, J. Chem. Phys., 151, 121101 (2019
 )                                                                              
                                                                                
                    

 *******************************************************************************
 LOCAL ATOMIC FUNCTIONS BASIS SET
 *******************************************************************************
   ATOM   X(AU)   Y(AU)   Z(AU)  N. TYPE  EXPONENT  S COEF   P COEF   D/F/G COEF
 *******************************************************************************
   1 B   -9.499  11.937   3.411
                                  1 S  
                                         2.410E+03 1.755E-03 0.000E+00 0.000E+00
                                         3.619E+02 1.344E-02 0.000E+00 0.000E+00
                                         8.231E+01 6.637E-02 0.000E+00 0.000E+00
                                         2.311E+01 2.303E-01 0.000E+00 0.000E+00
                                         7.252E+00 5.150E-01 0.000E+00 0.000E+00
                                  2 S  
                                         2.367E+00 1.000E+00 0.000E+00 0.000E+00
                                  3 S  
                                         5.533E-01 1.000E+00 0.000E+00 0.000E+00
                                  4 S  
                                         1.716E-01 1.000E+00 0.000E+00 0.000E+00
                           5-     7 P  
                                         6.002E+00 0.000E+00-3.555E-02 0.000E+00
                                         1.240E+00 0.000E+00-1.983E-01 0.000E+00
                                         3.367E-01 0.000E+00-5.048E-01 0.000E+00
                           8-    10 P  
                                         1.256E-01 0.000E+00 1.000E+00 0.000E+00
                          11-    15 D  
                                         8.880E-01 0.000E+00 0.000E+00 1.000E+00
   2 B   -7.609 -13.181  -3.392
   3 B   -5.588  14.195   3.411
   4 B   -3.698 -10.922  -3.392
   5 B   -9.499 -11.939   3.392
   6 B   -7.609  -8.665  -3.411
   7 B    5.588 -14.195   3.411
   8 B    7.477 -10.922  -3.392
   9 B    9.500  11.937   3.411
  10 B  -13.199   1.013  -3.392
  11 B    9.499 -11.935   3.392
  12 B   11.389  -8.662  -3.411
  13 H   -2.384  10.147   3.371
                                181 S  
                                         1.874E+01 1.968E-02 0.000E+00 0.000E+00
                                         2.826E+00 1.380E-01 0.000E+00 0.000E+00
                                         6.401E-01 4.783E-01 0.000E+00 0.000E+00
                                182 S  
                                         1.756E-01 1.000E+00 0.000E+00 0.000E+00
  14 H   -0.494  13.420  -3.432
  15 H    2.376 -10.143   3.365
  16 H    4.266  -6.870  -3.438
  17 H   -2.386 -10.148   3.364
  18 H   -0.496  -6.874  -3.439
  19 H    2.379  10.145   3.364
  20 H    4.268  13.418  -3.439
  21 H   -7.597   7.139   3.432
  22 H   -5.707  10.413  -3.371
  23 H    7.596  -7.126   3.438
  24 H    9.485  -3.853  -3.365
  25 H    9.979  -3.005   3.439
  26 H   11.869   0.268  -3.364
  27 H   -9.975   3.014   3.439
  28 H   -8.086   6.287  -3.364
  29 H   -7.596  -7.140   3.371
  30 H   -5.706  -3.867  -3.432
  31 H    7.597   7.130   3.365
  32 H    9.486  10.404  -3.438
  33 H    9.979   3.008   3.364
  34 H   11.868   6.281  -3.439
  35 H   -9.976  -3.016   3.364
  36 H   -8.086   0.258  -3.439
  37 C   -2.658  14.195   3.391
                                229 S  
                                         3.624E+03 1.634E-03 0.000E+00 0.000E+00
                                         5.440E+02 1.252E-02 0.000E+00 0.000E+00
                                         1.237E+02 6.211E-02 0.000E+00 0.000E+00
                                         3.476E+01 2.182E-01 0.000E+00 0.000E+00
                                         1.093E+01 4.980E-01 0.000E+00 0.000E+00
                                230 S  
                                         3.574E+00 1.000E+00 0.000E+00 0.000E+00
                                231 S  
                                         7.742E-01 1.000E+00 0.000E+00 0.000E+00
                                232 S  
                                         2.330E-01 1.000E+00 0.000E+00 0.000E+00
                         233-   235 P  
                                         9.443E+00 0.000E+00 3.790E-02 0.000E+00
                                         2.002E+00 0.000E+00 2.082E-01 0.000E+00
                                         5.463E-01 0.000E+00 5.047E-01 0.000E+00
                         236-   238 P  
                                         1.820E-01 0.000E+00 1.000E+00 0.000E+00
                         239-   243 D  
                                         8.880E-01 0.000E+00 0.000E+00 1.000E+00
  38 C   -0.769 -10.923  -3.412
  39 C   -1.316  11.911   3.372
  40 C    0.574 -13.207  -3.431
  41 C    1.313 -11.910   3.370
  42 C    3.202  -8.637  -3.433
  43 C   -1.317 -11.911   3.375
  44 C    0.573  -8.638  -3.428
  45 C    1.314  11.911   3.363
  46 C    3.203 -13.207  -3.440
  47 C    2.656 -14.195   3.376
  48 C    4.546 -10.922  -3.427
  49 C   13.623  -4.793   3.412
  50 C   15.512  -1.519  -3.391
  51 C   -9.659   7.096   3.431
  52 C   -7.769  10.369  -3.372
  53 C    9.658  -7.090   3.433
  54 C   11.548  -3.816  -3.370
  55 C   10.973  -4.813   3.428
  56 C   12.863  -1.539  -3.375
  57 C  -10.973   4.819   3.440
  58 C   -9.084   8.092  -3.363
  59 C   10.964  -9.396   3.427
  60 C   12.854  -6.122  -3.376
  61 C   13.623   4.795   3.391
  62 C   -9.076  -6.129  -3.412
  63 C   -9.658  -7.098   3.372
  64 C   -7.768  -3.825  -3.431
  65 C    9.659   7.092   3.370
  66 C  -13.040  -3.833  -3.433
  67 C   10.973   4.814   3.375
  68 C  -11.725  -6.110  -3.428
  69 C  -10.973  -4.821   3.363
  70 C   -9.083  -1.548  -3.440
  71 C   10.965   9.398   3.376
  72 C  -11.733  -1.527  -3.427
  73 O   13.787   0.001   3.397
                                769 S  
                                         6.773E+03 1.727E-03 0.000E+00 0.000E+00
                                         1.017E+03 1.325E-02 0.000E+00 0.000E+00
                                         2.313E+02 6.603E-02 0.000E+00 0.000E+00
                                         6.501E+01 2.353E-01 0.000E+00 0.000E+00
                                         2.050E+01 5.498E-01 0.000E+00 0.000E+00
                                770 S  
                                         6.716E+00 1.000E+00 0.000E+00 0.000E+00
                                771 S  
                                         1.147E+00 1.000E+00 0.000E+00 0.000E+00
                                772 S  
                                         3.342E-01 1.000E+00 0.000E+00 0.000E+00
                         773-   775 P  
                                         1.769E+01 0.000E+00 4.359E-02 0.000E+00
                                         3.854E+00 0.000E+00 2.318E-01 0.000E+00
                                         1.047E+00 0.000E+00 5.146E-01 0.000E+00
                         776-   778 P  
                                         2.759E-01 0.000E+00 1.000E+00 0.000E+00
                         779-   783 D  
                                         8.000E-01 0.000E+00 0.000E+00 1.000E+00
  74 O   -8.911 -10.923  -3.406
  75 O   -6.892  11.939   3.437
  76 O   -5.003 -13.179  -3.366
  77 O   -6.893 -11.939   3.376
  78 O   -5.003  -8.666  -3.427
  79 O    6.893 -11.938   3.397
  80 O    8.782  -8.665  -3.406
  81 O    6.893  11.940   3.437
  82 O    8.783 -13.178  -3.366
  83 O  -13.787  -0.001   3.376
  84 O  -11.898   3.272  -3.427

 *******************************************************************************
 FINISHED BASIS SET HANDLING 
 *******************************************************************************

 INFORMATION **** SET_MPP **** PCRYSTAL CALCULATION
 INFORMATION **** READM2 **** NEW DEFAULT: FOCK/KS MATRIX MIXING SET TO 30 %
 INFORMATION **** READM2 **** NEW DEFAULT: FULL DIRECT SCF MODE
 INFORMATION **** READM2 **** NEW DEFAULT: COULOMB BIPOLAR BUFFER SET TO 32 Mb
 INFORMATION **** READM2 **** NEW DEFAULT: EXCHANGE BIPOLAR BUFFER SET TO 32 Mb

 *******************************************************************************
 NEW DEFAULT: DFT INTEGRATION GRID INCREASED TO XLGRID
 NEW DEFAULT: DIIS ACCELERATOR ACTIVE
 USE KEYWORD NODIIS TO TURN IT OFF
 *******************************************************************************

 WARNING **** RDDFTP **** HSEsol-HJS ACTIVE
 RANGE SEPARATION - OMEGA:   0.110000000000000     
 WARNING **** RDDFTP **** HSEsol-3c has to be combined with sol-def2-mSVP basis set
 *******************************************************************************
 N. OF ATOMS PER CELL        84  COULOMB OVERLAP TOL         (T1) 10**   -6
 NUMBER OF SHELLS           468  COULOMB PENETRATION TOL     (T2) 10**   -6
 NUMBER OF AO               948  EXCHANGE OVERLAP TOL        (T3) 10**   -6
 N. OF ELECTRONS PER CELL   396  EXCHANGE PSEUDO OVP (F(G))  (T4) 10**   -6
 CORE ELECTRONS PER CELL    120  EXCHANGE PSEUDO OVP (P(G))  (T5) 10**  -12
 N. OF SYMMETRY OPERATORS     1  POLE ORDER IN MONO ZONE                  4
 *******************************************************************************
 TYPE OF CALCULATION :  RESTRICTED CLOSED SHELL
 KOHN-SHAM HAMILTONIAN

 (EXCHANGE)[CORRELATION] FUNCTIONAL:(HSEsol GGA)[PBEsol]

 RANGE-SEPARATED HYBRID FUNCTIONAL 
 OMEGA (SHORT-RANGE)[LONG-RANGE]:(    0.1100)[    0.0000]

 HYBRID EXCHANGE - PERCENTAGE OF FOCK EXCHANGE    25.0000

 CAPPA:IS1  2;IS2  2;IS3  8; K PTS MONK NET  20; SYMMOPS:K SPACE   2;G SPACE   1

 *******************************************************************************
 MAX NUMBER OF SCF CYCLES      50  CONVERGENCE ON DELTAP        10**-16
 WEIGHT OF F(I) IN F(I+1)      30% CONVERGENCE ON ENERGY        10**- 6
 SHRINK. FACT.(MONKH.)    2  2  8  NUMBER OF K POINTS IN THE IBZ     20
 SHRINKING FACTOR(GILAT NET)    8  NUMBER OF K POINTS(GILAT NET)   1028
 *******************************************************************************
 *** K POINTS COORDINATES (OBLIQUE COORDINATES IN UNITS OF IS =  2)
   1-R(  0  0  0)   2-R(  1  0  0)   3-R(  0  1  0)   4-R(  1  1  0)
   5-C(  0  0  1)   6-C(  1  0  1)   7-C(  0  1  1)   8-C(  1  1  1)
   9-C(  0  0  2)  10-C(  1  0  2)  11-C(  0  1  2)  12-C(  1  1  2)
  13-C(  0  0  3)  14-C(  1  0  3)  15-C(  0  1  3)  16-C(  1  1  3)
  17-R(  0  0  4)  18-R(  1  0  4)  19-R(  0  1  4)  20-R(  1  1  4)

 DIRECT LATTICE VECTORS COMPON. (A.U.)     RECIP. LATTICE VECTORS COMPON. (A.U.) 
        X            Y            Z              X            Y            Z
   24.5879030  -14.1935232    0.0000000      0.2555397    0.0000000    0.0000005
    0.0000000   28.3910867    0.0000000      0.1277517    0.2213084    0.0000015
   -0.0000289   -0.0000767   13.6060282      0.0000000    0.0000000    0.4617942

 DISK SPACE FOR EIGENVECTORS (FTN 10)    28758528 REALS

 SYMMETRY ADAPTION OF THE BLOCH FUNCTIONS DISABLED
 TTTTTTTTTTTTTTTTTTTTTTTTTTTTTT gordsh1     TELAPSE        0.05 TCPU        0.05

 MATRIX SIZE: P(G)  733916, F(G)  151703, P(G) IRR  369004, F(G) IRR  152735
 MAX G-VECTOR INDEX FOR 1- AND 2-ELECTRON INTEGRALS  65

 TTTTTTTTTTTTTTTTTTTTTTTTTTTTTT INPUT       TELAPSE        2.87 TCPU        2.87

 NEIGHBORS OF THE NON-EQUIVALENT ATOMS

 N = NUMBER OF NEIGHBORS AT DISTANCE R
    ATOM  N     R/ANG      R/AU   NEIGHBORS (ATOM LABELS AND CELL INDICES)
   1 B    1     1.3791     2.6061   73 O   -1 0 0
   1 B    1     1.3793     2.6065   75 O    0 0 0
   1 B    1     1.5503     2.9297   49 C   -1 0 0
   1 B    1     2.3895     4.5155    5 B    0 1 0
   1 B    1     2.3898     4.5160    3 B    0 0 0
   1 B    1     2.5632     4.8437   51 C    0 0 0

   2 B    1     1.3791     2.6061   74 O    0 0 0
   2 B    1     1.3793     2.6065   76 O    0 0 0
   2 B    1     1.5503     2.9297   50 C   -1-1 0
   2 B    1     2.3895     4.5155    6 B    0 0 0
   2 B    1     2.3898     4.5160    4 B    0 0 0
   2 B    1     2.5632     4.8437   52 C    0-1 0

   3 B    1     1.3793     2.6065   77 O    0 1 0
   3 B    1     1.3793     2.6065   75 O    0 0 0
   3 B    1     1.5504     2.9298   37 C    0 0 0
   3 B    1     2.3895     4.5156    5 B    0 1 0
   3 B    1     2.3898     4.5160    1 B    0 0 0
   3 B    1     2.5634     4.8440   43 C    0 1 0

   4 B    1     1.3793     2.6065   78 O    0 0 0
   4 B    1     1.3793     2.6065   76 O    0 0 0
   4 B    1     1.5504     2.9298   38 C    0 0 0
   4 B    1     2.3895     4.5156    6 B    0 0 0
   4 B    1     2.3898     4.5160    2 B    0 0 0
   4 B    1     2.5634     4.8440   44 C    0 0 0

   5 B    1     1.3791     2.6061   73 O   -1-1 0
   5 B    1     1.3793     2.6064   77 O    0 0 0
   5 B    1     1.5502     2.9294   61 C   -1-1 0
   5 B    1     2.3895     4.5155    1 B    0-1 0
   5 B    1     2.3895     4.5156    3 B    0-1 0
   5 B    1     2.5629     4.8433   63 C    0 0 0

   6 B    1     1.3791     2.6061   74 O    0 0 0
   6 B    1     1.3793     2.6064   78 O    0 0 0
   6 B    1     1.5502     2.9294   62 C    0 0 0
   6 B    1     2.3895     4.5155    2 B    0 0 0
   6 B    1     2.3895     4.5156    4 B    0 0 0
   6 B    1     2.5629     4.8433   64 C    0 0 0

   7 B    1     1.3795     2.6068   79 O    0 0 0
   7 B    1     1.3795     2.6070   81 O    0-1 0
   7 B    1     1.5513     2.9316   47 C    0 0 0
   7 B    1     2.3905     4.5174   11 B    0 0 0
   7 B    1     2.3905     4.5175    9 B    0-1 0
   7 B    1     2.5648     4.8468   45 C    0-1 0

   8 B    1     1.3795     2.6068   80 O    0 0 0
   8 B    1     1.3795     2.6070   82 O    0 0 0
   8 B    1     1.5513     2.9316   48 C    0 0 0
   8 B    1     2.3905     4.5174   12 B    0 0 0
   8 B    1     2.3905     4.5175   10 B    1 0 0
   8 B    1     2.5648     4.8468   46 C    0 0 0

   9 B    1     1.3795     2.6069   81 O    0 0 0
   9 B    1     1.3797     2.6072   83 O    1 1 0
   9 B    1     1.5516     2.9322   71 C    0 0 0
   9 B    1     2.3905     4.5175    7 B    0 1 0
   9 B    1     2.3911     4.5185   11 B    0 1 0
   9 B    1     2.5651     4.8473   69 C    1 1 0

  10 B    1     1.3795     2.6069   82 O   -1 0 0
  10 B    1     1.3797     2.6072   84 O    0 0 0
  10 B    1     1.5516     2.9322   72 C    0 0 0
  10 B    1     2.3905     4.5175    8 B   -1 0 0
  10 B    1     2.3911     4.5185   12 B   -1 0 0
  10 B    1     2.5651     4.8473   70 C    0 0 0

  11 B    1     1.3795     2.6068   79 O    0 0 0
  11 B    1     1.3796     2.6071   83 O    1 0 0
  11 B    1     1.5516     2.9322   59 C    0 0 0
  11 B    1     2.3905     4.5174    7 B    0 0 0
  11 B    1     2.3911     4.5185    9 B    0-1 0
  11 B    1     2.5651     4.8473   57 C    1 0 0

  12 B    1     1.3795     2.6068   80 O    0 0 0
  12 B    1     1.3796     2.6071   84 O    1 0 0
  12 B    1     1.5516     2.9322   60 C    0 0 0
  12 B    1     2.3905     4.5174    8 B    0 0 0
  12 B    1     2.3911     4.5185   10 B    1 0 0
  12 B    1     2.5651     4.8473   58 C    1 0 0

  13 H    1     1.0913     2.0623   39 C    0 0 0
  13 H    1     2.1472     4.0576   37 C    0 0 0
  13 H    1     2.1680     4.0969   45 C    0 0 0
  13 H    1     2.5202     4.7625   19 H    0 0 0
  13 H    1     2.5676     4.8520   75 O    0 0 0
  13 H    1     2.7321     5.1630    3 B    0 0 0

  14 H    1     1.0913     2.0623   40 C    0 1 0
  14 H    1     2.1472     4.0576   38 C    0 1 0
  14 H    1     2.1680     4.0969   46 C    0 1 0
  14 H    1     2.5202     4.7625   20 H    0 0 0
  14 H    1     2.5676     4.8520   76 O    0 1 0
  14 H    1     2.7321     5.1630    4 B    0 1 0

  15 H    1     1.0914     2.0625   41 C    0 0 0
  15 H    1     2.1493     4.0616   47 C    0 0 0
  15 H    1     2.1666     4.0942   43 C    0 0 0
  15 H    1     2.5198     4.7618   17 H    0 0 0
  15 H    1     2.5720     4.8604   79 O    0 0 0
  15 H    1     2.7362     5.1707    7 B    0 0 0

  16 H    1     1.0914     2.0625   42 C    0 0 0
  16 H    1     2.1493     4.0616   48 C    0 0 0
  16 H    1     2.1666     4.0942   44 C    0 0 0
  16 H    1     2.5198     4.7618   18 H    0 0 0
  16 H    1     2.5720     4.8604   80 O    0 0 0
  16 H    1     2.7362     5.1707    8 B    0 0 0

  17 H    1     1.0914     2.0624   43 C    0 0 0
  17 H    1     2.1471     4.0575   37 C    0-1 0
  17 H    1     2.1680     4.0970   41 C    0 0 0
  17 H    1     2.5198     4.7618   15 H    0 0 0
  17 H    1     2.5665     4.8500   77 O    0 0 0
  17 H    1     2.7315     5.1618    3 B    0-1 0

  18 H    1     1.0914     2.0624   44 C    0 0 0
  18 H    1     2.1471     4.0575   38 C    0 0 0
  18 H    1     2.1680     4.0970   42 C    0 0 0
  18 H    1     2.5198     4.7618   16 H    0 0 0
  18 H    1     2.5665     4.8500   78 O    0 0 0
  18 H    1     2.7315     5.1618    4 B    0 0 0

  19 H    1     1.0915     2.0626   45 C    0 0 0
  19 H    1     2.1490     4.0610   47 C    0 1 0
  19 H    1     2.1669     4.0948   39 C    0 0 0
  19 H    1     2.5202     4.7625   13 H    0 0 0
  19 H    1     2.5712     4.8588   81 O    0 0 0
  19 H    1     2.7351     5.1686    7 B    0 1 0

  20 H    1     1.0915     2.0626   46 C    0 1 0
  20 H    1     2.1490     4.0610   48 C    0 1 0
  20 H    1     2.1669     4.0948   40 C    0 1 0
  20 H    1     2.5202     4.7625   14 H    0 0 0
  20 H    1     2.5712     4.8588   82 O    0 1 0
  20 H    1     2.7351     5.1686    8 B    0 1 0

  21 H    1     1.0913     2.0623   51 C    0 0 0
  21 H    1     2.1469     4.0571   49 C   -1 0 0
  21 H    1     2.1680     4.0968   57 C    0 0 0
  21 H    1     2.5198     4.7617   27 H    0 0 0
  21 H    1     2.5670     4.8510   75 O    0 0 0
  21 H    1     2.7310     5.1609    1 B    0 0 0

  22 H    1     1.0913     2.0623   52 C    0 0 0
  22 H    1     2.1469     4.0571   50 C   -1 0 0
  22 H    1     2.1680     4.0968   58 C    0 0 0
  22 H    1     2.5198     4.7617   28 H    0 0 0
  22 H    1     2.5670     4.8510   76 O    0 1 0
  22 H    1     2.7310     5.1609    2 B    0 1 0

  23 H    1     1.0914     2.0625   53 C    0 0 0
  23 H    1     2.1493     4.0617   59 C    0 0 0
  23 H    1     2.1664     4.0939   55 C    0 0 0
  23 H    1     2.5192     4.7606   25 H    0 0 0
  23 H    1     2.5735     4.8632   79 O    0 0 0
  23 H    1     2.7371     5.1723   11 B    0 0 0

  24 H    1     1.0914     2.0625   54 C    0 0 0
  24 H    1     2.1493     4.0617   60 C    0 0 0
  24 H    1     2.1664     4.0939   56 C    0 0 0
  24 H    1     2.5192     4.7606   26 H    0 0 0
  24 H    1     2.5735     4.8632   80 O    0 0 0
  24 H    1     2.7371     5.1723   12 B    0 0 0

  25 H    1     1.0914     2.0624   55 C    0 0 0
  25 H    1     2.1475     4.0581   49 C    0 0 0
  25 H    1     2.1679     4.0967   53 C    0 0 0
  25 H    1     2.5192     4.7606   23 H    0 0 0
  25 H    1     2.5675     4.8519   73 O    0 0 0
  25 H    1     2.7328     5.1643    1 B    1 0 0

  26 H    1     1.0914     2.0624   56 C    0 0 0
  26 H    1     2.1475     4.0581   50 C    0 0 0
  26 H    1     2.1679     4.0967   54 C    0 0 0
  26 H    1     2.5192     4.7606   24 H    0 0 0
  26 H    1     2.5675     4.8519   74 O    1 1 0
  26 H    1     2.7328     5.1643    2 B    1 1 0

  27 H    1     1.0914     2.0625   57 C    0 0 0
  27 H    1     2.1491     4.0612   59 C   -1 0 0
  27 H    1     2.1666     4.0942   51 C    0 0 0
  27 H    1     2.5198     4.7617   21 H    0 0 0
  27 H    1     2.5723     4.8609   83 O    0 0 0
  27 H    1     2.7355     5.1693   11 B   -1 0 0

  28 H    1     1.0914     2.0625   58 C    0 0 0
  28 H    1     2.1491     4.0612   60 C   -1 0 0
  28 H    1     2.1666     4.0942   52 C    0 0 0
  28 H    1     2.5198     4.7617   22 H    0 0 0
  28 H    1     2.5723     4.8609   84 O    0 0 0
  28 H    1     2.7355     5.1693   12 B   -1 0 0

  29 H    1     1.0914     2.0624   63 C    0 0 0
  29 H    1     2.1475     4.0582   61 C   -1-1 0
  29 H    1     2.1678     4.0966   69 C    0 0 0
  29 H    1     2.5200     4.7621   35 H    0 0 0
  29 H    1     2.5667     4.8503   77 O    0 0 0
  29 H    1     2.7315     5.1618    5 B    0 0 0

  30 H    1     1.0914     2.0624   64 C    0 0 0
  30 H    1     2.1475     4.0582   62 C    0 0 0
  30 H    1     2.1678     4.0966   70 C    0 0 0
  30 H    1     2.5200     4.7621   36 H    0 0 0
  30 H    1     2.5667     4.8503   78 O    0 0 0
  30 H    1     2.7315     5.1618    6 B    0 0 0

  31 H    1     1.0913     2.0623   65 C    0 0 0
  31 H    1     2.1487     4.0605   71 C    0 0 0
  31 H    1     2.1667     4.0945   67 C    0 0 0
  31 H    1     2.5197     4.7616   33 H    0 0 0
  31 H    1     2.5723     4.8610   81 O    0 0 0
  31 H    1     2.7359     5.1701    9 B    0 0 0

  32 H    1     1.0913     2.0623   66 C    1 1 0
  32 H    1     2.1487     4.0605   72 C    1 1 0
  32 H    1     2.1667     4.0945   68 C    1 1 0
  32 H    1     2.5197     4.7616   34 H    0 0 0
  32 H    1     2.5723     4.8610   82 O    0 1 0
  32 H    1     2.7359     5.1701   10 B    1 1 0

  33 H    1     1.0915     2.0626   67 C    0 0 0
  33 H    1     2.1479     4.0589   61 C    0 0 0
  33 H    1     2.1679     4.0968   65 C    0 0 0
  33 H    1     2.5197     4.7616   31 H    0 0 0
  33 H    1     2.5677     4.8522   73 O    0 0 0
  33 H    1     2.7331     5.1648    5 B    1 1 0

  34 H    1     1.0915     2.0626   68 C    1 1 0
  34 H    1     2.1479     4.0589   62 C    1 1 0
  34 H    1     2.1679     4.0968   66 C    1 1 0
  34 H    1     2.5197     4.7616   32 H    0 0 0
  34 H    1     2.5677     4.8522   74 O    1 1 0
  34 H    1     2.7331     5.1648    6 B    1 1 0

  35 H    1     1.0914     2.0624   69 C    0 0 0
  35 H    1     2.1486     4.0602   71 C   -1-1 0
  35 H    1     2.1668     4.0947   63 C    0 0 0
  35 H    1     2.5200     4.7621   29 H    0 0 0
  35 H    1     2.5717     4.8598   83 O    0 0 0
  35 H    1     2.7349     5.1682    9 B   -1-1 0

  36 H    1     1.0914     2.0624   70 C    0 0 0
  36 H    1     2.1486     4.0602   72 C    0 0 0
  36 H    1     2.1668     4.0947   64 C    0 0 0
  36 H    1     2.5200     4.7621   30 H    0 0 0
  36 H    1     2.5717     4.8598   84 O    0 0 0
  36 H    1     2.7349     5.1682   10 B    0 0 0

  37 C    1     1.4020     2.6495   43 C    0 1 0
  37 C    1     1.4021     2.6495   39 C    0 0 0
  37 C    1     1.5504     2.9298    3 B    0 0 0
  37 C    1     2.1471     4.0575   17 H    0 1 0
  37 C    1     2.1472     4.0576   13 H    0 0 0
  37 C    1     2.4246     4.5817   41 C    0 1 0

  38 C    1     1.4020     2.6495   44 C    0 0 0
  38 C    1     1.4021     2.6495   40 C    0 0 0
  38 C    1     1.5504     2.9298    4 B    0 0 0
  38 C    1     2.1471     4.0575   18 H    0 0 0
  38 C    1     2.1472     4.0576   14 H    0-1 0
  38 C    1     2.4246     4.5817   42 C    0 0 0

  39 C    1     1.0913     2.0623   13 H    0 0 0
  39 C    1     1.3914     2.6294   45 C    0 0 0
  39 C    1     1.4021     2.6495   37 C    0 0 0
  39 C    1     2.1669     4.0948   19 H    0 0 0
  39 C    1     2.4177     4.5688   43 C    0 1 0
  39 C    1     2.4250     4.5825   47 C    0 1 0

  40 C    1     1.0913     2.0623   14 H    0-1 0
  40 C    1     1.3914     2.6294   46 C    0 0 0
  40 C    1     1.4021     2.6495   38 C    0 0 0
  40 C    1     2.1669     4.0948   20 H    0-1 0
  40 C    1     2.4177     4.5688   44 C    0 0 0
  40 C    1     2.4250     4.5825   48 C    0 0 0

  41 C    1     1.0914     2.0625   15 H    0 0 0
  41 C    1     1.3914     2.6293   43 C    0 0 0
  41 C    1     1.4026     2.6505   47 C    0 0 0
  41 C    1     2.1680     4.0970   17 H    0 0 0
  41 C    1     2.4182     4.5697   45 C    0-1 0
  41 C    1     2.4246     4.5817   37 C    0-1 0

  42 C    1     1.0914     2.0625   16 H    0 0 0
  42 C    1     1.3914     2.6293   44 C    0 0 0
  42 C    1     1.4026     2.6505   48 C    0 0 0
  42 C    1     2.1680     4.0970   18 H    0 0 0
  42 C    1     2.4182     4.5697   46 C    0 0 0
  42 C    1     2.4246     4.5817   38 C    0 0 0

  43 C    1     1.0914     2.0624   17 H    0 0 0
  43 C    1     1.3914     2.6293   41 C    0 0 0
  43 C    1     1.4020     2.6495   37 C    0-1 0
  43 C    1     2.1666     4.0942   15 H    0 0 0
  43 C    1     2.4177     4.5688   39 C    0-1 0
  43 C    1     2.4250     4.5826   47 C    0 0 0

  44 C    1     1.0914     2.0624   18 H    0 0 0
  44 C    1     1.3914     2.6293   42 C    0 0 0
  44 C    1     1.4020     2.6495   38 C    0 0 0
  44 C    1     2.1666     4.0942   16 H    0 0 0
  44 C    1     2.4177     4.5688   40 C    0 0 0
  44 C    1     2.4250     4.5826   48 C    0 0 0

  45 C    1     1.0915     2.0626   19 H    0 0 0
  45 C    1     1.3914     2.6294   39 C    0 0 0
  45 C    1     1.4025     2.6504   47 C    0 1 0
  45 C    1     2.1680     4.0969   13 H    0 0 0
  45 C    1     2.4182     4.5697   41 C    0 1 0
  45 C    1     2.4246     4.5818   37 C    0 0 0

  46 C    1     1.0915     2.0626   20 H    0-1 0
  46 C    1     1.3914     2.6294   40 C    0 0 0
  46 C    1     1.4025     2.6504   48 C    0 0 0
  46 C    1     2.1680     4.0969   14 H    0-1 0
  46 C    1     2.4182     4.5697   42 C    0 0 0
  46 C    1     2.4246     4.5818   38 C    0 0 0

  47 C    1     1.4025     2.6504   45 C    0-1 0
  47 C    1     1.4026     2.6505   41 C    0 0 0
  47 C    1     1.5513     2.9316    7 B    0 0 0
  47 C    1     2.1490     4.0610   19 H    0-1 0
  47 C    1     2.1493     4.0616   15 H    0 0 0
  47 C    1     2.4250     4.5825   39 C    0-1 0

  48 C    1     1.4025     2.6504   46 C    0 0 0
  48 C    1     1.4026     2.6505   42 C    0 0 0
  48 C    1     1.5513     2.9316    8 B    0 0 0
  48 C    1     2.1490     4.0610   20 H    0-1 0
  48 C    1     2.1493     4.0616   16 H    0 0 0
  48 C    1     2.4250     4.5825   40 C    0 0 0

  49 C    1     1.4020     2.6494   51 C    1 0 0
  49 C    1     1.4021     2.6495   55 C    0 0 0
  49 C    1     1.5503     2.9297    1 B    1 0 0
  49 C    1     2.1469     4.0571   21 H    1 0 0
  49 C    1     2.1475     4.0581   25 H    0 0 0
  49 C    1     2.4246     4.5818   53 C    0 0 0

  50 C    1     1.4020     2.6494   52 C    1 0 0
  50 C    1     1.4021     2.6495   56 C    0 0 0
  50 C    1     1.5503     2.9297    2 B    1 1 0
  50 C    1     2.1469     4.0571   22 H    1 0 0
  50 C    1     2.1475     4.0581   26 H    0 0 0
  50 C    1     2.4246     4.5818   54 C    0 0 0

  51 C    1     1.0913     2.0623   21 H    0 0 0
  51 C    1     1.3914     2.6293   57 C    0 0 0
  51 C    1     1.4020     2.6494   49 C   -1 0 0
  51 C    1     2.1666     4.0942   27 H    0 0 0
  51 C    1     2.4175     4.5684   55 C   -1 0 0
  51 C    1     2.4251     4.5828   59 C   -1 0 0

  52 C    1     1.0913     2.0623   22 H    0 0 0
  52 C    1     1.3914     2.6293   58 C    0 0 0
  52 C    1     1.4020     2.6494   50 C   -1 0 0
  52 C    1     2.1666     4.0942   28 H    0 0 0
  52 C    1     2.4175     4.5684   56 C   -1 0 0
  52 C    1     2.4251     4.5828   60 C   -1 0 0

  53 C    1     1.0914     2.0625   23 H    0 0 0
  53 C    1     1.3915     2.6295   55 C    0 0 0
  53 C    1     1.4026     2.6505   59 C    0 0 0
  53 C    1     2.1679     4.0967   25 H    0 0 0
  53 C    1     2.4179     4.5691   57 C    1 0 0
  53 C    1     2.4246     4.5818   49 C    0 0 0

  54 C    1     1.0914     2.0625   24 H    0 0 0
  54 C    1     1.3915     2.6295   56 C    0 0 0
  54 C    1     1.4026     2.6505   60 C    0 0 0
  54 C    1     2.1679     4.0967   26 H    0 0 0
  54 C    1     2.4179     4.5691   58 C    1 0 0
  54 C    1     2.4246     4.5818   50 C    0 0 0

  55 C    1     1.0914     2.0624   25 H    0 0 0
  55 C    1     1.3915     2.6295   53 C    0 0 0
  55 C    1     1.4021     2.6495   49 C    0 0 0
  55 C    1     2.1664     4.0939   23 H    0 0 0
  55 C    1     2.4175     4.5684   51 C    1 0 0
  55 C    1     2.4253     4.5832   59 C    0 0 0

  56 C    1     1.0914     2.0624   26 H    0 0 0
  56 C    1     1.3915     2.6295   54 C    0 0 0
  56 C    1     1.4021     2.6495   50 C    0 0 0
  56 C    1     2.1664     4.0939   24 H    0 0 0
  56 C    1     2.4175     4.5684   52 C    1 0 0
  56 C    1     2.4253     4.5832   60 C    0 0 0

  57 C    1     1.0914     2.0625   27 H    0 0 0
  57 C    1     1.3914     2.6293   51 C    0 0 0
  57 C    1     1.4025     2.6504   59 C   -1 0 0
  57 C    1     2.1680     4.0968   21 H    0 0 0
  57 C    1     2.4179     4.5691   53 C   -1 0 0
  57 C    1     2.4247     4.5819   49 C   -1 0 0

  58 C    1     1.0914     2.0625   28 H    0 0 0
  58 C    1     1.3914     2.6293   52 C    0 0 0
  58 C    1     1.4025     2.6504   60 C   -1 0 0
  58 C    1     2.1680     4.0968   22 H    0 0 0
  58 C    1     2.4179     4.5691   54 C   -1 0 0
  58 C    1     2.4247     4.5819   50 C   -1 0 0

  59 C    1     1.4025     2.6504   57 C    1 0 0
  59 C    1     1.4026     2.6505   53 C    0 0 0
  59 C    1     1.5516     2.9322   11 B    0 0 0
  59 C    1     2.1491     4.0612   27 H    1 0 0
  59 C    1     2.1493     4.0617   23 H    0 0 0
  59 C    1     2.4251     4.5828   51 C    1 0 0

  60 C    1     1.4025     2.6504   58 C    1 0 0
  60 C    1     1.4026     2.6505   54 C    0 0 0
  60 C    1     1.5516     2.9322   12 B    0 0 0
  60 C    1     2.1491     4.0612   28 H    1 0 0
  60 C    1     2.1493     4.0617   24 H    0 0 0
  60 C    1     2.4251     4.5828   52 C    1 0 0

  61 C    1     1.4021     2.6496   63 C    1 1 0
  61 C    1     1.4021     2.6497   67 C    0 0 0
  61 C    1     1.5502     2.9294    5 B    1 1 0
  61 C    1     2.1475     4.0582   29 H    1 1 0
  61 C    1     2.1479     4.0589   33 H    0 0 0
  61 C    1     2.4244     4.5814   65 C    0 0 0

  62 C    1     1.4021     2.6496   64 C    0 0 0
  62 C    1     1.4021     2.6497   68 C    0 0 0
  62 C    1     1.5502     2.9294    6 B    0 0 0
  62 C    1     2.1475     4.0582   30 H    0 0 0
  62 C    1     2.1479     4.0589   34 H   -1-1 0
  62 C    1     2.4244     4.5814   66 C    0 0 0

  63 C    1     1.0914     2.0624   29 H    0 0 0
  63 C    1     1.3914     2.6293   69 C    0 0 0
  63 C    1     1.4021     2.6496   61 C   -1-1 0
  63 C    1     2.1668     4.0947   35 H    0 0 0
  63 C    1     2.4179     4.5692   67 C   -1-1 0
  63 C    1     2.4251     4.5827   71 C   -1-1 0

  64 C    1     1.0914     2.0624   30 H    0 0 0
  64 C    1     1.3914     2.6293   70 C    0 0 0
  64 C    1     1.4021     2.6496   62 C    0 0 0
  64 C    1     2.1668     4.0947   36 H    0 0 0
  64 C    1     2.4179     4.5692   68 C    0 0 0
  64 C    1     2.4251     4.5827   72 C    0 0 0

  65 C    1     1.0913     2.0623   31 H    0 0 0
  65 C    1     1.3914     2.6294   67 C    0 0 0
  65 C    1     1.4025     2.6504   71 C    0 0 0
  65 C    1     2.1679     4.0968   33 H    0 0 0
  65 C    1     2.4178     4.5690   69 C    1 1 0
  65 C    1     2.4244     4.5814   61 C    0 0 0

  66 C    1     1.0913     2.0623   32 H   -1-1 0
  66 C    1     1.3914     2.6294   68 C    0 0 0
  66 C    1     1.4025     2.6504   72 C    0 0 0
  66 C    1     2.1679     4.0968   34 H   -1-1 0
  66 C    1     2.4178     4.5690   70 C    0 0 0
  66 C    1     2.4244     4.5814   62 C    0 0 0

  67 C    1     1.0915     2.0626   33 H    0 0 0
  67 C    1     1.3914     2.6294   65 C    0 0 0
  67 C    1     1.4021     2.6497   61 C    0 0 0
  67 C    1     2.1667     4.0945   31 H    0 0 0
  67 C    1     2.4179     4.5692   63 C    1 1 0
  67 C    1     2.4253     4.5832   71 C    0 0 0

  68 C    1     1.0915     2.0626   34 H   -1-1 0
  68 C    1     1.3914     2.6294   66 C    0 0 0
  68 C    1     1.4021     2.6497   62 C    0 0 0
  68 C    1     2.1667     4.0945   32 H   -1-1 0
  68 C    1     2.4179     4.5692   64 C    0 0 0
  68 C    1     2.4253     4.5832   72 C    0 0 0

  69 C    1     1.0914     2.0624   35 H    0 0 0
  69 C    1     1.3914     2.6293   63 C    0 0 0
  69 C    1     1.4025     2.6503   71 C   -1-1 0
  69 C    1     2.1678     4.0966   29 H    0 0 0
  69 C    1     2.4178     4.5690   65 C   -1-1 0
  69 C    1     2.4245     4.5817   61 C   -1-1 0

  70 C    1     1.0914     2.0624   36 H    0 0 0
  70 C    1     1.3914     2.6293   64 C    0 0 0
  70 C    1     1.4025     2.6503   72 C    0 0 0
  70 C    1     2.1678     4.0966   30 H    0 0 0
  70 C    1     2.4178     4.5690   66 C    0 0 0
  70 C    1     2.4245     4.5817   62 C    0 0 0

  71 C    1     1.4025     2.6503   69 C    1 1 0
  71 C    1     1.4025     2.6504   65 C    0 0 0
  71 C    1     1.5516     2.9322    9 B    0 0 0
  71 C    1     2.1486     4.0602   35 H    1 1 0
  71 C    1     2.1487     4.0605   31 H    0 0 0
  71 C    1     2.4251     4.5827   63 C    1 1 0

  72 C    1     1.4025     2.6503   70 C    0 0 0
  72 C    1     1.4025     2.6504   66 C    0 0 0
  72 C    1     1.5516     2.9322   10 B    0 0 0
  72 C    1     2.1486     4.0602   36 H    0 0 0
  72 C    1     2.1487     4.0605   32 H   -1-1 0
  72 C    1     2.4251     4.5827   64 C    0 0 0

  73 O    1     1.3791     2.6061    1 B    1 0 0
  73 O    1     1.3791     2.6061    5 B    1 1 0
  73 O    1     2.3880     4.5126   75 O    1 0 0
  73 O    1     2.3882     4.5130   77 O    1 1 0
  73 O    1     2.5383     4.7966   61 C    0 0 0
  73 O    1     2.5384     4.7968   49 C    0 0 0

  74 O    1     1.3791     2.6061    2 B    0 0 0
  74 O    1     1.3791     2.6061    6 B    0 0 0
  74 O    1     2.3880     4.5126   76 O    0 0 0
  74 O    1     2.3882     4.5130   78 O    0 0 0
  74 O    1     2.5383     4.7966   62 C    0 0 0
  74 O    1     2.5384     4.7968   50 C   -1-1 0

  75 O    1     1.3793     2.6065    1 B    0 0 0
  75 O    1     1.3793     2.6065    3 B    0 0 0
  75 O    1     2.3880     4.5126   73 O   -1 0 0
  75 O    1     2.3882     4.5131   77 O    0 1 0
  75 O    1     2.5391     4.7981   37 C    0 0 0
  75 O    1     2.5395     4.7990   49 C   -1 0 0

  76 O    1     1.3793     2.6065    2 B    0 0 0
  76 O    1     1.3793     2.6065    4 B    0 0 0
  76 O    1     2.3880     4.5126   74 O    0 0 0
  76 O    1     2.3882     4.5131   78 O    0 0 0
  76 O    1     2.5391     4.7981   38 C    0 0 0
  76 O    1     2.5395     4.7990   50 C   -1-1 0

  77 O    1     1.3793     2.6064    5 B    0 0 0
  77 O    1     1.3793     2.6065    3 B    0-1 0
  77 O    1     2.3882     4.5130   73 O   -1-1 0
  77 O    1     2.3882     4.5131   75 O    0-1 0
  77 O    1     2.5390     4.7980   37 C    0-1 0
  77 O    1     2.5391     4.7982   61 C   -1-1 0

  78 O    1     1.3793     2.6064    6 B    0 0 0
  78 O    1     1.3793     2.6065    4 B    0 0 0
  78 O    1     2.3882     4.5130   74 O    0 0 0
  78 O    1     2.3882     4.5131   76 O    0 0 0
  78 O    1     2.5390     4.7980   38 C    0 0 0
  78 O    1     2.5391     4.7982   62 C    0 0 0

  79 O    1     1.3795     2.6068   11 B    0 0 0
  79 O    1     1.3795     2.6068    7 B    0 0 0
  79 O    1     2.3880     4.5126   83 O    1 0 0
  79 O    1     2.3884     4.5134   81 O    0-1 0
  79 O    1     2.5400     4.7998   47 C    0 0 0
  79 O    1     2.5403     4.8005   59 C    0 0 0

  80 O    1     1.3795     2.6068   12 B    0 0 0
  80 O    1     1.3795     2.6068    8 B    0 0 0
  80 O    1     2.3880     4.5126   84 O    1 0 0
  80 O    1     2.3884     4.5134   82 O    0 0 0
  80 O    1     2.5400     4.7998   48 C    0 0 0
  80 O    1     2.5403     4.8005   60 C    0 0 0

  81 O    1     1.3795     2.6069    9 B    0 0 0
  81 O    1     1.3795     2.6070    7 B    0 1 0
  81 O    1     2.3881     4.5128   83 O    1 1 0
  81 O    1     2.3884     4.5134   79 O    0 1 0
  81 O    1     2.5404     4.8006   47 C    0 1 0
  81 O    1     2.5405     4.8008   71 C    0 0 0

  82 O    1     1.3795     2.6069   10 B    1 0 0
  82 O    1     1.3795     2.6070    8 B    0 0 0
  82 O    1     2.3881     4.5128   84 O    1 0 0
  82 O    1     2.3884     4.5134   80 O    0 0 0
  82 O    1     2.5404     4.8006   48 C    0 0 0
  82 O    1     2.5405     4.8008   72 C    1 0 0

  83 O    1     1.3796     2.6071   11 B   -1 0 0
  83 O    1     1.3797     2.6072    9 B   -1-1 0
  83 O    1     2.3880     4.5126   79 O   -1 0 0
  83 O    1     2.3881     4.5128   81 O   -1-1 0
  83 O    1     2.5409     4.8016   71 C   -1-1 0
  83 O    1     2.5410     4.8019   59 C   -1 0 0

  84 O    1     1.3796     2.6071   12 B   -1 0 0
  84 O    1     1.3797     2.6072   10 B    0 0 0
  84 O    1     2.3880     4.5126   80 O   -1 0 0
  84 O    1     2.3881     4.5128   82 O   -1 0 0
  84 O    1     2.5409     4.8016   72 C    0 0 0
  84 O    1     2.5410     4.8019   60 C   -1 0 0


 SYMMETRY ALLOWED INTERNAL DEGREE(S) OF FREEDOM: 249
 TTTTTTTTTTTTTTTTTTTTTTTTTTTTTT SYMM        TELAPSE        2.88 TCPU        2.87
 TTTTTTTTTTTTTTTTTTTTTTTTTTTTTT INT_SCREEN  TELAPSE        3.08 TCPU        3.08

 DFT PARAMETERS

     ATOM       ELECTRONS   NET CHARGE   R(ANGSTROM)
   1   5  B       5.0000      0.0000     0.89000000
  13   1  H       1.0000      0.0000     1.11000000
  37   6  C       6.0000      0.0000     0.77000000
  73   8  O       8.0000      0.0000     0.74000000

 SIZE OF GRID=    2546110
 TTTTTTTTTTTTTTTTTTTTTTTTTTTTTT MAKE_GRID2  TELAPSE       25.56 TCPU       25.54
 BECKE WEIGHT FUNCTION
 RADSAFE =     2.00
 TOLERANCES - DENSITY:10**- 6; POTENTIAL:10**- 9; GRID WGT:10**-14

 RADIAL INTEGRATION  - INTERVALS (POINTS,UPPER LIMIT):            1( 75,  4.0*R)

 ANGULAR INTEGRATION - INTERVALS (ACCURACY LEVEL [N. POINTS] UPPER LIMIT):
  1(  4[  86]   0.2)  2(  8[ 194]   0.5)  3( 12[ 350]   0.9)  4( 16[ 974]   3.5)
  5( 12[ 350]9999.0)
 TTTTTTTTTTTTTTTTTTTTTTTTTTTTTT INT_CALC    TELAPSE       25.85 TCPU       25.83
 EEEEEEEEEE INT_CALC TERMINATION  DATE 19 02 2026 TIME 20:13:49.1

 *******************************************************************************
 cof-1_z36_L020_serr                                                             
 CRYSTAL - SCF - TYPE OF CALCULATION :  RESTRICTED CLOSED SHELL
 *******************************************************************************

 CAPPA:IS1  2;IS2  2;IS3  8; K PTS MONK NET  20; SYMMOPS:K SPACE   2;G SPACE   1

 TTTTTTTTTTTTTTTTTTTTTTTTTTTTTT SDIK        TELAPSE       27.77 TCPU       53.34

 AAAAAAAAAAAAAAAAAAAAAAAAAAAAAAAAAAAAAAAAAAAAAAAAAAAAAAAAAAAAAAAAAAAAAAAAAAAAAAA
         ATOMIC WAVEFUNCTION(S)


 NUCLEAR CHARGE  5.0  SYMMETRY SPECIES            S    P
 N. ELECTRONS    5.0  NUMBER OF PRIMITIVE GTOS    8    4
                      NUMBER OF CONTRACTED GTOS   4    2
                      NUMBER OF CLOSED SHELLS     2    0
                      OPEN SHELL OCCUPATION       0    1

  ZNUC  SCFIT    TOTAL HF ENERGY   KINETIC ENERGY   VIRIAL THEOREM ACCURACY
   5.0    11    -2.451164084E+01  2.462155050E+01 -1.995536038E+00  1.5E-06

 NUCLEAR CHARGE  1.0  SYMMETRY SPECIES            S
 N. ELECTRONS    1.0  NUMBER OF PRIMITIVE GTOS    4
                      NUMBER OF CONTRACTED GTOS   2
                      NUMBER OF CLOSED SHELLS     0
                      OPEN SHELL OCCUPATION       1

  ZNUC  SCFIT    TOTAL HF ENERGY   KINETIC ENERGY   VIRIAL THEOREM ACCURACY
   1.0     1    -4.977266687E-01  5.190767460E-01 -1.958869132E+00  0.0E+00

 NUCLEAR CHARGE  6.0  SYMMETRY SPECIES            S    P
 N. ELECTRONS    6.0  NUMBER OF PRIMITIVE GTOS    8    4
                      NUMBER OF CONTRACTED GTOS   4    2
                      NUMBER OF CLOSED SHELLS     2    0
                      OPEN SHELL OCCUPATION       0    2

  ZNUC  SCFIT    TOTAL HF ENERGY   KINETIC ENERGY   VIRIAL THEOREM ACCURACY
   6.0     9    -3.766704647E+01  3.775180683E+01 -1.997754800E+00  1.1E-06

 NUCLEAR CHARGE  8.0  SYMMETRY SPECIES            S    P
 N. ELECTRONS    8.0  NUMBER OF PRIMITIVE GTOS    8    4
                      NUMBER OF CONTRACTED GTOS   4    2
                      NUMBER OF CLOSED SHELLS     2    0
                      OPEN SHELL OCCUPATION       0    4

  ZNUC  SCFIT    TOTAL HF ENERGY   KINETIC ENERGY   VIRIAL THEOREM ACCURACY
   8.0    12    -7.477373220E+01  7.477365593E+01 -2.000001020E+00  3.8E-06

 AAAAAAAAAAAAAAAAAAAAAAAAAAAAAAAAAAAAAAAAAAAAAAAAAAAAAAAAAAAAAAAAAAAAAAAAAAAAAAA

 CHARGE NORMALIZATION FACTOR   1.00000000
 TOTAL ATOMIC CHARGES:
   5.0000000   5.0000000   5.0000000   5.0000000   5.0000000   5.0000000
   5.0000000   5.0000000   5.0000000   5.0000000   5.0000000   5.0000000
   1.0000000   1.0000000   1.0000000   1.0000000   1.0000000   1.0000000
   1.0000000   1.0000000   1.0000000   1.0000000   1.0000000   1.0000000
   1.0000000   1.0000000   1.0000000   1.0000000   1.0000000   1.0000000
   1.0000000   1.0000000   1.0000000   1.0000000   1.0000000   1.0000000
   6.0000000   6.0000000   6.0000000   6.0000000   6.0000000   6.0000000
   6.0000000   6.0000000   6.0000000   6.0000000   6.0000000   6.0000000
   6.0000000   6.0000000   6.0000000   6.0000000   6.0000000   6.0000000
   6.0000000   6.0000000   6.0000000   6.0000000   6.0000000   6.0000000
   6.0000000   6.0000000   6.0000000   6.0000000   6.0000000   6.0000000
   6.0000000   6.0000000   6.0000000   6.0000000   6.0000000   6.0000000
   8.0000000   8.0000000   8.0000000   8.0000000   8.0000000   8.0000000
   8.0000000   8.0000000   8.0000000   8.0000000   8.0000000   8.0000000
 TTTTTTTTTTTTTTTTTTTTTTTTTTTTTT MOQGAD      TELAPSE       27.87 TCPU       56.62
 TTTTTTTTTTTTTTTTTTTTTTTTTTTTTT SHELLXN     TELAPSE       50.81 TCPU      789.75
 TTTTTTTTTTTTTTTTTTTTTTTTTTTTTT MONMO3      TELAPSE       51.48 TCPU      811.17
 NUMERICALLY INTEGRATED DENSITY    395.9999832924
 TTTTTTTTTTTTTTTTTTTTTTTTTTTTTT NUMDFT      TELAPSE       53.06 TCPU      861.64
 CYC   0 ETOT(AU) -2.591939847573E+03 DETOT -2.59E+03 tst  0.00E+00 PX  1.00E+00
 TTTTTTTTTTTTTTTTTTTTTTTTTTTTTT DIIS        TELAPSE       53.18 TCPU      865.26
 TTTTTTTTTTTTTTTTTTTTTTTTTTTTTT FDIK        TELAPSE       55.01 TCPU      923.84
 INSULATING STATE
 TOP OF VALENCE BANDS -    BAND    198; K    3; EIG -3.0652638E-01 AU
 TOP OF VALENCE BANDS -    BAND    198; K    1; EIG -3.0653704E-01 AU
 BOTTOM OF VIRTUAL BANDS - BAND    199; K    1; EIG -1.5844003E-01 AU
 INDIRECT ENERGY BAND GAP:   4.0296 eV
 TTTTTTTTTTTTTTTTTTTTTTTTTTTTTT PDIG        TELAPSE       56.60 TCPU      930.81
 CHARGE NORMALIZATION FACTOR   1.00000000
 TOTAL ATOMIC CHARGES:
   4.1596652   4.1209658   4.1403650   4.1543306   4.1406032   4.1545765
   4.1542117   4.1402624   4.1539991   4.1400591   4.1207663   4.1593267
   0.7857301   0.7861052   0.7862197   0.7858432   0.7850389   0.7855753
   0.7856920   0.7851634   0.7858064   0.7861484   0.7863119   0.7859726
   0.7857960   0.7861389   0.7862740   0.7859352   0.7850446   0.7855774
   0.7857576   0.7852283   0.7856814   0.7860572   0.7862139   0.7858366
   6.0485611   6.0476428   6.2686541   6.2688900   6.2688507   6.2686163
   6.2657881   6.2673894   6.2673263   6.2657153   6.0469031   6.0477902
   6.0443457   6.0515454   6.2668134   6.2666099   6.2666760   6.2668961
   6.2667254   6.2665278   6.2666828   6.2669097   6.0502540   6.0431007
   6.0489231   6.0480150   6.2655436   6.2671466   6.2677012   6.2660876
   6.2682720   6.2685139   6.2691265   6.2688919   6.0464273   6.0473240
   8.7017319   8.7026244   8.7018330   8.7027288   8.7046769   8.6923940
   8.7030238   8.7021530   8.6927978   8.7050648   8.7031874   8.7023173
 TTTTTTTTTTTTTTTTTTTTTTTTTTTTTT MOQGAD      TELAPSE       56.70 TCPU      930.92
 TTTTTTTTTTTTTTTTTTTTTTTTTTTTTT SHELLXN     TELAPSE       80.70 TCPU     1696.83
 TTTTTTTTTTTTTTTTTTTTTTTTTTTTTT MONMO3      TELAPSE       81.37 TCPU     1718.13
 NUMERICALLY INTEGRATED DENSITY    395.9999604090
 TTTTTTTTTTTTTTTTTTTTTTTTTTTTTT NUMDFT      TELAPSE       82.98 TCPU     1769.61
 CYC   1 ETOT(AU) -2.577644967032E+03 DETOT  1.43E+01 tst  0.00E+00 PX  1.00E+00
 TTTTTTTTTTTTTTTTTTTTTTTTTTTTTT DIIS        TELAPSE       83.13 TCPU     1774.23
 DIIS TEST: 0.22401E+01 AT SCF   CYCLE   1 - MIX   30 %
 TTTTTTTTTTTTTTTTTTTTTTTTTTTTTT FDIK        TELAPSE       85.01 TCPU     1834.35
 INSULATING STATE
 TOP OF VALENCE BANDS -    BAND    198; K    3; EIG -2.1499261E-01 AU
 TOP OF VALENCE BANDS -    BAND    198; K    1; EIG -2.1505007E-01 AU
 BOTTOM OF VIRTUAL BANDS - BAND    199; K    1; EIG -8.0345876E-02 AU
 INDIRECT ENERGY BAND GAP:   3.6639 eV
 TTTTTTTTTTTTTTTTTTTTTTTTTTTTTT PDIG        TELAPSE       86.61 TCPU     1841.32
 CHARGE NORMALIZATION FACTOR   1.00000000
 TOTAL ATOMIC CHARGES:
   4.6690359   4.6993326   4.6957077   4.6883380   4.6956977   4.6883688
   4.6886991   4.6961353   4.6886794   4.6961306   4.6998454   4.6694450
   0.9151303   0.9159973   0.9161167   0.9151620   0.9187307   0.9190994
   0.9191521   0.9187312   0.9187522   0.9087411   0.9087627   0.9189189
   0.9187440   0.9087188   0.9087576   0.9188866   0.9187191   0.9190874
   0.9192250   0.9187996   0.9150678   0.9159216   0.9161280   0.9151530
   5.8772108   5.8532650   6.1520851   6.0799015   6.0804134   6.1525985
   6.1340680   6.1506753   6.1513313   6.1349527   5.8560897   5.8800263
   5.8141369   5.9300792   6.1185972   6.1461185   6.1469310   6.1193028
   6.1188108   6.1462702   6.1468519   6.1191652   5.9334333   5.8173870
   5.8771435   5.8531983   6.1341069   6.1507434   6.1511818   6.1348146
   6.1523315   6.0801413   6.0801479   6.1523032   5.8562946   5.8803000
   8.3391730   8.3473669   8.3395564   8.3477221   8.3744348   8.3400466
   8.3472614   8.3390098   8.3397505   8.3742749   8.3476955   8.3393811
 TTTTTTTTTTTTTTTTTTTTTTTTTTTTTT MOQGAD      TELAPSE       86.72 TCPU     1841.42
 TTTTTTTTTTTTTTTTTTTTTTTTTTTTTT SHELLXN     TELAPSE      110.79 TCPU     2609.70
 TTTTTTTTTTTTTTTTTTTTTTTTTTTTTT MONMO3      TELAPSE      111.46 TCPU     2631.04
 NUMERICALLY INTEGRATED DENSITY    395.9999565312
 TTTTTTTTTTTTTTTTTTTTTTTTTTTTTT NUMDFT      TELAPSE      113.07 TCPU     2682.25
 CYC   2 ETOT(AU) -2.578026917731E+03 DETOT -3.82E-01 tst  3.98E-03 PX  1.59E-01
 TTTTTTTTTTTTTTTTTTTTTTTTTTTTTT DIIS        TELAPSE      113.23 TCPU     2687.33
 DIIS TEST: 0.96511E+00 AT SCF   CYCLE   2 - DIIS ACTIVE - HISTORY:     2 CYCLES
 TTTTTTTTTTTTTTTTTTTTTTTTTTTTTT FDIK        TELAPSE      115.07 TCPU     2746.16
 INSULATING STATE
 TOP OF VALENCE BANDS -    BAND    198; K    3; EIG -2.2858716E-01 AU
 TOP OF VALENCE BANDS -    BAND    198; K    1; EIG -2.2872688E-01 AU
 BOTTOM OF VIRTUAL BANDS - BAND    199; K    1; EIG -7.5343678E-02 AU
 INDIRECT ENERGY BAND GAP:   4.1700 eV
 TTTTTTTTTTTTTTTTTTTTTTTTTTTTTT PDIG        TELAPSE      116.65 TCPU     2753.12
 CHARGE NORMALIZATION FACTOR   1.00000000
 TOTAL ATOMIC CHARGES:
   4.4834710   4.4672430   4.4759047   4.4866844   4.4760307   4.4868291
   4.4860957   4.4753439   4.4859466   4.4751733   4.4666142   4.4826984
   0.8962688   0.8815751   0.8815690   0.8965040   0.8889534   0.8954092
   0.8955108   0.8890154   0.8882229   0.8882864   0.8886571   0.8882959
   0.8882577   0.8883233   0.8886019   0.8882205   0.8889479   0.8954138
   0.8955665   0.8890831   0.8962690   0.8815604   0.8815190   0.8964565
   5.8811372   5.9047792   6.1536145   6.1753539   6.1747075   6.1530358
   6.1696151   6.1596142   6.1588287   6.1684164   5.9032101   5.8794584
   5.9223584   5.8858269   6.1741622   6.1509370   6.1500318   6.1737073
   6.1742590   6.1509484   6.1499637   6.1736239   5.8835951   5.9205379
   5.8814635   5.9050829   6.1695758   6.1595520   6.1589654   6.1684850
   6.1535280   6.1753330   6.1746888   6.1530118   5.9028874   5.8791597
   8.5203521   8.5193299   8.5205078   8.5194752   8.5220079   8.5089893
   8.5193776   8.5205789   8.5092102   8.5218853   8.5195436   8.5207634
 TTTTTTTTTTTTTTTTTTTTTTTTTTTTTT MOQGAD      TELAPSE      116.75 TCPU     2753.23
 TTTTTTTTTTTTTTTTTTTTTTTTTTTTTT SHELLXN     TELAPSE      140.64 TCPU     3515.50
 TTTTTTTTTTTTTTTTTTTTTTTTTTTTTT MONMO3      TELAPSE      141.31 TCPU     3536.95
 NUMERICALLY INTEGRATED DENSITY    395.9999551019
 TTTTTTTTTTTTTTTTTTTTTTTTTTTTTT NUMDFT      TELAPSE      142.93 TCPU     3588.44
 CYC   3 ETOT(AU) -2.578223945515E+03 DETOT -1.97E-01 tst  6.45E-04 PX  6.44E-02
 TTTTTTTTTTTTTTTTTTTTTTTTTTTTTT DIIS        TELAPSE      143.11 TCPU     3594.19
 DIIS TEST: 0.35658E-01 AT SCF   CYCLE   3 - DIIS ACTIVE - HISTORY:     3 CYCLES
 TTTTTTTTTTTTTTTTTTTTTTTTTTTTTT FDIK        TELAPSE      144.96 TCPU     3653.52
 INSULATING STATE
 TOP OF VALENCE BANDS -    BAND    198; K    3; EIG -2.3833712E-01 AU
 TOP OF VALENCE BANDS -    BAND    198; K    1; EIG -2.3840933E-01 AU
 BOTTOM OF VIRTUAL BANDS - BAND    199; K    1; EIG -8.5020854E-02 AU
 INDIRECT ENERGY BAND GAP:   4.1719 eV
 TTTTTTTTTTTTTTTTTTTTTTTTTTTTTT PDIG        TELAPSE      146.56 TCPU     3660.51
 CHARGE NORMALIZATION FACTOR   1.00000000
 TOTAL ATOMIC CHARGES:
   4.4867152   4.4819952   4.4851536   4.4873945   4.4852672   4.4875176
   4.4879031   4.4856509   4.4877680   4.4855053   4.4823957   4.4871467
   0.8736719   0.8761021   0.8762985   0.8736254   0.8762388   0.8766379
   0.8766905   0.8762151   0.8785759   0.8691479   0.8690595   0.8788589
   0.8786021   0.8691604   0.8690202   0.8787997   0.8762559   0.8766451
   0.8767493   0.8762600   0.8736539   0.8760605   0.8762712   0.8735862
   5.9526920   5.9226413   6.1820350   6.1303986   6.1314208   6.1829011
   6.1676224   6.1744440   6.1758230   6.1697161   5.9268160   5.9568643
   5.8870380   6.0009915   6.1468857   6.1793390   6.1808686   6.1479827
   6.1468617   6.1792895   6.1809365   6.1479944   6.0052863   5.8910805
   5.9526888   5.9226180   6.1674849   6.1743638   6.1759009   6.1698217
   6.1819426   6.1303341   6.1314739   6.1829095   5.9268508   5.9569737
   8.4859515   8.4955173   8.4862533   8.4957929   8.5155488   8.4835373
   8.4957550   8.4859478   8.4834444   8.5159676   8.4961252   8.4862670
 TTTTTTTTTTTTTTTTTTTTTTTTTTTTTT MOQGAD      TELAPSE      146.67 TCPU     3660.61
 TTTTTTTTTTTTTTTTTTTTTTTTTTTTTT SHELLXN     TELAPSE      170.67 TCPU     4426.35
 TTTTTTTTTTTTTTTTTTTTTTTTTTTTTT MONMO3      TELAPSE      171.35 TCPU     4448.06
 NUMERICALLY INTEGRATED DENSITY    395.9999560554
 TTTTTTTTTTTTTTTTTTTTTTTTTTTTTT NUMDFT      TELAPSE      172.96 TCPU     4499.61
 CYC   4 ETOT(AU) -2.578230010893E+03 DETOT -6.07E-03 tst  1.29E-04 PX  2.84E-02
 TTTTTTTTTTTTTTTTTTTTTTTTTTTTTT DIIS        TELAPSE      173.16 TCPU     4506.03
 DIIS TEST: 0.14445E-01 AT SCF   CYCLE   4 - DIIS ACTIVE - HISTORY:     4 CYCLES
 TTTTTTTTTTTTTTTTTTTTTTTTTTTTTT FDIK        TELAPSE      175.03 TCPU     4565.72
 INSULATING STATE
 TOP OF VALENCE BANDS -    BAND    198; K    3; EIG -2.3827916E-01 AU
 TOP OF VALENCE BANDS -    BAND    198; K    1; EIG -2.3850028E-01 AU
 BOTTOM OF VIRTUAL BANDS - BAND    199; K    1; EIG -8.4440931E-02 AU
 INDIRECT ENERGY BAND GAP:   4.1862 eV
 TTTTTTTTTTTTTTTTTTTTTTTTTTTTTT PDIG        TELAPSE      176.63 TCPU     4572.71
 CHARGE NORMALIZATION FACTOR   1.00000000
 TOTAL ATOMIC CHARGES:
   4.4843345   4.4842506   4.4874841   4.4913842   4.4875928   4.4915201
   4.4909657   4.4871566   4.4908280   4.4870143   4.4838943   4.4838007
   0.8786600   0.8725419   0.8725704   0.8789039   0.8768821   0.8790443
   0.8791987   0.8770035   0.8754731   0.8723403   0.8727082   0.8755689
   0.8754874   0.8723534   0.8726744   0.8755129   0.8768774   0.8790465
   0.8792598   0.8770716   0.8786347   0.8725012   0.8725407   0.8788748
   5.9240840   5.9283970   6.1706528   6.1531270   6.1523912   6.1700479
   6.1735418   6.1756615   6.1745844   6.1718904   5.9262625   5.9219366
   5.9225853   5.9459625   6.1713224   6.1660657   6.1650855   6.1708179
   6.1714749   6.1661148   6.1650012   6.1706834   5.9437215   5.9206272
   5.9243094   5.9286033   6.1734972   6.1756155   6.1746573   6.1719187
   6.1706570   6.1531806   6.1523212   6.1699492   5.9260676   5.9217859
   8.4944879   8.4969836   8.4946939   8.4971726   8.5093550   8.4890916
   8.4968905   8.4946351   8.4891527   8.5089890   8.4971307   8.4948588
 TTTTTTTTTTTTTTTTTTTTTTTTTTTTTT MOQGAD      TELAPSE      176.73 TCPU     4572.81
 TTTTTTTTTTTTTTTTTTTTTTTTTTTTTT SHELLXN     TELAPSE      200.64 TCPU     5335.77
 TTTTTTTTTTTTTTTTTTTTTTTTTTTTTT MONMO3      TELAPSE      201.30 TCPU     5356.77
 NUMERICALLY INTEGRATED DENSITY    395.9999558254
 TTTTTTTTTTTTTTTTTTTTTTTTTTTTTT NUMDFT      TELAPSE      202.89 TCPU     5407.69
 CYC   5 ETOT(AU) -2.578233426862E+03 DETOT -3.42E-03 tst  5.14E-05 PX  1.41E-02
 TTTTTTTTTTTTTTTTTTTTTTTTTTTTTT DIIS        TELAPSE      203.12 TCPU     5414.56
 DIIS TEST: 0.96229E-03 AT SCF   CYCLE   5 - DIIS ACTIVE - HISTORY:     5 CYCLES
 TTTTTTTTTTTTTTTTTTTTTTTTTTTTTT FDIK        TELAPSE      204.99 TCPU     5473.80
 INSULATING STATE
 TOP OF VALENCE BANDS -    BAND    198; K    3; EIG -2.3733761E-01 AU
 TOP OF VALENCE BANDS -    BAND    198; K    1; EIG -2.3740111E-01 AU
 BOTTOM OF VIRTUAL BANDS - BAND    199; K    1; EIG -8.3859361E-02 AU
 INDIRECT ENERGY BAND GAP:   4.1764 eV
 TTTTTTTTTTTTTTTTTTTTTTTTTTTTTT PDIG        TELAPSE      206.58 TCPU     5480.78
 CHARGE NORMALIZATION FACTOR   1.00000000
 TOTAL ATOMIC CHARGES:
   4.4859366   4.4828754   4.4868551   4.4910648   4.4869655   4.4911937
   4.4914236   4.4871617   4.4912910   4.4870185   4.4830994   4.4861635
   0.8798987   0.8744643   0.8746306   0.8798906   0.8783249   0.8812765
   0.8813071   0.8782951   0.8791169   0.8738057   0.8737972   0.8793686
   0.8791456   0.8738260   0.8737528   0.8793034   0.8783322   0.8812800
   0.8813675   0.8783504   0.8798843   0.8744273   0.8746000   0.8798518
   5.9218816   5.9161647   6.1724807   6.1509716   6.1517772   6.1731521
   6.1703820   6.1709899   6.1723154   6.1723651   5.9199082   5.9255352
   5.9030340   5.9507469   6.1616155   6.1696405   6.1708364   6.1625181
   6.1616108   6.1695891   6.1708774   6.1625204   5.9540652   5.9062417
   5.9219956   5.9162603   6.1702924   6.1709264   6.1724089   6.1724461
   6.1723820   6.1509195   6.1518045   6.1731539   5.9198147   5.9254991
   8.4968909   8.5010508   8.4971474   8.5012861   8.5133033   8.4904967
   8.5013064   8.4969263   8.4905345   8.5137857   8.5016014   8.4972011
 TTTTTTTTTTTTTTTTTTTTTTTTTTTTTT MOQGAD      TELAPSE      206.69 TCPU     5480.88
 TTTTTTTTTTTTTTTTTTTTTTTTTTTTTT SHELLXN     TELAPSE      230.49 TCPU     6240.54
 TTTTTTTTTTTTTTTTTTTTTTTTTTTTTT MONMO3      TELAPSE      231.16 TCPU     6261.87
 NUMERICALLY INTEGRATED DENSITY    395.9999558399
 TTTTTTTTTTTTTTTTTTTTTTTTTTTTTT NUMDFT      TELAPSE      232.78 TCPU     6313.48
 CYC   6 ETOT(AU) -2.578233609901E+03 DETOT -1.83E-04 tst  6.11E-06 PX  4.51E-03
 TTTTTTTTTTTTTTTTTTTTTTTTTTTTTT DIIS        TELAPSE      233.02 TCPU     6320.38
 DIIS TEST: 0.28954E-03 AT SCF   CYCLE   6 - DIIS ACTIVE - HISTORY:     6 CYCLES
 TTTTTTTTTTTTTTTTTTTTTTTTTTTTTT FDIK        TELAPSE      234.87 TCPU     6379.28
 INSULATING STATE
 TOP OF VALENCE BANDS -    BAND    198; K    3; EIG -2.3751117E-01 AU
 TOP OF VALENCE BANDS -    BAND    198; K    1; EIG -2.3769809E-01 AU
 BOTTOM OF VIRTUAL BANDS - BAND    199; K    1; EIG -8.3775498E-02 AU
 INDIRECT ENERGY BAND GAP:   4.1834 eV
 TTTTTTTTTTTTTTTTTTTTTTTTTTTTTT PDIG        TELAPSE      236.46 TCPU     6386.25
 CHARGE NORMALIZATION FACTOR   1.00000000
 TOTAL ATOMIC CHARGES:
   4.4864265   4.4830688   4.4868725   4.4914261   4.4869845   4.4915585
   4.4910580   4.4865907   4.4909218   4.4864463   4.4827346   4.4859662
   0.8798949   0.8746646   0.8747048   0.8801011   0.8783493   0.8810419
   0.8811898   0.8784551   0.8786405   0.8736984   0.8740082   0.8787525
   0.8786602   0.8737127   0.8739715   0.8786943   0.8783509   0.8810471
   0.8812482   0.8785160   0.8798754   0.8746280   0.8746723   0.8800669
   5.9250509   5.9213049   6.1724062   6.1506326   6.1501266   6.1719908
   6.1716641   6.1731338   6.1722429   6.1703073   5.9197935   5.9235653
   5.9101332   5.9520763   6.1642252   6.1687606   6.1680886   6.1639119
   6.1643336   6.1687938   6.1680358   6.1638114   5.9506547   5.9089182
   5.9252326   5.9214628   6.1715876   6.1730702   6.1723335   6.1703721
   6.1723736   6.1506450   6.1500952   6.1719280   5.9196407   5.9234603
   8.4955203   8.4995667   8.4957412   8.4997701   8.5127136   8.4900686
   8.4995389   8.4956832   8.4900959   8.5124131   8.4998024   8.4959232
 TTTTTTTTTTTTTTTTTTTTTTTTTTTTTT MOQGAD      TELAPSE      236.56 TCPU     6386.35
 TTTTTTTTTTTTTTTTTTTTTTTTTTTTTT SHELLXN     TELAPSE      259.46 TCPU     7117.26
 TTTTTTTTTTTTTTTTTTTTTTTTTTTTTT MONMO3      TELAPSE      260.11 TCPU     7137.80
 NUMERICALLY INTEGRATED DENSITY    395.9999558191
 TTTTTTTTTTTTTTTTTTTTTTTTTTTTTT NUMDFT      TELAPSE      261.67 TCPU     7187.81
 CYC   7 ETOT(AU) -2.578233673432E+03 DETOT -6.35E-05 tst  8.97E-07 PX  1.57E-03
 TTTTTTTTTTTTTTTTTTTTTTTTTTTTTT DIIS        TELAPSE      261.94 TCPU     7194.69
 DIIS TEST: 0.33838E-04 AT SCF   CYCLE   7 - DIIS ACTIVE - HISTORY:     7 CYCLES
 TTTTTTTTTTTTTTTTTTTTTTTTTTTTTT FDIK        TELAPSE      263.76 TCPU     7252.45
 INSULATING STATE
 TOP OF VALENCE BANDS -    BAND    198; K    3; EIG -2.3755338E-01 AU
 TOP OF VALENCE BANDS -    BAND    198; K    1; EIG -2.3772794E-01 AU
 BOTTOM OF VIRTUAL BANDS - BAND    199; K    1; EIG -8.3802163E-02 AU
 INDIRECT ENERGY BAND GAP:   4.1838 eV
 TTTTTTTTTTTTTTTTTTTTTTTTTTTTTT PDIG        TELAPSE      265.34 TCPU     7259.41
 CHARGE NORMALIZATION FACTOR   1.00000000
 TOTAL ATOMIC CHARGES:
   4.4860794   4.4830971   4.4868863   4.4912736   4.4869972   4.4914053
   4.4912839   4.4869075   4.4911484   4.4867636   4.4830568   4.4859663
   0.8799395   0.8745096   0.8746147   0.8800409   0.8783154   0.8810158
   0.8810989   0.8783489   0.8784915   0.8737477   0.8738992   0.8786736
   0.8785144   0.8737653   0.8738593   0.8786124   0.8783182   0.8810195
   0.8811589   0.8784090   0.8799215   0.8744725   0.8745833   0.8800053
   5.9236052   5.9203870   6.1717703   6.1506013   6.1507321   6.1718833
   6.1709979   6.1724471   6.1727268   6.1713934   5.9215814   5.9247470
   5.9094051   5.9506184   6.1641628   6.1681617   6.1684162   6.1644611
   6.1642293   6.1681576   6.1684002   6.1644004   5.9515518   5.9103863
   5.9237651   5.9205272   6.1709236   6.1723883   6.1728131   6.1714557
   6.1717158   6.1505932   6.1507193   6.1718419   5.9214469   5.9246645
   8.4955630   8.4994293   8.4957982   8.4996451   8.5122355   8.4898840
   8.4995314   8.4956471   8.4899320   8.5123490   8.4998056   8.4959006
 TTTTTTTTTTTTTTTTTTTTTTTTTTTTTT MOQGAD      TELAPSE      265.45 TCPU     7259.52
 TTTTTTTTTTTTTTTTTTTTTTTTTTTTTT SHELLXN     TELAPSE      288.79 TCPU     8004.55
 TTTTTTTTTTTTTTTTTTTTTTTTTTTTTT MONMO3      TELAPSE      289.46 TCPU     8025.77
 NUMERICALLY INTEGRATED DENSITY    395.9999558171
 TTTTTTTTTTTTTTTTTTTTTTTTTTTTTT NUMDFT      TELAPSE      291.08 TCPU     8077.53
 CYC   8 ETOT(AU) -2.578233681844E+03 DETOT -8.41E-06 tst  1.13E-07 PX  4.37E-04
 TTTTTTTTTTTTTTTTTTTTTTTTTTTTTT DIIS        TELAPSE      291.38 TCPU     8084.43
 DIIS TEST: 0.22072E-05 AT SCF   CYCLE   8 - DIIS ACTIVE - HISTORY:     8 CYCLES
 TTTTTTTTTTTTTTTTTTTTTTTTTTTTTT FDIK        TELAPSE      293.25 TCPU     8144.17
 INSULATING STATE
 TOP OF VALENCE BANDS -    BAND    198; K    3; EIG -2.3756298E-01 AU
 TOP OF VALENCE BANDS -    BAND    198; K    1; EIG -2.3772621E-01 AU
 BOTTOM OF VIRTUAL BANDS - BAND    199; K    1; EIG -8.3828105E-02 AU
 INDIRECT ENERGY BAND GAP:   4.1833 eV
 TTTTTTTTTTTTTTTTTTTTTTTTTTTTTT PDIG        TELAPSE      294.85 TCPU     8151.15
 CHARGE NORMALIZATION FACTOR   1.00000000
 TOTAL ATOMIC CHARGES:
   4.4860016   4.4832867   4.4870530   4.4913376   4.4871636   4.4914690
   4.4912720   4.4870168   4.4911369   4.4868734   4.4831894   4.4858221
   0.8798925   0.8744735   0.8745653   0.8800129   0.8782837   0.8809754
   0.8810748   0.8783338   0.8784790   0.8737034   0.8738867   0.8786484
   0.8785018   0.8737206   0.8738468   0.8785874   0.8782867   0.8809792
   0.8811346   0.8783937   0.8798744   0.8744362   0.8745340   0.8799773
   5.9238115   5.9206220   6.1717927   6.1507536   6.1507704   6.1718105
   6.1712498   6.1724948   6.1725134   6.1712641   5.9212459   5.9244066
   5.9094076   5.9508229   6.1641607   6.1683520   6.1684225   6.1643313
   6.1642267   6.1683488   6.1684070   6.1642709   5.9512899   5.9099578
   5.9239702   5.9207608   6.1711743   6.1724351   6.1726005   6.1713275
   6.1717382   6.1507456   6.1507578   6.1717695   5.9211127   5.9243253
   8.4956534   8.4995240   8.4958885   8.4997397   8.5122420   8.4898636
   8.4996055   8.4957584   8.4898975   8.5122610   8.4998796   8.4960118
 TTTTTTTTTTTTTTTTTTTTTTTTTTTTTT MOQGAD      TELAPSE      294.96 TCPU     8151.25
 TTTTTTTTTTTTTTTTTTTTTTTTTTTTTT SHELLXN     TELAPSE      318.85 TCPU     8913.68
 TTTTTTTTTTTTTTTTTTTTTTTTTTTTTT MONMO3      TELAPSE      319.51 TCPU     8934.64
 NUMERICALLY INTEGRATED DENSITY    395.9999558178
 TTTTTTTTTTTTTTTTTTTTTTTTTTTTTT NUMDFT      TELAPSE      321.10 TCPU     8985.41
 CYC   9 ETOT(AU) -2.578233682024E+03 DETOT -1.79E-07 tst  4.72E-09 PX  1.14E-04
 TTTTTTTTTTTTTTTTTTTTTTTTTTTTTT DIIS        TELAPSE      321.41 TCPU     8992.34
 DIIS TEST: 0.13178E-06 AT SCF   CYCLE   9 - DIIS ACTIVE - HISTORY:     9 CYCLES
 TTTTTTTTTTTTTTTTTTTTTTTTTTTTTT FDIK        TELAPSE      323.29 TCPU     9051.95
 INSULATING STATE
 TOP OF VALENCE BANDS -    BAND    198; K    3; EIG -2.3755785E-01 AU
 TOP OF VALENCE BANDS -    BAND    198; K    1; EIG -2.3773263E-01 AU
 BOTTOM OF VIRTUAL BANDS - BAND    199; K    1; EIG -8.3826052E-02 AU
 INDIRECT ENERGY BAND GAP:   4.1833 eV
 TTTTTTTTTTTTTTTTTTTTTTTTTTTTTT PDIG        TELAPSE      324.90 TCPU     9058.92
 CHARGE NORMALIZATION FACTOR   1.00000000
 TOTAL ATOMIC CHARGES:
   4.4860427   4.4832520   4.4870019   4.4913273   4.4871127   4.4914590
   4.4912697   4.4869693   4.4911342   4.4868257   4.4831603   4.4858673
   0.8798787   0.8744944   0.8745878   0.8799997   0.8783006   0.8809693
   0.8810647   0.8783480   0.8784727   0.8737010   0.8738818   0.8786421
   0.8784948   0.8737177   0.8738427   0.8785817   0.8783032   0.8809734
   0.8811243   0.8784082   0.8798603   0.8744572   0.8745564   0.8799645
   5.9237912   5.9205188   6.1719112   6.1506693   6.1506828   6.1719273
   6.1711508   6.1725584   6.1726220   6.1712227   5.9212099   5.9244441
   5.9094880   5.9507732   6.1641739   6.1683361   6.1684211   6.1643600
   6.1642489   6.1683402   6.1683974   6.1642911   5.9512671   5.9100605
   5.9239554   5.9206623   6.1710757   6.1724984   6.1727095   6.1712859
   6.1718613   6.1506655   6.1506660   6.1718815   5.9210720   5.9243572
   8.4956301   8.4995048   8.4958622   8.4997179   8.5123022   8.4899253
   8.4995827   8.4957288   8.4899696   8.5123389   8.4998545   8.4959792
 TTTTTTTTTTTTTTTTTTTTTTTTTTTTTT MOQGAD      TELAPSE      325.00 TCPU     9059.03
 TTTTTTTTTTTTTTTTTTTTTTTTTTTTTT SHELLXN     TELAPSE      348.92 TCPU     9822.49
 +++ ENERGIES IN A.U. +++
 ::: EXT EL-POLE                                  -2.7927462679034E+03
 ::: EXT EL-SPHEROPOLE                             3.1852161582015E+01
 ::: BIELET ZONE E-E                               4.6089300895093E+03
 ::: TOTAL E-E                                     1.8480359831880E+03
 ::: TOTAL E-N + N-E                              -7.3483178300407E+03
 ::: TOTAL N-N                                     6.2964494715876E+02
 ::: KINETIC ENERGY                                2.5598303894952E+03
 ::: PSEUDO TOTAL   ENERGY                        -2.3108065101988E+03
 ::: VIRIAL COEFFICIENT                            1.0511275803195E+00
 TTTTTTTTTTTTTTTTTTTTTTTTTTTTTT MONMO3      TELAPSE      349.59 TCPU     9843.66
 NUMERICALLY INTEGRATED DENSITY    395.9999558169
 EXCHANGE ENERGY: -0.252033199383E+03  CORRELATION ENERGY: -0.153939724618E+02
 TTTTTTTTTTTTTTTTTTTTTTTTTTTTTT NUMDFT      TELAPSE      351.19 TCPU     9894.82
 CYC  10 ETOT(AU) -2.578233682044E+03 DETOT -2.04E-08 tst  3.67E-10 PX  1.14E-04

 == SCF ENDED - CONVERGENCE ON ENERGY      E(AU) -2.5782336820440E+03 CYCLES  10


 ENERGY EXPRESSION=HARTREE+FOCK EXCH*0.00000+(HSESOL     EXCH)*1.00000+PBESOL     CORR


 TOTAL ENERGY(DFT)(AU)( 10) -2.5782336820440E+03 DE-2.0E-08 tester 3.7E-10
 TTTTTTTTTTTTTTTTTTTTTTTTTTTTTT EDFT        TELAPSE      351.19 TCPU     9894.83
 
 INFORMATION **** DFTD3 ENERGY **** CALCULATE DFTD3 ENERGY

           DFT-D V3(BJ)
 DF                                         hsesol3c  
 parameters
 s6       :    1.0000
 s8       :    0.0000
 a1       :    0.5196
 a2       :    4.9385
 k1 k3    :   16.0000   -4.0000
 Cutoff   :   50.2022
 CN-Cutoff:   21.1671
 ABC-Cutoff:   21.1671
 
 Edisp /kcal,au:   -57.7688 -0.09206049

 E6    /kcal :   -61.8874
 E8    /kcal :     0.0000
 E6(ABC) "   :   4.118557
 
 INFORMATION **** DFTD3 ENERGY **** NORMAL TERMINATION OF DFTD3 MODULE

 GCP ENERGY CALCULATION
  level        hsesol3c            basis:hsesol3c
  Nbf            948
  Atoms           84

  Parameters: 
  sigma     1.0000
  eta       1.4281
  alpha     0.2936
  beta      1.9467

  dmp_scal      4.0000
  dmp_exp       6.0000
 cutoffs: 
   distance [bohr] 60.0
   noise    [a.u.] 2.2E-16
 SR-damping   T
 ** gCP correction **
  Egcp:        0.1666090491 / (a.u.) ||     104.5488 / (kcal/mol)
 INFORMATION **** GCP **** NORMAL TERMINATION OF GCP MODULE

 *******************************************************************************

 DFT-D3-GCP DISPERSION AND COUNTERPOISE CORRECTION

 D3 DISPERSION ENERGY (AU)      -9.2060492628845E-02
 GCP ENERGY (AU)                 1.6660904910204E-01
 TOTAL ENERGY + DISP + GCP (AU) -2.5781591334875E+03

 *******************************************************************************

 EIGENVECTORS IN FORTRAN UNIT  8
 TTTTTTTTTTTTTTTTTTTTTTTTTTTTTT END         TELAPSE      354.41 TCPU     9903.95
 EEEEEEEEEE TERMINATION  DATE 19 02 2026 TIME 20:19:17.7
