 Default number of threads is:           32

         
 *******************************************************************************
 *                                                                             *
 *                               CRYSTAL23                                     *
 *                      public : 1.0.1 - October 2022                          *
 *                       HTTP://WWW.CRYSTAL.UNITO.IT                           *
 *                                                                             *
 *                              MAIN AUTHORS                                   *
 *                                                                             *
 *  R. DOVESI(1,11), V.R. SAUNDERS(2), C. ROETTI(1,11), R. ORLANDO(1,11),      *
 *  C.M. ZICOVICH-WILSON(1,3), F. PASCALE(4), B. CIVALLERI(1,11),              *
 *  K. DOLL(5), N.M. HARRISON(6), I.J. BUSH(7), Ph. D'ARCO(8),                 *
 *  M. LLUNELL(9), M. CAUSA'(10), Y. NOEL(8), L. MASCHIO(1,11), A. ERBA(1,11)  *
 *  M. RE'RAT(14), S. CASASSA(1,11), B.G. SEARLE(2), J.K. DESMARAIS(1)         *
 *                                                                             *
 *        CONTRIBUTIONS TO THE CODE HAVE ALSO BEEN GIVEN BY                    *
 *                                                                             *
 *  M. FERRABONE(1,11), M. DE LA PIERRE(1,11), M. FERRERO(1,11),               *
 *  J. BAIMA(1,11), E. ALBANESE(1,11), M.F. PEINTINGER(12), R. BAST(13),       *
 *  B. KIRTMAN(15), V. LACIVITA(1,11), R. DEMICHELIS(1,16)                     *
 *  G. BRANDEBURG(17), S. SALUSTRO(1,11), G. SANSONE(1,11)                     *
 *  M.T. RUGGIERO(18), L.E. DAGA(1), L. DONA'(1), A. COSSARD(1)                *
 *                                                                             *
 * (1) THEORETICAL CHEMISTRY GROUP - UNIVERSITA' DI TORINO - TORINO (ITALY)    *
 * (2) SCIENTIFIC COMPUTING DEPARTMENT - STFC DARESBURY (UK)                   *
 * (3) UNIVERSIDAD AUTONOMA DEL ESTADO DE MORELOS - CUERNAVACA (MEXICO)        *
 * (4) UNIVERSITE' DE LORRAINE - NANCY (FRANCE)                                *
 * (5) UNIVERSITAET STUTTGART- STUTTGART (GERMANY)                             *
 * (6) IMPERIAL COLLEGE - LONDON (UK)                                          *
 * (7) SCIENTIFIC COMPUTING DEPARTMENT - STFC RAL (UK)                         *
 * (8) UPMC - SORBONNE UNIVERSITES - PARIS (FRANCE)                            *
 * (9) UNIVERSIDAD DE BARCELONA - BARCELONA (SPAIN)                            *
 *(10) UNIVERSITA' DI NAPOLI "FEDERICO II" - NAPOLI (ITALY)                    *
 *(11) NIS - NANOSTRUCTURED INTERFACES AND SURFACES - TORINO (ITALY)           *
 *(12) MPI FUER CHEMISCHE ENERGIEKONVERSION - MUELHEIM AN DER RUHR (GERMANY)   *
 *(13) UNIVERSITY OF TROMSO - TROMSO (NORWAY)                                  *
 *(14) UNIVERSITE' DE PAU ET DES PAYS DE L'ADOUR - PAU (FRANCE)                *
 *(15) UNIVERSITY OF CALIFORNIA SANTA BARBARA - SANTA BARBARA (USA)            *
 *(16) CURTIN UNIVERSITY - PERTH (AUSTRALIA)                                   *
 *(17) UNIVERSITY COLLEGE LONDON - LONDON (UK)                                 *
 *(18) UNIVERSITY OF VERMONT - BURLINGTON (USA)                                *
 *                                                                             *
 *******************************************************************************
 EEEEEEEEEE STARTING  DATE 19 02 2026 TIME 19:00:39.4
 cof-1_z39_L020_incl                                                             

 CRYSTAL CALCULATION
 (INPUT ACCORDING TO THE INTERNATIONAL TABLES FOR X-RAY CRYSTALLOGRAPHY)
 CRYSTAL FAMILY                       :  TRICLINIC   
 CRYSTAL CLASS  (GROTH - 1921)        :  TRICLINIC PEDIAL                     

 SPACE GROUP (NONCENTROSYMMETRIC)     :  P 1             

 LATTICE PARAMETERS  (ANGSTROMS AND DEGREES) - CONVENTIONAL CELL
        A           B           C        ALPHA        BETA       GAMMA
    15.02361    15.02392     4.38292    66.72200    89.99995   119.99596


 NUMBER OF IRREDUCIBLE ATOMS IN THE CONVENTIONAL CELL:   42

 INPUT COORDINATES

 ATOM AT. N.              COORDINATES
   1   5     5.751632600000E-01  1.502758300000E-01  5.012232800000E-01
   2   5     7.342189200000E-01  3.093354800000E-01  5.012233000000E-01
   3   5     5.753568800000E-01  3.097141000000E-01  4.986481200000E-01
   4   5     1.887379700000E-01  5.365908200000E-01  5.012232900000E-01
   5   5     3.478459400000E-01  5.365700500000E-01  5.012232900000E-01
   6   5     3.480241100000E-01  6.961050800000E-01  4.986481200000E-01
   7   1     8.649366100000E-01  2.327082800000E-01  4.958844400000E-01
   8   1     5.859026000000E-02  6.149571600000E-01  4.950680400000E-01
   9   1     8.649368000000E-01  5.179954600000E-01  4.949423900000E-01
  10   1     5.869915000000E-02  3.296031500000E-01  4.949737300000E-01
  11   1     6.522930900000E-01  1.951762000000E-02  5.041125500000E-01
  12   1     2.701276700000E-01  8.258253100000E-01  5.049290000000E-01
  13   1     3.670582700000E-01  1.941866000000E-02  5.050547200000E-01
  14   1     5.555029200000E-01  8.257208500000E-01  5.050231700000E-01
  15   1     6.529657300000E-01  5.178324300000E-01  4.958844900000E-01
  16   1     2.709175600000E-01  3.295130600000E-01  4.950679900000E-01
  17   1     3.678059600000E-01  2.327463000000E-01  4.949422900000E-01
  18   1     5.562538500000E-01  6.148761300000E-01  4.949738300000E-01
  19   6     8.535781600000E-01  3.693116000000E-01  4.985538900000E-01
  20   6     9.083724400000E-01  3.165445500000E-01  4.960100800000E-01
  21   6     1.528834000000E-02  5.309780000000E-01  4.957903300000E-01
  22   6     9.083016500000E-01  4.773835200000E-01  4.964498200000E-01
  23   6     1.540621000000E-02  3.702019700000E-01  4.947539100000E-01
  24   6     6.988302000000E-02  4.777221300000E-01  4.964812000000E-01
  25   6     5.155052400000E-01  3.109227000000E-02  5.014431300000E-01
  26   6     5.684481900000E-01 -2.391125000000E-02  5.039869000000E-01
  27   6     3.540521200000E-01  8.691621800000E-01  5.042067300000E-01
  28   6     4.075917100000E-01 -2.379675000000E-02  5.035472600000E-01
  29   6     5.148906600000E-01  8.689632900000E-01  5.052430500000E-01
  30   6     4.072344500000E-01  8.145972800000E-01  5.035158200000E-01
  31   6     5.157327200000E-01  3.692424600000E-01  4.985538900000E-01
  32   6     5.690935500000E-01  4.773846900000E-01  4.960101300000E-01
  33   6     3.547235900000E-01  3.699647300000E-01  4.957902800000E-01
  34   6     4.081368100000E-01  3.163813300000E-01  4.964497500000E-01
  35   6     5.157228200000E-01  5.310499900000E-01  4.947539800000E-01
  36   6     4.078071100000E-01  4.776447300000E-01  4.964812000000E-01
  37   8     5.223642000000E-01  2.036178600000E-01  4.993390100000E-01
  38   8     6.808917100000E-01  2.027904700000E-01  5.047719900000E-01
  39   8     6.815193100000E-01  3.629954800000E-01  4.965754300000E-01
  40   8     2.419520300000E-01  6.428983400000E-01  4.993390300000E-01
  41   8     2.415539800000E-01  4.831077500000E-01  5.047719800000E-01
  42   8     4.011037300000E-01  6.433074400000E-01  4.965754100000E-01

 *******************************************************************************

 << INFORMATION >>: FROM NOW ON, ALL COORDINATES REFER TO THE PRIMITIVE CELL

 *******************************************************************************

 LATTICE PARAMETERS  (ANGSTROMS AND DEGREES) - PRIMITIVE CELL
       A          B          C        ALPHA      BETA     GAMMA        VOLUME
   15.02361   15.02392    4.38292    66.72200  89.99995 119.99596    762.380291

 COORDINATES OF THE EQUIVALENT ATOMS (FRACTIONAL UNITS)

 N. ATOM EQUIV AT. N.          X                  Y                  Z

   1   1   1    5 B    -4.24836740000E-01  1.50275830000E-01 -4.98776720000E-01

   2   2   1    5 B    -2.65781080000E-01  3.09335480000E-01 -4.98776700000E-01

   3   3   1    5 B    -4.24643120000E-01  3.09714100000E-01  4.98648120000E-01

   4   4   1    5 B     1.88737970000E-01 -4.63409180000E-01 -4.98776710000E-01

   5   5   1    5 B     3.47845940000E-01 -4.63429950000E-01 -4.98776710000E-01

   6   6   1    5 B     3.48024110000E-01 -3.03894920000E-01  4.98648120000E-01

   7   7   1    1 H    -1.35063390000E-01  2.32708280000E-01  4.95884440000E-01

   8   8   1    1 H     5.85902600000E-02 -3.85042840000E-01  4.95068040000E-01

   9   9   1    1 H    -1.35063200000E-01 -4.82004540000E-01  4.94942390000E-01

  10  10   1    1 H     5.86991500000E-02  3.29603150000E-01  4.94973730000E-01

  11  11   1    1 H    -3.47706910000E-01  1.95176200000E-02 -4.95887450000E-01

  12  12   1    1 H     2.70127670000E-01 -1.74174690000E-01 -4.95071000000E-01

  13  13   1    1 H     3.67058270000E-01  1.94186600000E-02 -4.94945280000E-01

  14  14   1    1 H    -4.44497080000E-01 -1.74279150000E-01 -4.94976830000E-01

  15  15   1    1 H    -3.47034270000E-01 -4.82167570000E-01  4.95884490000E-01

  16  16   1    1 H     2.70917560000E-01  3.29513060000E-01  4.95067990000E-01

  17  17   1    1 H     3.67805960000E-01  2.32746300000E-01  4.94942290000E-01

  18  18   1    1 H    -4.43746150000E-01 -3.85123870000E-01  4.94973830000E-01

  19  19   1    6 C    -1.46421840000E-01  3.69311600000E-01  4.98553890000E-01

  20  20   1    6 C    -9.16275600000E-02  3.16544550000E-01  4.96010080000E-01

  21  21   1    6 C     1.52883400000E-02 -4.69022000000E-01  4.95790330000E-01

  22  22   1    6 C    -9.16983500000E-02  4.77383520000E-01  4.96449820000E-01

  23  23   1    6 C     1.54062100000E-02  3.70201970000E-01  4.94753910000E-01

  24  24   1    6 C     6.98830200000E-02  4.77722130000E-01  4.96481200000E-01

  25  25   1    6 C    -4.84494760000E-01  3.10922700000E-02 -4.98556870000E-01

  26  26   1    6 C    -4.31551810000E-01 -2.39112500000E-02 -4.96013100000E-01

  27  27   1    6 C     3.54052120000E-01 -1.30837820000E-01 -4.95793270000E-01

  28  28   1    6 C     4.07591710000E-01 -2.37967500000E-02 -4.96452740000E-01

  29  29   1    6 C    -4.85109340000E-01 -1.31036710000E-01 -4.94756950000E-01

  30  30   1    6 C     4.07234450000E-01 -1.85402720000E-01 -4.96484180000E-01

  31  31   1    6 C    -4.84267280000E-01  3.69242460000E-01  4.98553890000E-01

  32  32   1    6 C    -4.30906450000E-01  4.77384690000E-01  4.96010130000E-01

  33  33   1    6 C     3.54723590000E-01  3.69964730000E-01  4.95790280000E-01

  34  34   1    6 C     4.08136810000E-01  3.16381330000E-01  4.96449750000E-01

  35  35   1    6 C    -4.84277180000E-01 -4.68950010000E-01  4.94753980000E-01

  36  36   1    6 C     4.07807110000E-01  4.77644730000E-01  4.96481200000E-01

  37  37   1    8 O    -4.77635800000E-01  2.03617860000E-01  4.99339010000E-01

  38  38   1    8 O    -3.19108290000E-01  2.02790470000E-01 -4.95228010000E-01

  39  39   1    8 O    -3.18480690000E-01  3.62995480000E-01  4.96575430000E-01

  40  40   1    8 O     2.41952030000E-01 -3.57101660000E-01  4.99339030000E-01

  41  41   1    8 O     2.41553980000E-01  4.83107750000E-01 -4.95228020000E-01

  42  42   1    8 O     4.01103730000E-01 -3.56692560000E-01  4.96575410000E-01

 NUMBER OF SYMMETRY OPERATORS         :    1
 *******************************************************************************
 * GEOMETRY EDITING - INPUT COORDINATES ARE GIVEN IN ANGSTROM         
 *******************************************************************************

 GCALCO - MAX INDICES DIRECT LATTICE VECTOR     9    10    32
 NO.OF VECTORS CREATED 6999 STARS 3500 RMAX   204.54286 BOHR

 GEOMETRY FOR WAVE FUNCTION - DIMENSIONALITY OF THE SYSTEM    3
 (NON PERIODIC DIRECTION: LATTICE PARAMETER FORMALLY SET TO 500)
 *******************************************************************************
 LATTICE PARAMETERS (ANGSTROMS AND DEGREES) - BOHR = 0.5291772083 ANGSTROM
 PRIMITIVE CELL - CENTRING CODE 1/0 VOLUME=   762.380291 - DENSITY  0.850 g/cm^3
         A              B              C           ALPHA      BETA       GAMMA 
    15.02361100    15.02391600     4.38292100    66.721997  89.999950 119.995964
 *******************************************************************************
 ATOMS IN THE ASYMMETRIC UNIT   42 - ATOMS IN THE UNIT CELL:   42
     ATOM                 X/A                 Y/B                 Z/C    
 *******************************************************************************
      1 T   5 B    -4.248367400000E-01  1.502758300000E-01 -4.987767200000E-01
      2 T   5 B    -2.657810800000E-01  3.093354800000E-01 -4.987767000000E-01
      3 T   5 B    -4.246431200000E-01  3.097141000000E-01  4.986481200000E-01
      4 T   5 B     1.887379700000E-01 -4.634091800000E-01 -4.987767100000E-01
      5 T   5 B     3.478459400000E-01 -4.634299500000E-01 -4.987767100000E-01
      6 T   5 B     3.480241100000E-01 -3.038949200000E-01  4.986481200000E-01
      7 T   1 H    -1.350633900000E-01  2.327082800000E-01  4.958844400000E-01
      8 T   1 H     5.859026000000E-02 -3.850428400000E-01  4.950680400000E-01
      9 T   1 H    -1.350632000000E-01 -4.820045400000E-01  4.949423900000E-01
     10 T   1 H     5.869915000000E-02  3.296031500000E-01  4.949737300000E-01
     11 T   1 H    -3.477069100000E-01  1.951762000000E-02 -4.958874500000E-01
     12 T   1 H     2.701276700000E-01 -1.741746900000E-01 -4.950710000000E-01
     13 T   1 H     3.670582700000E-01  1.941866000000E-02 -4.949452800000E-01
     14 T   1 H    -4.444970800000E-01 -1.742791500000E-01 -4.949768300000E-01
     15 T   1 H    -3.470342700000E-01 -4.821675700000E-01  4.958844900000E-01
     16 T   1 H     2.709175600000E-01  3.295130600000E-01  4.950679900000E-01
     17 T   1 H     3.678059600000E-01  2.327463000000E-01  4.949422900000E-01
     18 T   1 H    -4.437461500000E-01 -3.851238700000E-01  4.949738300000E-01
     19 T   6 C    -1.464218400000E-01  3.693116000000E-01  4.985538900000E-01
     20 T   6 C    -9.162756000000E-02  3.165445500000E-01  4.960100800000E-01
     21 T   6 C     1.528834000000E-02 -4.690220000000E-01  4.957903300000E-01
     22 T   6 C    -9.169835000000E-02  4.773835200000E-01  4.964498200000E-01
     23 T   6 C     1.540621000000E-02  3.702019700000E-01  4.947539100000E-01
     24 T   6 C     6.988302000000E-02  4.777221300000E-01  4.964812000000E-01
     25 T   6 C    -4.844947600000E-01  3.109227000000E-02 -4.985568700000E-01
     26 T   6 C    -4.315518100000E-01 -2.391125000000E-02 -4.960131000000E-01
     27 T   6 C     3.540521200000E-01 -1.308378200000E-01 -4.957932700000E-01
     28 T   6 C     4.075917100000E-01 -2.379675000000E-02 -4.964527400000E-01
     29 T   6 C    -4.851093400000E-01 -1.310367100000E-01 -4.947569500000E-01
     30 T   6 C     4.072344500000E-01 -1.854027200000E-01 -4.964841800000E-01
     31 T   6 C    -4.842672800000E-01  3.692424600000E-01  4.985538900000E-01
     32 T   6 C    -4.309064500000E-01  4.773846900000E-01  4.960101300000E-01
     33 T   6 C     3.547235900000E-01  3.699647300000E-01  4.957902800000E-01
     34 T   6 C     4.081368100000E-01  3.163813300000E-01  4.964497500000E-01
     35 T   6 C    -4.842771800000E-01 -4.689500100000E-01  4.947539800000E-01
     36 T   6 C     4.078071100000E-01  4.776447300000E-01  4.964812000000E-01
     37 T   8 O    -4.776358000000E-01  2.036178600000E-01  4.993390100000E-01
     38 T   8 O    -3.191082900000E-01  2.027904700000E-01 -4.952280100000E-01
     39 T   8 O    -3.184806900000E-01  3.629954800000E-01  4.965754300000E-01
     40 T   8 O     2.419520300000E-01 -3.571016600000E-01  4.993390300000E-01
     41 T   8 O     2.415539800000E-01  4.831077500000E-01 -4.952280200000E-01
     42 T   8 O     4.011037300000E-01 -3.566925600000E-01  4.965754100000E-01

 T = ATOM BELONGING TO THE ASYMMETRIC UNIT

 ****    1 SYMMOPS - TRANSLATORS IN FRACTIONAL UNITS
 **** MATRICES AND TRANSLATORS IN THE CRYSTALLOGRAPHIC REFERENCE FRAME
   V INV                    ROTATION MATRICES                   TRANSLATORS
   1   1  1.00 -0.00  0.00  0.00  1.00  0.00  0.00  0.00  1.00  0.00  0.00  0.00

 DIRECT LATTICE VECTORS CARTESIAN COMPONENTS (ANGSTROM)
          X                    Y                    Z
   0.130113578931E+02  -0.751088897922E+01   0.000000000000E+00
   0.000000000000E+00   0.150239160000E+02   0.000000000000E+00
   0.999869622490E+00   0.173209910012E+01   0.390001153045E+01


 CARTESIAN COORDINATES - PRIMITIVE CELL
 *******************************************************************************
 *      ATOM          X(ANGSTROM)         Y(ANGSTROM)         Z(ANGSTROM)
 *******************************************************************************
    1     5 B    -6.026414560993E+00  4.584702327310E+00 -1.945234959119E+00
    2     5 B    -3.956884423819E+00  5.779751778765E+00 -1.945234881119E+00
    3     5 B     6.984887766922E+00 -5.367141668842E-01 -1.955278112812E+00
    4     5 B     1.957025594945E+00  5.780174776667E+00 -1.945234920119E+00
    5     5 B     4.027236336252E+00  4.584820431553E+00 -1.945234920119E+00
    6     5 B     4.026979735632E+00  6.975862656601E+00 -1.955278112812E+00
    7     1 H    -2.261407940208E+00  3.637457670839E+00 -1.966056496678E+00
    8     1 H     1.257342336169E+00 -5.367409316103E+00  1.930771064356E+00
    9     1 H    -1.262477772738E+00 -5.369861751871E+00  1.930281027907E+00
   10     1 H     2.587952227359E-01  3.636291692307E+00 -1.969608276179E+00
   11     1 H    -5.019961845328E+00  2.045892875811E+00 -1.933966772804E+00
   12     1 H     4.019590959802E+00 -3.771097784946E+00  1.969228922058E+00
   13     1 H     4.281045768309E+00 -3.322483872297E+00 -1.930292298941E+00
   14     1 H    -5.278553263962E+00  1.594963087611E+00  1.969596186143E+00
   15     1 H    -4.019567250311E+00 -3.778588116758E+00  1.933955228770E+00
   16     1 H     3.020139154452E+00  2.041152538520E+00 -1.969240661092E+00
   17     1 H     4.280663118926E+00 -1.405988759429E-01 -1.969730892542E+00
   18     1 H    -5.278830674772E+00 -1.595796879344E+00  1.930403644270E+00
   19     6 C    -2.406527696305E+00  5.779710284709E+00 -1.955645610898E+00
   20     6 C    -1.696123187077E+00  4.570982673153E+00 -1.965566499230E+00
   21     6 C     6.946477534220E-01 -6.302618170127E+00  1.933588003685E+00
   22     6 C    -6.967349559442E-01 -6.303109682832E+00  1.936160022289E+00
   23     6 C    -3.047245051872E-01  4.571032669586E+00 -1.970465576714E+00
   24     6 C     4.058198313951E-01  5.780229087335E+00 -1.963729125797E+00
   25     6 C     6.208931303989E+00 -4.268324879001E+00 -1.944377541584E+00
   26     6 C    -5.111153857864E+00  3.755052378197E+00  1.965554721195E+00
   27     6 C     5.110839838897E+00 -3.751606560172E+00  1.966412060729E+00
   28     6 C     5.806803221815E+00 -2.546702699818E+00  1.963840120125E+00
   29     6 C    -5.806754062335E+00  2.550048903811E+00  1.970453720679E+00
   30     6 C     5.802123348193E+00 -4.972028335196E+00  1.963717503763E+00
   31     6 C     6.209002264375E+00  8.053021439144E-01 -1.955645610898E+00
   32     6 C    -5.110732577942E+00 -3.756099311552E+00  1.934445226219E+00
   33     6 C     4.111291600208E+00  2.020688321400E+00 -1.966423721764E+00
   34     6 C     4.806929505868E+00  8.156173227566E-01 -1.963851781160E+00
   35     6 C    -5.806414233212E+00 -2.551150500752E+00  1.929546226735E+00
   36     6 C     4.802671107071E+00  3.240955912844E+00 -1.963729125797E+00
   37     8 O     6.296071841653E+00 -1.731476338422E+00 -1.952583633845E+00
   38     8 O    -4.647195611236E+00  4.585709934943E+00 -1.931394949201E+00
   39     8 O    -3.647355551886E+00 -6.318111440041E+00  1.936649902737E+00
   40     8 O     3.647398382702E+00 -6.317435494409E+00  1.947427974603E+00
   41     8 O     2.647781830868E+00  4.586101120885E+00 -1.931394988201E+00
   42     8 O    -7.295943042052E+00 -5.578444254461E-04  1.936649824737E+00

 *******************************************************************************
 STARTING BASIS SET HANDLING 
 *******************************************************************************

 Loading internal basis set: SOLDEF2MSVP         

 Please cite in your publication:
 L. Dona', J. G. Brandenburg and B. Civalleri, J. Chem. Phys., 151, 121101 (2019
 )                                                                              
                                                                                
                    

 *******************************************************************************
 LOCAL ATOMIC FUNCTIONS BASIS SET
 *******************************************************************************
   ATOM   X(AU)   Y(AU)   Z(AU)  N. TYPE  EXPONENT  S COEF   P COEF   D/F/G COEF
 *******************************************************************************
   1 B  -11.388   8.664  -3.676
                                  1 S  
                                         2.410E+03 1.755E-03 0.000E+00 0.000E+00
                                         3.619E+02 1.344E-02 0.000E+00 0.000E+00
                                         8.231E+01 6.637E-02 0.000E+00 0.000E+00
                                         2.311E+01 2.303E-01 0.000E+00 0.000E+00
                                         7.252E+00 5.150E-01 0.000E+00 0.000E+00
                                  2 S  
                                         2.367E+00 1.000E+00 0.000E+00 0.000E+00
                                  3 S  
                                         5.533E-01 1.000E+00 0.000E+00 0.000E+00
                                  4 S  
                                         1.716E-01 1.000E+00 0.000E+00 0.000E+00
                           5-     7 P  
                                         6.002E+00 0.000E+00-3.555E-02 0.000E+00
                                         1.240E+00 0.000E+00-1.983E-01 0.000E+00
                                         3.367E-01 0.000E+00-5.048E-01 0.000E+00
                           8-    10 P  
                                         1.256E-01 0.000E+00 1.000E+00 0.000E+00
                          11-    15 D  
                                         8.880E-01 0.000E+00 0.000E+00 1.000E+00
   2 B   -7.477  10.922  -3.676
   3 B   13.200  -1.014  -3.695
   4 B    3.698  10.923  -3.676
   5 B    7.610   8.664  -3.676
   6 B    7.610  13.182  -3.695
   7 H   -4.273   6.874  -3.715
                                 91 S  
                                         1.874E+01 1.968E-02 0.000E+00 0.000E+00
                                         2.826E+00 1.380E-01 0.000E+00 0.000E+00
                                         6.401E-01 4.783E-01 0.000E+00 0.000E+00
                                 92 S  
                                         1.756E-01 1.000E+00 0.000E+00 0.000E+00
   8 H    2.376 -10.143   3.649
   9 H   -2.386 -10.148   3.648
  10 H    0.489   6.872  -3.722
  11 H   -9.486   3.866  -3.655
  12 H    7.596  -7.126   3.721
  13 H    8.090  -6.279  -3.648
  14 H   -9.975   3.014   3.722
  15 H   -7.596  -7.140   3.655
  16 H    5.707   3.857  -3.721
  17 H    8.089  -0.266  -3.722
  18 H   -9.976  -3.016   3.648
  19 C   -4.548  10.922  -3.696
                                115 S  
                                         3.624E+03 1.634E-03 0.000E+00 0.000E+00
                                         5.440E+02 1.252E-02 0.000E+00 0.000E+00
                                         1.237E+02 6.211E-02 0.000E+00 0.000E+00
                                         3.476E+01 2.182E-01 0.000E+00 0.000E+00
                                         1.093E+01 4.980E-01 0.000E+00 0.000E+00
                                116 S  
                                         3.574E+00 1.000E+00 0.000E+00 0.000E+00
                                117 S  
                                         7.742E-01 1.000E+00 0.000E+00 0.000E+00
                                118 S  
                                         2.330E-01 1.000E+00 0.000E+00 0.000E+00
                         119-   121 P  
                                         9.443E+00 0.000E+00 3.790E-02 0.000E+00
                                         2.002E+00 0.000E+00 2.082E-01 0.000E+00
                                         5.463E-01 0.000E+00 5.047E-01 0.000E+00
                         122-   124 P  
                                         1.820E-01 0.000E+00 1.000E+00 0.000E+00
                         125-   129 D  
                                         8.880E-01 0.000E+00 0.000E+00 1.000E+00
  20 C   -3.205   8.638  -3.714
  21 C    1.313 -11.910   3.654
  22 C   -1.317 -11.911   3.659
  23 C   -0.576   8.638  -3.724
  24 C    0.767  10.923  -3.711
  25 C   11.733  -8.066  -3.674
  26 C   -9.659   7.096   3.714
  27 C    9.658  -7.090   3.716
  28 C   10.973  -4.813   3.711
  29 C  -10.973   4.819   3.724
  30 C   10.964  -9.396   3.711
  31 C   11.733   1.522  -3.696
  32 C   -9.658  -7.098   3.656
  33 C    7.769   3.819  -3.716
  34 C    9.084   1.541  -3.711
  35 C  -10.973  -4.821   3.646
  36 C    9.076   6.125  -3.711
  37 O   11.898  -3.272  -3.690
                                385 S  
                                         6.773E+03 1.727E-03 0.000E+00 0.000E+00
                                         1.017E+03 1.325E-02 0.000E+00 0.000E+00
                                         2.313E+02 6.603E-02 0.000E+00 0.000E+00
                                         6.501E+01 2.353E-01 0.000E+00 0.000E+00
                                         2.050E+01 5.498E-01 0.000E+00 0.000E+00
                                386 S  
                                         6.716E+00 1.000E+00 0.000E+00 0.000E+00
                                387 S  
                                         1.147E+00 1.000E+00 0.000E+00 0.000E+00
                                388 S  
                                         3.342E-01 1.000E+00 0.000E+00 0.000E+00
                         389-   391 P  
                                         1.769E+01 0.000E+00 4.359E-02 0.000E+00
                                         3.854E+00 0.000E+00 2.318E-01 0.000E+00
                                         1.047E+00 0.000E+00 5.146E-01 0.000E+00
                         392-   394 P  
                                         2.759E-01 0.000E+00 1.000E+00 0.000E+00
                         395-   399 D  
                                         8.000E-01 0.000E+00 0.000E+00 1.000E+00
  38 O   -8.782   8.666  -3.650
  39 O   -6.893 -11.940   3.660
  40 O    6.893 -11.938   3.680
  41 O    5.004   8.666  -3.650
  42 O  -13.787  -0.001   3.660

 *******************************************************************************
 FINISHED BASIS SET HANDLING 
 *******************************************************************************

 INFORMATION **** SET_MPP **** PCRYSTAL CALCULATION
 INFORMATION **** READM2 **** NEW DEFAULT: FOCK/KS MATRIX MIXING SET TO 30 %
 INFORMATION **** READM2 **** NEW DEFAULT: FULL DIRECT SCF MODE
 INFORMATION **** READM2 **** NEW DEFAULT: COULOMB BIPOLAR BUFFER SET TO 32 Mb
 INFORMATION **** READM2 **** NEW DEFAULT: EXCHANGE BIPOLAR BUFFER SET TO 32 Mb

 *******************************************************************************
 NEW DEFAULT: DFT INTEGRATION GRID INCREASED TO XLGRID
 NEW DEFAULT: DIIS ACCELERATOR ACTIVE
 USE KEYWORD NODIIS TO TURN IT OFF
 *******************************************************************************

 WARNING **** RDDFTP **** HSEsol-HJS ACTIVE
 RANGE SEPARATION - OMEGA:   0.110000000000000     
 WARNING **** RDDFTP **** HSEsol-3c has to be combined with sol-def2-mSVP basis set
 *******************************************************************************
 N. OF ATOMS PER CELL        42  COULOMB OVERLAP TOL         (T1) 10**   -6
 NUMBER OF SHELLS           234  COULOMB PENETRATION TOL     (T2) 10**   -6
 NUMBER OF AO               474  EXCHANGE OVERLAP TOL        (T3) 10**   -6
 N. OF ELECTRONS PER CELL   198  EXCHANGE PSEUDO OVP (F(G))  (T4) 10**   -6
 CORE ELECTRONS PER CELL     60  EXCHANGE PSEUDO OVP (P(G))  (T5) 10**  -12
 N. OF SYMMETRY OPERATORS     1  POLE ORDER IN MONO ZONE                  4
 *******************************************************************************
 TYPE OF CALCULATION :  RESTRICTED CLOSED SHELL
 KOHN-SHAM HAMILTONIAN

 (EXCHANGE)[CORRELATION] FUNCTIONAL:(HSEsol GGA)[PBEsol]

 RANGE-SEPARATED HYBRID FUNCTIONAL 
 OMEGA (SHORT-RANGE)[LONG-RANGE]:(    0.1100)[    0.0000]

 HYBRID EXCHANGE - PERCENTAGE OF FOCK EXCHANGE    25.0000

 CAPPA:IS1  2;IS2  2;IS3  8; K PTS MONK NET  20; SYMMOPS:K SPACE   2;G SPACE   1

 *******************************************************************************
 MAX NUMBER OF SCF CYCLES      50  CONVERGENCE ON DELTAP        10**-16
 WEIGHT OF F(I) IN F(I+1)      30% CONVERGENCE ON ENERGY        10**- 6
 SHRINK. FACT.(MONKH.)    2  2  8  NUMBER OF K POINTS IN THE IBZ     20
 SHRINKING FACTOR(GILAT NET)    8  NUMBER OF K POINTS(GILAT NET)   1028
 *******************************************************************************
 *** K POINTS COORDINATES (OBLIQUE COORDINATES IN UNITS OF IS =  2)
   1-R(  0  0  0)   2-R(  1  0  0)   3-R(  0  1  0)   4-R(  1  1  0)
   5-C(  0  0  1)   6-C(  1  0  1)   7-C(  0  1  1)   8-C(  1  1  1)
   9-C(  0  0  2)  10-C(  1  0  2)  11-C(  0  1  2)  12-C(  1  1  2)
  13-C(  0  0  3)  14-C(  1  0  3)  15-C(  0  1  3)  16-C(  1  1  3)
  17-R(  0  0  4)  18-R(  1  0  4)  19-R(  0  1  4)  20-R(  1  1  4)

 DIRECT LATTICE VECTORS COMPON. (A.U.)     RECIP. LATTICE VECTORS COMPON. (A.U.) 
        X            Y            Z              X            Y            Z
   24.5879030  -14.1935232    0.0000000      0.2555397    0.0000000   -0.0655143
    0.0000000   28.3910867    0.0000000      0.1277517    0.2213084   -0.1310414
    1.8894798    3.2731929    7.3699537      0.0000000    0.0000000    0.8525407

 DISK SPACE FOR EIGENVECTORS (FTN 10)     7189632 REALS

 SYMMETRY ADAPTION OF THE BLOCH FUNCTIONS DISABLED
 TTTTTTTTTTTTTTTTTTTTTTTTTTTTTT gordsh1     TELAPSE        0.04 TCPU        0.04

 MATRIX SIZE: P(G)  337400, F(G)   70088, P(G) IRR  170365, F(G) IRR   70784
 MAX G-VECTOR INDEX FOR 1- AND 2-ELECTRON INTEGRALS  73

 TTTTTTTTTTTTTTTTTTTTTTTTTTTTTT INPUT       TELAPSE       10.23 TCPU        0.31

 NEIGHBORS OF THE NON-EQUIVALENT ATOMS

 N = NUMBER OF NEIGHBORS AT DISTANCE R
    ATOM  N     R/ANG      R/AU   NEIGHBORS (ATOM LABELS AND CELL INDICES)
   1 B    1     1.3791     2.6061   37 O   -1 0 0
   1 B    1     1.3793     2.6065   38 O    0 0 0
   1 B    1     1.5503     2.9297   25 C   -1 0 0
   1 B    1     2.3895     4.5155    3 B   -1 0 0
   1 B    1     2.3898     4.5160    2 B    0 0 0
   1 B    1     2.5632     4.8437   26 C    0 0-1

   2 B    1     1.3793     2.6065   39 O    0 1-1
   2 B    1     1.3793     2.6065   38 O    0 0 0
   2 B    1     1.5504     2.9298   19 C    0 0 0
   2 B    1     2.3895     4.5156    3 B   -1 0 0
   2 B    1     2.3898     4.5160    1 B    0 0 0
   2 B    1     2.5634     4.8440   22 C    0 1-1

   3 B    1     1.3791     2.6061   37 O    0 0 0
   3 B    1     1.3793     2.6064   39 O    1 1-1
   3 B    1     1.5502     2.9294   31 C    0 0 0
   3 B    1     2.3895     4.5155    1 B    1 0 0
   3 B    1     2.3895     4.5156    2 B    1 0 0
   3 B    1     2.5629     4.8433   32 C    1 1-1

   4 B    1     1.3795     2.6068   40 O    0 1-1
   4 B    1     1.3795     2.6070   41 O    0 0 0
   4 B    1     1.5513     2.9316   24 C    0 0 0
   4 B    1     2.3905     4.5174    6 B    0 0 0
   4 B    1     2.3905     4.5175    5 B    0 0 0
   4 B    1     2.5648     4.8468   23 C    0 0 0

   5 B    1     1.3795     2.6069   41 O    0 0 0
   5 B    1     1.3797     2.6072   42 O    1 1-1
   5 B    1     1.5516     2.9322   36 C    0 0 0
   5 B    1     2.3905     4.5175    4 B    0 0 0
   5 B    1     2.3911     4.5185    6 B    0 0 0
   5 B    1     2.5651     4.8473   35 C    1 1-1

   6 B    1     1.3795     2.6068   40 O    0 1-1
   6 B    1     1.3796     2.6071   42 O    1 1-1
   6 B    1     1.5516     2.9322   30 C    0 1-1
   6 B    1     2.3905     4.5174    4 B    0 0 0
   6 B    1     2.3911     4.5185    5 B    0 0 0
   6 B    1     2.5651     4.8473   29 C    1 1-1

   7 H    1     1.0913     2.0623   20 C    0 0 0
   7 H    1     2.1472     4.0576   19 C    0 0 0
   7 H    1     2.1680     4.0969   23 C    0 0 0
   7 H    1     2.5202     4.7625   10 H    0 0 0
   7 H    1     2.5676     4.8520   38 O    0 0 0
   7 H    1     2.7321     5.1630    2 B    0 0 0

   8 H    1     1.0914     2.0625   21 C    0 0 0
   8 H    1     2.1493     4.0616   24 C    0-1 1
   8 H    1     2.1666     4.0942   22 C    0 0 0
   8 H    1     2.5198     4.7618    9 H    0 0 0
   8 H    1     2.5720     4.8604   40 O    0 0 0
   8 H    1     2.7362     5.1707    4 B    0-1 1

   9 H    1     1.0914     2.0624   22 C    0 0 0
   9 H    1     2.1471     4.0575   19 C    0-1 1
   9 H    1     2.1680     4.0970   21 C    0 0 0
   9 H    1     2.5198     4.7618    8 H    0 0 0
   9 H    1     2.5665     4.8500   39 O    0 0 0
   9 H    1     2.7315     5.1618    2 B    0-1 1

  10 H    1     1.0915     2.0626   23 C    0 0 0
  10 H    1     2.1490     4.0610   24 C    0 0 0
  10 H    1     2.1669     4.0948   20 C    0 0 0
  10 H    1     2.5202     4.7625    7 H    0 0 0
  10 H    1     2.5712     4.8588   41 O    0 0 0
  10 H    1     2.7351     5.1686    4 B    0 0 0

  11 H    1     1.0913     2.0623   26 C    0 0-1
  11 H    1     2.1469     4.0571   25 C   -1 0 0
  11 H    1     2.1680     4.0968   29 C    0 0-1
  11 H    1     2.5198     4.7617   14 H    0 0-1
  11 H    1     2.5670     4.8510   38 O    0 0 0
  11 H    1     2.7310     5.1609    1 B    0 0 0

  12 H    1     1.0914     2.0625   27 C    0 0 0
  12 H    1     2.1493     4.0617   30 C    0 0 0
  12 H    1     2.1664     4.0939   28 C    0 0 0
  12 H    1     2.5192     4.7606   13 H    0 0 1
  12 H    1     2.5735     4.8632   40 O    0 0 0
  12 H    1     2.7371     5.1723    6 B    0-1 1

  13 H    1     1.0914     2.0624   28 C    0 0-1
  13 H    1     2.1475     4.0581   25 C    0 0 0
  13 H    1     2.1679     4.0967   27 C    0 0-1
  13 H    1     2.5192     4.7606   12 H    0 0-1
  13 H    1     2.5675     4.8519   37 O    0 0 0
  13 H    1     2.7328     5.1643    1 B    1 0 0

  14 H    1     1.0914     2.0625   29 C    0 0 0
  14 H    1     2.1491     4.0612   30 C   -1 0 0
  14 H    1     2.1666     4.0942   26 C    0 0 0
  14 H    1     2.5198     4.7617   11 H    0 0 1
  14 H    1     2.5723     4.8609   42 O    0 0 0
  14 H    1     2.7355     5.1693    6 B   -1-1 1

  15 H    1     1.0914     2.0624   32 C    0 0 0
  15 H    1     2.1475     4.0582   31 C   -1-1 1
  15 H    1     2.1678     4.0966   35 C    0 0 0
  15 H    1     2.5200     4.7621   18 H    0 0 0
  15 H    1     2.5667     4.8503   39 O    0 0 0
  15 H    1     2.7315     5.1618    3 B   -1-1 1

  16 H    1     1.0913     2.0623   33 C    0 0 0
  16 H    1     2.1487     4.0605   36 C    0 0 0
  16 H    1     2.1667     4.0945   34 C    0 0 0
  16 H    1     2.5197     4.7616   17 H    0 0 0
  16 H    1     2.5723     4.8610   41 O    0 0 0
  16 H    1     2.7359     5.1701    5 B    0 0 0

  17 H    1     1.0915     2.0626   34 C    0 0 0
  17 H    1     2.1479     4.0589   31 C    0 0 0
  17 H    1     2.1679     4.0968   33 C    0 0 0
  17 H    1     2.5197     4.7616   16 H    0 0 0
  17 H    1     2.5677     4.8522   37 O    0 0 0
  17 H    1     2.7331     5.1648    3 B    0 0 0

  18 H    1     1.0914     2.0624   35 C    0 0 0
  18 H    1     2.1486     4.0602   36 C   -1-1 1
  18 H    1     2.1668     4.0947   32 C    0 0 0
  18 H    1     2.5200     4.7621   15 H    0 0 0
  18 H    1     2.5717     4.8598   42 O    0 0 0
  18 H    1     2.7349     5.1682    5 B   -1-1 1

  19 C    1     1.4020     2.6495   22 C    0 1-1
  19 C    1     1.4021     2.6495   20 C    0 0 0
  19 C    1     1.5504     2.9298    2 B    0 0 0
  19 C    1     2.1471     4.0575    9 H    0 1-1
  19 C    1     2.1472     4.0576    7 H    0 0 0
  19 C    1     2.4246     4.5817   21 C    0 1-1

  20 C    1     1.0913     2.0623    7 H    0 0 0
  20 C    1     1.3914     2.6294   23 C    0 0 0
  20 C    1     1.4021     2.6495   19 C    0 0 0
  20 C    1     2.1669     4.0948   10 H    0 0 0
  20 C    1     2.4177     4.5688   22 C    0 1-1
  20 C    1     2.4250     4.5825   24 C    0 0 0

  21 C    1     1.0914     2.0625    8 H    0 0 0
  21 C    1     1.3914     2.6293   22 C    0 0 0
  21 C    1     1.4026     2.6505   24 C    0-1 1
  21 C    1     2.1680     4.0970    9 H    0 0 0
  21 C    1     2.4182     4.5697   23 C    0-1 1
  21 C    1     2.4246     4.5817   19 C    0-1 1

  22 C    1     1.0914     2.0624    9 H    0 0 0
  22 C    1     1.3914     2.6293   21 C    0 0 0
  22 C    1     1.4020     2.6495   19 C    0-1 1
  22 C    1     2.1666     4.0942    8 H    0 0 0
  22 C    1     2.4177     4.5688   20 C    0-1 1
  22 C    1     2.4250     4.5826   24 C    0-1 1

  23 C    1     1.0915     2.0626   10 H    0 0 0
  23 C    1     1.3914     2.6294   20 C    0 0 0
  23 C    1     1.4025     2.6504   24 C    0 0 0
  23 C    1     2.1680     4.0969    7 H    0 0 0
  23 C    1     2.4182     4.5697   21 C    0 1-1
  23 C    1     2.4246     4.5818   19 C    0 0 0

  24 C    1     1.4025     2.6504   23 C    0 0 0
  24 C    1     1.4026     2.6505   21 C    0 1-1
  24 C    1     1.5513     2.9316    4 B    0 0 0
  24 C    1     2.1490     4.0610   10 H    0 0 0
  24 C    1     2.1493     4.0616    8 H    0 1-1
  24 C    1     2.4250     4.5825   20 C    0 0 0

  25 C    1     1.4020     2.6494   26 C    1 0-1
  25 C    1     1.4021     2.6495   28 C    0 0-1
  25 C    1     1.5503     2.9297    1 B    1 0 0
  25 C    1     2.1469     4.0571   11 H    1 0 0
  25 C    1     2.1475     4.0581   13 H    0 0 0
  25 C    1     2.4246     4.5818   27 C    0 0-1

  26 C    1     1.0913     2.0623   11 H    0 0 1
  26 C    1     1.3914     2.6293   29 C    0 0 0
  26 C    1     1.4020     2.6494   25 C   -1 0 1
  26 C    1     2.1666     4.0942   14 H    0 0 0
  26 C    1     2.4175     4.5684   28 C   -1 0 0
  26 C    1     2.4251     4.5828   30 C   -1 0 0

  27 C    1     1.0914     2.0625   12 H    0 0 0
  27 C    1     1.3915     2.6295   28 C    0 0 0
  27 C    1     1.4026     2.6505   30 C    0 0 0
  27 C    1     2.1679     4.0967   13 H    0 0 1
  27 C    1     2.4179     4.5691   29 C    1 0 0
  27 C    1     2.4246     4.5818   25 C    0 0 1

  28 C    1     1.0914     2.0624   13 H    0 0 1
  28 C    1     1.3915     2.6295   27 C    0 0 0
  28 C    1     1.4021     2.6495   25 C    0 0 1
  28 C    1     2.1664     4.0939   12 H    0 0 0
  28 C    1     2.4175     4.5684   26 C    1 0 0
  28 C    1     2.4253     4.5832   30 C    0 0 0

  29 C    1     1.0914     2.0625   14 H    0 0 0
  29 C    1     1.3914     2.6293   26 C    0 0 0
  29 C    1     1.4025     2.6504   30 C   -1 0 0
  29 C    1     2.1680     4.0968   11 H    0 0 1
  29 C    1     2.4179     4.5691   27 C   -1 0 0
  29 C    1     2.4247     4.5819   25 C   -1 0 1

  30 C    1     1.4025     2.6504   29 C    1 0 0
  30 C    1     1.4026     2.6505   27 C    0 0 0
  30 C    1     1.5516     2.9322    6 B    0-1 1
  30 C    1     2.1491     4.0612   14 H    1 0 0
  30 C    1     2.1493     4.0617   12 H    0 0 0
  30 C    1     2.4251     4.5828   26 C    1 0 0

  31 C    1     1.4021     2.6496   32 C    1 1-1
  31 C    1     1.4021     2.6497   34 C    0 0 0
  31 C    1     1.5502     2.9294    3 B    0 0 0
  31 C    1     2.1475     4.0582   15 H    1 1-1
  31 C    1     2.1479     4.0589   17 H    0 0 0
  31 C    1     2.4244     4.5814   33 C    0 0 0

  32 C    1     1.0914     2.0624   15 H    0 0 0
  32 C    1     1.3914     2.6293   35 C    0 0 0
  32 C    1     1.4021     2.6496   31 C   -1-1 1
  32 C    1     2.1668     4.0947   18 H    0 0 0
  32 C    1     2.4179     4.5692   34 C   -1-1 1
  32 C    1     2.4251     4.5827   36 C   -1-1 1

  33 C    1     1.0913     2.0623   16 H    0 0 0
  33 C    1     1.3914     2.6294   34 C    0 0 0
  33 C    1     1.4025     2.6504   36 C    0 0 0
  33 C    1     2.1679     4.0968   17 H    0 0 0
  33 C    1     2.4178     4.5690   35 C    1 1-1
  33 C    1     2.4244     4.5814   31 C    0 0 0

  34 C    1     1.0915     2.0626   17 H    0 0 0
  34 C    1     1.3914     2.6294   33 C    0 0 0
  34 C    1     1.4021     2.6497   31 C    0 0 0
  34 C    1     2.1667     4.0945   16 H    0 0 0
  34 C    1     2.4179     4.5692   32 C    1 1-1
  34 C    1     2.4253     4.5832   36 C    0 0 0

  35 C    1     1.0914     2.0624   18 H    0 0 0
  35 C    1     1.3914     2.6293   32 C    0 0 0
  35 C    1     1.4025     2.6503   36 C   -1-1 1
  35 C    1     2.1678     4.0966   15 H    0 0 0
  35 C    1     2.4178     4.5690   33 C   -1-1 1
  35 C    1     2.4245     4.5817   31 C   -1-1 1

  36 C    1     1.4025     2.6503   35 C    1 1-1
  36 C    1     1.4025     2.6504   33 C    0 0 0
  36 C    1     1.5516     2.9322    5 B    0 0 0
  36 C    1     2.1486     4.0602   18 H    1 1-1
  36 C    1     2.1487     4.0605   16 H    0 0 0
  36 C    1     2.4251     4.5827   32 C    1 1-1

  37 O    1     1.3791     2.6061    1 B    1 0 0
  37 O    1     1.3791     2.6061    3 B    0 0 0
  37 O    1     2.3880     4.5126   38 O    1 0 0
  37 O    1     2.3882     4.5130   39 O    1 1-1
  37 O    1     2.5383     4.7966   31 C    0 0 0
  37 O    1     2.5384     4.7968   25 C    0 0 0

  38 O    1     1.3793     2.6065    1 B    0 0 0
  38 O    1     1.3793     2.6065    2 B    0 0 0
  38 O    1     2.3880     4.5126   37 O   -1 0 0
  38 O    1     2.3882     4.5131   39 O    0 1-1
  38 O    1     2.5391     4.7981   19 C    0 0 0
  38 O    1     2.5395     4.7990   25 C   -1 0 0

  39 O    1     1.3793     2.6064    3 B   -1-1 1
  39 O    1     1.3793     2.6065    2 B    0-1 1
  39 O    1     2.3882     4.5130   37 O   -1-1 1
  39 O    1     2.3882     4.5131   38 O    0-1 1
  39 O    1     2.5390     4.7980   19 C    0-1 1
  39 O    1     2.5391     4.7982   31 C   -1-1 1

  40 O    1     1.3795     2.6068    6 B    0-1 1
  40 O    1     1.3795     2.6068    4 B    0-1 1
  40 O    1     2.3880     4.5126   42 O    1 0 0
  40 O    1     2.3884     4.5134   41 O    0-1 1
  40 O    1     2.5400     4.7998   24 C    0-1 1
  40 O    1     2.5403     4.8005   30 C    0 0 0

  41 O    1     1.3795     2.6069    5 B    0 0 0
  41 O    1     1.3795     2.6070    4 B    0 0 0
  41 O    1     2.3881     4.5128   42 O    1 1-1
  41 O    1     2.3884     4.5134   40 O    0 1-1
  41 O    1     2.5404     4.8006   24 C    0 0 0
  41 O    1     2.5405     4.8008   36 C    0 0 0

  42 O    1     1.3796     2.6071    6 B   -1-1 1
  42 O    1     1.3797     2.6072    5 B   -1-1 1
  42 O    1     2.3880     4.5126   40 O   -1 0 0
  42 O    1     2.3881     4.5128   41 O   -1-1 1
  42 O    1     2.5409     4.8016   36 C   -1-1 1
  42 O    1     2.5410     4.8019   30 C   -1 0 0


 SYMMETRY ALLOWED INTERNAL DEGREE(S) OF FREEDOM: 123
 TTTTTTTTTTTTTTTTTTTTTTTTTTTTTT SYMM        TELAPSE       10.23 TCPU        0.31
 TTTTTTTTTTTTTTTTTTTTTTTTTTTTTT INT_SCREEN  TELAPSE       10.26 TCPU        0.34

 DFT PARAMETERS

     ATOM       ELECTRONS   NET CHARGE   R(ANGSTROM)
   1   5  B       5.0000      0.0000     0.89000000
   7   1  H       1.0000      0.0000     1.11000000
  19   6  C       6.0000      0.0000     0.77000000
  37   8  O       8.0000      0.0000     0.74000000

 SIZE OF GRID=    1301659
 TTTTTTTTTTTTTTTTTTTTTTTTTTTTTT MAKE_GRID2  TELAPSE       19.84 TCPU        9.91
 BECKE WEIGHT FUNCTION
 RADSAFE =     2.00
 TOLERANCES - DENSITY:10**- 6; POTENTIAL:10**- 9; GRID WGT:10**-14

 RADIAL INTEGRATION  - INTERVALS (POINTS,UPPER LIMIT):            1( 75,  4.0*R)

 ANGULAR INTEGRATION - INTERVALS (ACCURACY LEVEL [N. POINTS] UPPER LIMIT):
  1(  4[  86]   0.2)  2(  8[ 194]   0.5)  3( 12[ 350]   0.9)  4( 16[ 974]   3.5)
  5( 12[ 350]9999.0)
 TTTTTTTTTTTTTTTTTTTTTTTTTTTTTT INT_CALC    TELAPSE       19.93 TCPU       10.00
 EEEEEEEEEE INT_CALC TERMINATION  DATE 19 02 2026 TIME 19:00:59.3

 *******************************************************************************
 cof-1_z39_L020_incl                                                             
 CRYSTAL - SCF - TYPE OF CALCULATION :  RESTRICTED CLOSED SHELL
 *******************************************************************************

 CAPPA:IS1  2;IS2  2;IS3  8; K PTS MONK NET  20; SYMMOPS:K SPACE   2;G SPACE   1

 TTTTTTTTTTTTTTTTTTTTTTTTTTTTTT SDIK        TELAPSE       20.64 TCPU       17.92

 AAAAAAAAAAAAAAAAAAAAAAAAAAAAAAAAAAAAAAAAAAAAAAAAAAAAAAAAAAAAAAAAAAAAAAAAAAAAAAA
         ATOMIC WAVEFUNCTION(S)


 NUCLEAR CHARGE  5.0  SYMMETRY SPECIES            S    P
 N. ELECTRONS    5.0  NUMBER OF PRIMITIVE GTOS    8    4
                      NUMBER OF CONTRACTED GTOS   4    2
                      NUMBER OF CLOSED SHELLS     2    0
                      OPEN SHELL OCCUPATION       0    1

  ZNUC  SCFIT    TOTAL HF ENERGY   KINETIC ENERGY   VIRIAL THEOREM ACCURACY
   5.0    11    -2.451164084E+01  2.462155050E+01 -1.995536038E+00  1.5E-06

 NUCLEAR CHARGE  1.0  SYMMETRY SPECIES            S
 N. ELECTRONS    1.0  NUMBER OF PRIMITIVE GTOS    4
                      NUMBER OF CONTRACTED GTOS   2
                      NUMBER OF CLOSED SHELLS     0
                      OPEN SHELL OCCUPATION       1

  ZNUC  SCFIT    TOTAL HF ENERGY   KINETIC ENERGY   VIRIAL THEOREM ACCURACY
   1.0     1    -4.977266687E-01  5.190767460E-01 -1.958869132E+00  0.0E+00

 NUCLEAR CHARGE  6.0  SYMMETRY SPECIES            S    P
 N. ELECTRONS    6.0  NUMBER OF PRIMITIVE GTOS    8    4
                      NUMBER OF CONTRACTED GTOS   4    2
                      NUMBER OF CLOSED SHELLS     2    0
                      OPEN SHELL OCCUPATION       0    2

  ZNUC  SCFIT    TOTAL HF ENERGY   KINETIC ENERGY   VIRIAL THEOREM ACCURACY
   6.0     9    -3.766704647E+01  3.775180683E+01 -1.997754800E+00  1.1E-06

 NUCLEAR CHARGE  8.0  SYMMETRY SPECIES            S    P
 N. ELECTRONS    8.0  NUMBER OF PRIMITIVE GTOS    8    4
                      NUMBER OF CONTRACTED GTOS   4    2
                      NUMBER OF CLOSED SHELLS     2    0
                      OPEN SHELL OCCUPATION       0    4

  ZNUC  SCFIT    TOTAL HF ENERGY   KINETIC ENERGY   VIRIAL THEOREM ACCURACY
   8.0    12    -7.477373220E+01  7.477365593E+01 -2.000001020E+00  3.8E-06

 AAAAAAAAAAAAAAAAAAAAAAAAAAAAAAAAAAAAAAAAAAAAAAAAAAAAAAAAAAAAAAAAAAAAAAAAAAAAAAA

 CHARGE NORMALIZATION FACTOR   1.00000000
 TOTAL ATOMIC CHARGES:
   5.0000000   5.0000000   5.0000000   5.0000000   5.0000000   5.0000000
   1.0000000   1.0000000   1.0000000   1.0000000   1.0000000   1.0000000
   1.0000000   1.0000000   1.0000000   1.0000000   1.0000000   1.0000000
   6.0000000   6.0000000   6.0000000   6.0000000   6.0000000   6.0000000
   6.0000000   6.0000000   6.0000000   6.0000000   6.0000000   6.0000000
   6.0000000   6.0000000   6.0000000   6.0000000   6.0000000   6.0000000
   8.0000000   8.0000000   8.0000000   8.0000000   8.0000000   8.0000000
 TTTTTTTTTTTTTTTTTTTTTTTTTTTTTT MOQGAD      TELAPSE       20.69 TCPU       19.37
 TTTTTTTTTTTTTTTTTTTTTTTTTTTTTT SHELLXN     TELAPSE       28.64 TCPU      271.77
 TTTTTTTTTTTTTTTTTTTTTTTTTTTTTT MONMO3      TELAPSE       28.79 TCPU      276.66
 NUMERICALLY INTEGRATED DENSITY    198.0000135045
 TTTTTTTTTTTTTTTTTTTTTTTTTTTTTT NUMDFT      TELAPSE       29.35 TCPU      294.51
 CYC   0 ETOT(AU) -1.295958828014E+03 DETOT -1.30E+03 tst  0.00E+00 PX  1.00E+00
 TTTTTTTTTTTTTTTTTTTTTTTTTTTTTT DIIS        TELAPSE       29.39 TCPU      295.59
 TTTTTTTTTTTTTTTTTTTTTTTTTTTTTT FDIK        TELAPSE       29.89 TCPU      311.54
 INSULATING STATE
 TOP OF VALENCE BANDS -    BAND     99; K    1; EIG -3.1016277E-01 AU
 BOTTOM OF VIRTUAL BANDS - BAND    100; K    1; EIG -1.5779173E-01 AU
 DIRECT ENERGY BAND GAP:   4.1462 eV
 TTTTTTTTTTTTTTTTTTTTTTTTTTTTTT PDIG        TELAPSE       30.18 TCPU      317.68
 CHARGE NORMALIZATION FACTOR   1.00000000
 TOTAL ATOMIC CHARGES:
   4.1519950   4.1560186   4.1564005   4.1559404   4.1557215   4.1516468
   0.7854974   0.7856186   0.7853355   0.7854361   0.7855918   0.7857732
   0.7855853   0.7857383   0.7853219   0.7854926   0.7854492   0.7856131
   6.0456420   6.2667770   6.2668331   6.2657307   6.2656561   6.0449793
   6.0460363   6.2661341   6.2661911   6.2660210   6.2662039   6.0448268
   6.0460383   6.2654696   6.2660228   6.2663988   6.2670926   6.0445086
   8.6967384   8.6969110   8.6952870   8.6972212   8.6956911   8.6974135
 TTTTTTTTTTTTTTTTTTTTTTTTTTTTTT MOQGAD      TELAPSE       30.23 TCPU      317.73
 TTTTTTTTTTTTTTTTTTTTTTTTTTTTTT SHELLXN     TELAPSE       38.46 TCPU      580.29
 TTTTTTTTTTTTTTTTTTTTTTTTTTTTTT MONMO3      TELAPSE       38.61 TCPU      585.18
 NUMERICALLY INTEGRATED DENSITY    198.0000104691
 TTTTTTTTTTTTTTTTTTTTTTTTTTTTTT NUMDFT      TELAPSE       39.19 TCPU      603.58
 CYC   1 ETOT(AU) -1.288817756528E+03 DETOT  7.14E+00 tst  0.00E+00 PX  1.00E+00
 TTTTTTTTTTTTTTTTTTTTTTTTTTTTTT DIIS        TELAPSE       39.23 TCPU      605.04
 DIIS TEST: 0.11009E+01 AT SCF   CYCLE   1 - MIX   30 %
 TTTTTTTTTTTTTTTTTTTTTTTTTTTTTT FDIK        TELAPSE       39.74 TCPU      621.27
 INSULATING STATE
 TOP OF VALENCE BANDS -    BAND     99; K    1; EIG -2.1954998E-01 AU
 BOTTOM OF VIRTUAL BANDS - BAND    100; K    1; EIG -7.9821348E-02 AU
 DIRECT ENERGY BAND GAP:   3.8022 eV
 TTTTTTTTTTTTTTTTTTTTTTTTTTTTTT PDIG        TELAPSE       40.03 TCPU      627.42
 CHARGE NORMALIZATION FACTOR   1.00000000
 TOTAL ATOMIC CHARGES:
   4.6962832   4.7021644   4.7013298   4.7014869   4.7018938   4.6950268
   0.9135516   0.9137090   0.9172185   0.9173239   0.9125839   0.9124692
   0.9125054   0.9124070   0.9171838   0.9173361   0.9134481   0.9135126
   5.8651911   6.1193612   6.1197217   6.1393491   6.1411915   5.8677602
   5.8711411   6.1316486   6.1335149   6.1326822   6.1327928   5.8741740
   5.8649600   6.1394450   6.1413162   6.1196053   6.1197561   5.8681570
   8.3374237   8.3376855   8.3484763   8.3371232   8.3488287   8.3372607
 TTTTTTTTTTTTTTTTTTTTTTTTTTTTTT MOQGAD      TELAPSE       40.08 TCPU      627.47
 TTTTTTTTTTTTTTTTTTTTTTTTTTTTTT SHELLXN     TELAPSE       48.36 TCPU      891.60
 TTTTTTTTTTTTTTTTTTTTTTTTTTTTTT MONMO3      TELAPSE       48.52 TCPU      896.48
 NUMERICALLY INTEGRATED DENSITY    198.0000145747
 TTTTTTTTTTTTTTTTTTTTTTTTTTTTTT NUMDFT      TELAPSE       49.09 TCPU      914.91
 CYC   2 ETOT(AU) -1.289012447083E+03 DETOT -1.95E-01 tst  4.24E-03 PX  1.58E-01
 TTTTTTTTTTTTTTTTTTTTTTTTTTTTTT DIIS        TELAPSE       49.14 TCPU      916.34
 DIIS TEST: 0.46322E+00 AT SCF   CYCLE   2 - DIIS ACTIVE - HISTORY:     2 CYCLES
 TTTTTTTTTTTTTTTTTTTTTTTTTTTTTT FDIK        TELAPSE       49.65 TCPU      932.72
 INSULATING STATE
 TOP OF VALENCE BANDS -    BAND     99; K    1; EIG -2.3271672E-01 AU
 BOTTOM OF VIRTUAL BANDS - BAND    100; K    1; EIG -7.5563414E-02 AU
 DIRECT ENERGY BAND GAP:   4.2764 eV
 TTTTTTTTTTTTTTTTTTTTTTTTTTTTTT PDIG        TELAPSE       49.94 TCPU      938.86
 CHARGE NORMALIZATION FACTOR   1.00000000
 TOTAL ATOMIC CHARGES:
   4.4900741   4.4937311   4.4933973   4.4928276   4.4929103   4.4888328
   0.8890948   0.8892996   0.8920009   0.8921439   0.8890324   0.8893035
   0.8891518   0.8891066   0.8919579   0.8922033   0.8890312   0.8891644
   5.8901944   6.1615771   6.1616579   6.1607236   6.1595772   5.8893027
   5.8975484   6.1598472   6.1593002   6.1597121   6.1594485   5.8971923
   5.8908612   6.1608329   6.1596130   6.1615254   6.1617586   5.8888193
   8.5154986   8.5157077   8.5120671   8.5159502   8.5118504   8.5161705
 TTTTTTTTTTTTTTTTTTTTTTTTTTTTTT MOQGAD      TELAPSE       49.99 TCPU      938.91
 TTTTTTTTTTTTTTTTTTTTTTTTTTTTTT SHELLXN     TELAPSE       58.24 TCPU     1202.14
 TTTTTTTTTTTTTTTTTTTTTTTTTTTTTT MONMO3      TELAPSE       58.40 TCPU     1207.06
 NUMERICALLY INTEGRATED DENSITY    198.0000136153
 TTTTTTTTTTTTTTTTTTTTTTTTTTTTTT NUMDFT      TELAPSE       58.98 TCPU     1225.65
 CYC   3 ETOT(AU) -1.289109190894E+03 DETOT -9.67E-02 tst  7.24E-04 PX  6.29E-02
 TTTTTTTTTTTTTTTTTTTTTTTTTTTTTT DIIS        TELAPSE       59.04 TCPU     1227.49
 DIIS TEST: 0.11864E-01 AT SCF   CYCLE   3 - DIIS ACTIVE - HISTORY:     3 CYCLES
 TTTTTTTTTTTTTTTTTTTTTTTTTTTTTT FDIK        TELAPSE       59.55 TCPU     1243.84
 INSULATING STATE
 TOP OF VALENCE BANDS -    BAND     99; K    1; EIG -2.4399518E-01 AU
 BOTTOM OF VIRTUAL BANDS - BAND    100; K    1; EIG -8.4654306E-02 AU
 DIRECT ENERGY BAND GAP:   4.3359 eV
 TTTTTTTTTTTTTTTTTTTTTTTTTTTTTT PDIG        TELAPSE       59.84 TCPU     1249.99
 CHARGE NORMALIZATION FACTOR   1.00000000
 TOTAL ATOMIC CHARGES:
   4.4970645   4.4985897   4.4980517   4.4981725   4.4983939   4.4963774
   0.8727706   0.8730299   0.8746760   0.8746270   0.8712729   0.8712074
   0.8712108   0.8711669   0.8746996   0.8746223   0.8727339   0.8728482
   5.9390467   6.1573079   6.1573984   6.1704851   6.1733675   5.9424692
   5.9455317   6.1650732   6.1669880   6.1659462   6.1662286   5.9484488
   5.9388641   6.1703049   6.1737157   6.1572576   6.1575850   5.9427762
   8.4803131   8.4804811   8.4888816   8.4801274   8.4896727   8.4802139
 TTTTTTTTTTTTTTTTTTTTTTTTTTTTTT MOQGAD      TELAPSE       59.89 TCPU     1250.04
 TTTTTTTTTTTTTTTTTTTTTTTTTTTTTT SHELLXN     TELAPSE       68.12 TCPU     1512.67
 TTTTTTTTTTTTTTTTTTTTTTTTTTTTTT MONMO3      TELAPSE       68.28 TCPU     1517.58
 NUMERICALLY INTEGRATED DENSITY    198.0000134757
 TTTTTTTTTTTTTTTTTTTTTTTTTTTTTT NUMDFT      TELAPSE       68.85 TCPU     1535.75
 CYC   4 ETOT(AU) -1.289111634663E+03 DETOT -2.44E-03 tst  2.91E-05 PX  1.25E-02
 TTTTTTTTTTTTTTTTTTTTTTTTTTTTTT DIIS        TELAPSE       68.91 TCPU     1537.62
 DIIS TEST: 0.40689E-02 AT SCF   CYCLE   4 - DIIS ACTIVE - HISTORY:     4 CYCLES
 TTTTTTTTTTTTTTTTTTTTTTTTTTTTTT FDIK        TELAPSE       69.40 TCPU     1553.60
 INSULATING STATE
 TOP OF VALENCE BANDS -    BAND     99; K    1; EIG -2.4187578E-01 AU
 BOTTOM OF VIRTUAL BANDS - BAND    100; K    1; EIG -8.3887434E-02 AU
 DIRECT ENERGY BAND GAP:   4.2991 eV
 TTTTTTTTTTTTTTTTTTTTTTTTTTTTTT PDIG        TELAPSE       69.70 TCPU     1559.75
 CHARGE NORMALIZATION FACTOR   1.00000000
 TOTAL ATOMIC CHARGES:
   4.4973755   4.5011951   4.5007087   4.5002987   4.5004633   4.4960638
   0.8756719   0.8758527   0.8782088   0.8784211   0.8749719   0.8751828
   0.8750319   0.8750226   0.8781665   0.8784786   0.8755896   0.8757101
   5.9212566   6.1620489   6.1621089   6.1702322   6.1688926   5.9194874
   5.9266768   6.1664643   6.1661835   6.1665497   6.1661958   5.9257963
   5.9217027   6.1703679   6.1689123   6.1620372   6.1622462   5.9192029
   8.4929016   8.4931223   8.4944676   8.4931735   8.4941836   8.4933757
 TTTTTTTTTTTTTTTTTTTTTTTTTTTTTT MOQGAD      TELAPSE       69.74 TCPU     1559.80
 TTTTTTTTTTTTTTTTTTTTTTTTTTTTTT SHELLXN     TELAPSE       77.93 TCPU     1820.65
 TTTTTTTTTTTTTTTTTTTTTTTTTTTTTT MONMO3      TELAPSE       80.67 TCPU     1831.52
 NUMERICALLY INTEGRATED DENSITY    198.0000134944
 TTTTTTTTTTTTTTTTTTTTTTTTTTTTTT NUMDFT      TELAPSE       81.24 TCPU     1849.71
 CYC   5 ETOT(AU) -1.289112562587E+03 DETOT -9.28E-04 tst  5.85E-06 PX  6.84E-03
 TTTTTTTTTTTTTTTTTTTTTTTTTTTTTT DIIS        TELAPSE       81.31 TCPU     1851.92
 DIIS TEST: 0.93444E-04 AT SCF   CYCLE   5 - DIIS ACTIVE - HISTORY:     5 CYCLES
 TTTTTTTTTTTTTTTTTTTTTTTTTTTTTT FDIK        TELAPSE       81.82 TCPU     1868.20
 INSULATING STATE
 TOP OF VALENCE BANDS -    BAND     99; K    1; EIG -2.4162945E-01 AU
 BOTTOM OF VIRTUAL BANDS - BAND    100; K    1; EIG -8.3313104E-02 AU
 DIRECT ENERGY BAND GAP:   4.3080 eV
 TTTTTTTTTTTTTTTTTTTTTTTTTTTTTT PDIG        TELAPSE       82.11 TCPU     1874.34
 CHARGE NORMALIZATION FACTOR   1.00000000
 TOTAL ATOMIC CHARGES:
   4.4974739   4.5002118   4.4997271   4.4998476   4.5000400   4.4968175
   0.8766748   0.8769262   0.8793208   0.8792073   0.8760504   0.8760007
   0.8760232   0.8759320   0.8793373   0.8792063   0.8766257   0.8767551
   5.9176286   6.1608874   6.1612413   6.1675756   6.1712737   5.9228233
   5.9248090   6.1645828   6.1666016   6.1652885   6.1659712   5.9289291
   5.9176975   6.1673963   6.1716176   6.1608714   6.1613669   5.9229074
   8.4915090   8.4916584   8.4956095   8.4914544   8.4965736   8.4915484
 TTTTTTTTTTTTTTTTTTTTTTTTTTTTTT MOQGAD      TELAPSE       82.15 TCPU     1874.39
 TTTTTTTTTTTTTTTTTTTTTTTTTTTTTT SHELLXN     TELAPSE       90.44 TCPU     2138.42
 TTTTTTTTTTTTTTTTTTTTTTTTTTTTTT MONMO3      TELAPSE       90.60 TCPU     2143.48
 NUMERICALLY INTEGRATED DENSITY    198.0000135101
 TTTTTTTTTTTTTTTTTTTTTTTTTTTTTT NUMDFT      TELAPSE       91.18 TCPU     2161.87
 CYC   6 ETOT(AU) -1.289112570457E+03 DETOT -7.87E-06 tst  7.91E-07 PX  1.08E-03
 TTTTTTTTTTTTTTTTTTTTTTTTTTTTTT DIIS        TELAPSE       91.25 TCPU     2164.12
 DIIS TEST: 0.69092E-04 AT SCF   CYCLE   6 - DIIS ACTIVE - HISTORY:     6 CYCLES
 TTTTTTTTTTTTTTTTTTTTTTTTTTTTTT FDIK        TELAPSE       91.76 TCPU     2180.35
 INSULATING STATE
 TOP OF VALENCE BANDS -    BAND     99; K    1; EIG -2.4165922E-01 AU
 BOTTOM OF VIRTUAL BANDS - BAND    100; K    1; EIG -8.3349559E-02 AU
 DIRECT ENERGY BAND GAP:   4.3078 eV
 TTTTTTTTTTTTTTTTTTTTTTTTTTTTTT PDIG        TELAPSE       92.05 TCPU     2186.50
 CHARGE NORMALIZATION FACTOR   1.00000000
 TOTAL ATOMIC CHARGES:
   4.4975565   4.5006542   4.5001757   4.4998791   4.5000526   4.4964285
   0.8766752   0.8768986   0.8791656   0.8792967   0.8759296   0.8760636
   0.8759544   0.8759421   0.8791474   0.8793296   0.8766120   0.8767395
   5.9207585   6.1610388   6.1610173   6.1692159   6.1690564   5.9204533
   5.9268817   6.1653546   6.1656605   6.1656859   6.1654131   5.9270573
   5.9210074   6.1692245   6.1692091   6.1609954   6.1611788   5.9203583
   8.4917721   8.4919749   8.4950586   8.4919246   8.4951101   8.4920918
 TTTTTTTTTTTTTTTTTTTTTTTTTTTTTT MOQGAD      TELAPSE       92.09 TCPU     2186.55
 TTTTTTTTTTTTTTTTTTTTTTTTTTTTTT SHELLXN     TELAPSE      100.36 TCPU     2449.94
 TTTTTTTTTTTTTTTTTTTTTTTTTTTTTT MONMO3      TELAPSE      100.51 TCPU     2454.84
 NUMERICALLY INTEGRATED DENSITY    198.0000135068
 TTTTTTTTTTTTTTTTTTTTTTTTTTTTTT NUMDFT      TELAPSE      101.08 TCPU     2472.99
 CYC   7 ETOT(AU) -1.289112587282E+03 DETOT -1.68E-05 tst  4.71E-07 PX  7.95E-04
 TTTTTTTTTTTTTTTTTTTTTTTTTTTTTT DIIS        TELAPSE      101.16 TCPU     2475.45
 DIIS TEST: 0.35376E-05 AT SCF   CYCLE   7 - DIIS ACTIVE - HISTORY:     7 CYCLES
 TTTTTTTTTTTTTTTTTTTTTTTTTTTTTT FDIK        TELAPSE      101.66 TCPU     2491.40
 INSULATING STATE
 TOP OF VALENCE BANDS -    BAND     99; K    1; EIG -2.4167338E-01 AU
 BOTTOM OF VIRTUAL BANDS - BAND    100; K    1; EIG -8.3396644E-02 AU
 DIRECT ENERGY BAND GAP:   4.3069 eV
 TTTTTTTTTTTTTTTTTTTTTTTTTTTTTT PDIG        TELAPSE      101.95 TCPU     2497.55
 CHARGE NORMALIZATION FACTOR   1.00000000
 TOTAL ATOMIC CHARGES:
   4.4975109   4.5007788   4.5002969   4.5000912   4.5002641   4.4964620
   0.8766300   0.8768374   0.8791393   0.8792209   0.8758900   0.8759999
   0.8759196   0.8758728   0.8791173   0.8792576   0.8765617   0.8766828
   5.9201978   6.1609328   6.1611239   6.1687597   6.1693545   5.9211157
   5.9263331   6.1652121   6.1658194   6.1655237   6.1655965   5.9274028
   5.9204985   6.1687866   6.1694875   6.1609172   6.1612599   5.9209706
   8.4919875   8.4921847   8.4946950   8.4921319   8.4948802   8.4922952
 TTTTTTTTTTTTTTTTTTTTTTTTTTTTTT MOQGAD      TELAPSE      102.00 TCPU     2497.60
 TTTTTTTTTTTTTTTTTTTTTTTTTTTTTT SHELLXN     TELAPSE      110.30 TCPU     2761.87
 TTTTTTTTTTTTTTTTTTTTTTTTTTTTTT MONMO3      TELAPSE      110.45 TCPU     2766.75
 NUMERICALLY INTEGRATED DENSITY    198.0000135096
 TTTTTTTTTTTTTTTTTTTTTTTTTTTTTT NUMDFT      TELAPSE      111.01 TCPU     2784.84
 CYC   8 ETOT(AU) -1.289112587876E+03 DETOT -5.95E-07 tst  1.95E-08 PX  1.55E-04
 TTTTTTTTTTTTTTTTTTTTTTTTTTTTTT DIIS        TELAPSE      111.09 TCPU     2787.37
 DIIS TEST: 0.36111E-06 AT SCF   CYCLE   8 - DIIS ACTIVE - HISTORY:     8 CYCLES
 TTTTTTTTTTTTTTTTTTTTTTTTTTTTTT FDIK        TELAPSE      111.59 TCPU     2803.34
 INSULATING STATE
 TOP OF VALENCE BANDS -    BAND     99; K    1; EIG -2.4167100E-01 AU
 BOTTOM OF VIRTUAL BANDS - BAND    100; K    1; EIG -8.3396813E-02 AU
 DIRECT ENERGY BAND GAP:   4.3069 eV
 TTTTTTTTTTTTTTTTTTTTTTTTTTTTTT PDIG        TELAPSE      111.89 TCPU     2809.49
 CHARGE NORMALIZATION FACTOR   1.00000000
 TOTAL ATOMIC CHARGES:
   4.4975791   4.5007575   4.5002733   4.5000536   4.5002304   4.4965231
   0.8766078   0.8768287   0.8791270   0.8792156   0.8758819   0.8759879
   0.8759020   0.8758706   0.8791120   0.8792454   0.8765435   0.8766705
   5.9202205   6.1609971   6.1610820   6.1688767   6.1693949   5.9209177
   5.9264134   6.1652433   6.1658346   6.1656135   6.1655505   5.9272948
   5.9204713   6.1688674   6.1695650   6.1609713   6.1612264   5.9208227
   8.4918871   8.4920799   8.4949380   8.4920139   8.4951376   8.4921704
 TTTTTTTTTTTTTTTTTTTTTTTTTTTTTT MOQGAD      TELAPSE      111.93 TCPU     2809.54
 TTTTTTTTTTTTTTTTTTTTTTTTTTTTTT SHELLXN     TELAPSE      120.23 TCPU     3071.35
 +++ ENERGIES IN A.U. +++
 ::: EXT EL-POLE                                  -1.2946006177111E+03
 ::: EXT EL-SPHEROPOLE                             1.4683525742917E+01
 ::: BIELET ZONE E-E                               2.1678948745551E+03
 ::: TOTAL E-E                                     8.8797778258683E+02
 ::: TOTAL E-N + N-E                              -3.6045735453248E+03
 ::: TOTAL N-N                                     2.8127922548866E+02
 ::: KINETIC ENERGY                                1.2799161189139E+03
 ::: PSEUDO TOTAL   ENERGY                        -1.1554004183355E+03
 ::: VIRIAL COEFFICIENT                            1.0511291648022E+00
 TTTTTTTTTTTTTTTTTTTTTTTTTTTTTT MONMO3      TELAPSE      120.38 TCPU     3076.24
 NUMERICALLY INTEGRATED DENSITY    198.0000135080
 EXCHANGE ENERGY: -0.126021136615E+03  CORRELATION ENERGY: -0.769103303341E+01
 TTTTTTTTTTTTTTTTTTTTTTTTTTTTTT NUMDFT      TELAPSE      120.95 TCPU     3094.32
 CYC   9 ETOT(AU) -1.289112587984E+03 DETOT -1.08E-07 tst  1.09E-09 PX  1.55E-04

 == SCF ENDED - CONVERGENCE ON ENERGY      E(AU) -1.2891125879842E+03 CYCLES   9


 ENERGY EXPRESSION=HARTREE+FOCK EXCH*0.00000+(HSESOL     EXCH)*1.00000+PBESOL     CORR


 TOTAL ENERGY(DFT)(AU)(  9) -1.2891125879842E+03 DE-1.1E-07 tester 1.1E-09
 TTTTTTTTTTTTTTTTTTTTTTTTTTTTTT EDFT        TELAPSE      120.95 TCPU     3094.33
 
 INFORMATION **** DFTD3 ENERGY **** CALCULATE DFTD3 ENERGY

           DFT-D V3(BJ)
 DF                                         hsesol3c  
 parameters
 s6       :    1.0000
 s8       :    0.0000
 a1       :    0.5196
 a2       :    4.9385
 k1 k3    :   16.0000   -4.0000
 Cutoff   :   50.2022
 CN-Cutoff:   21.1671
 ABC-Cutoff:   21.1671
 
 Edisp /kcal,au:   -26.3599 -0.04200717

 E6    /kcal :   -28.0773
 E8    /kcal :     0.0000
 E6(ABC) "   :   1.717443
 
 INFORMATION **** DFTD3 ENERGY **** NORMAL TERMINATION OF DFTD3 MODULE

 GCP ENERGY CALCULATION
  level        hsesol3c            basis:hsesol3c
  Nbf            474
  Atoms           42

  Parameters: 
  sigma     1.0000
  eta       1.4281
  alpha     0.2936
  beta      1.9467

  dmp_scal      4.0000
  dmp_exp       6.0000
 cutoffs: 
   distance [bohr] 60.0
   noise    [a.u.] 2.2E-16
 SR-damping   T
 ** gCP correction **
  Egcp:        0.0830007009 / (a.u.) ||      52.0837 / (kcal/mol)
 INFORMATION **** GCP **** NORMAL TERMINATION OF GCP MODULE

 *******************************************************************************

 DFT-D3-GCP DISPERSION AND COUNTERPOISE CORRECTION

 D3 DISPERSION ENERGY (AU)      -4.2007169899878E-02
 GCP ENERGY (AU)                 8.3000700930631E-02
 TOTAL ENERGY + DISP + GCP (AU) -1.2890715944531E+03

 *******************************************************************************

 EIGENVECTORS IN FORTRAN UNIT 10
 TTTTTTTTTTTTTTTTTTTTTTTTTTTTTT END         TELAPSE      122.11 TCPU     3101.46
 EEEEEEEEEE TERMINATION  DATE 19 02 2026 TIME 19:02:41.5
