 Default number of threads is:           32

         
 *******************************************************************************
 *                                                                             *
 *                               CRYSTAL23                                     *
 *                      public : 1.0.1 - October 2022                          *
 *                       HTTP://WWW.CRYSTAL.UNITO.IT                           *
 *                                                                             *
 *                              MAIN AUTHORS                                   *
 *                                                                             *
 *  R. DOVESI(1,11), V.R. SAUNDERS(2), C. ROETTI(1,11), R. ORLANDO(1,11),      *
 *  C.M. ZICOVICH-WILSON(1,3), F. PASCALE(4), B. CIVALLERI(1,11),              *
 *  K. DOLL(5), N.M. HARRISON(6), I.J. BUSH(7), Ph. D'ARCO(8),                 *
 *  M. LLUNELL(9), M. CAUSA'(10), Y. NOEL(8), L. MASCHIO(1,11), A. ERBA(1,11)  *
 *  M. RE'RAT(14), S. CASASSA(1,11), B.G. SEARLE(2), J.K. DESMARAIS(1)         *
 *                                                                             *
 *        CONTRIBUTIONS TO THE CODE HAVE ALSO BEEN GIVEN BY                    *
 *                                                                             *
 *  M. FERRABONE(1,11), M. DE LA PIERRE(1,11), M. FERRERO(1,11),               *
 *  J. BAIMA(1,11), E. ALBANESE(1,11), M.F. PEINTINGER(12), R. BAST(13),       *
 *  B. KIRTMAN(15), V. LACIVITA(1,11), R. DEMICHELIS(1,16)                     *
 *  G. BRANDEBURG(17), S. SALUSTRO(1,11), G. SANSONE(1,11)                     *
 *  M.T. RUGGIERO(18), L.E. DAGA(1), L. DONA'(1), A. COSSARD(1)                *
 *                                                                             *
 * (1) THEORETICAL CHEMISTRY GROUP - UNIVERSITA' DI TORINO - TORINO (ITALY)    *
 * (2) SCIENTIFIC COMPUTING DEPARTMENT - STFC DARESBURY (UK)                   *
 * (3) UNIVERSIDAD AUTONOMA DEL ESTADO DE MORELOS - CUERNAVACA (MEXICO)        *
 * (4) UNIVERSITE' DE LORRAINE - NANCY (FRANCE)                                *
 * (5) UNIVERSITAET STUTTGART- STUTTGART (GERMANY)                             *
 * (6) IMPERIAL COLLEGE - LONDON (UK)                                          *
 * (7) SCIENTIFIC COMPUTING DEPARTMENT - STFC RAL (UK)                         *
 * (8) UPMC - SORBONNE UNIVERSITES - PARIS (FRANCE)                            *
 * (9) UNIVERSIDAD DE BARCELONA - BARCELONA (SPAIN)                            *
 *(10) UNIVERSITA' DI NAPOLI "FEDERICO II" - NAPOLI (ITALY)                    *
 *(11) NIS - NANOSTRUCTURED INTERFACES AND SURFACES - TORINO (ITALY)           *
 *(12) MPI FUER CHEMISCHE ENERGIEKONVERSION - MUELHEIM AN DER RUHR (GERMANY)   *
 *(13) UNIVERSITY OF TROMSO - TROMSO (NORWAY)                                  *
 *(14) UNIVERSITE' DE PAU ET DES PAYS DE L'ADOUR - PAU (FRANCE)                *
 *(15) UNIVERSITY OF CALIFORNIA SANTA BARBARA - SANTA BARBARA (USA)            *
 *(16) CURTIN UNIVERSITY - PERTH (AUSTRALIA)                                   *
 *(17) UNIVERSITY COLLEGE LONDON - LONDON (UK)                                 *
 *(18) UNIVERSITY OF VERMONT - BURLINGTON (USA)                                *
 *                                                                             *
 *******************************************************************************
 EEEEEEEEEE STARTING  DATE 19 02 2026 TIME 18:02:02.1
 cof-1_z32_L060_incl                                                             

 CRYSTAL CALCULATION
 (INPUT ACCORDING TO THE INTERNATIONAL TABLES FOR X-RAY CRYSTALLOGRAPHY)
 CRYSTAL FAMILY                       :  TRICLINIC   
 CRYSTAL CLASS  (GROTH - 1921)        :  TRICLINIC PEDIAL                     

 SPACE GROUP (NONCENTROSYMMETRIC)     :  P 1             

 LATTICE PARAMETERS  (ANGSTROMS AND DEGREES) - CONVENTIONAL CELL
        A           B           C        ALPHA        BETA       GAMMA
    15.02361    15.02392     6.80000    40.16693    89.99997   119.99596


 NUMBER OF IRREDUCIBLE ATOMS IN THE CONVENTIONAL CELL:   42

 INPUT COORDINATES

 ATOM AT. N.              COORDINATES
   1   5     4.980678600000E-01 -3.930650000000E-03  5.014871500000E-01
   2   5     6.571235200000E-01  1.551290000000E-01  5.014871700000E-01
   3   5     4.987871300000E-01  1.565590200000E-01  4.983487100000E-01
   4   5     1.116425700000E-01  3.823843500000E-01  5.014871600000E-01
   5   5     2.707505400000E-01  3.823635800000E-01  5.014871500000E-01
   6   5     2.714543600000E-01  5.429500000000E-01  4.983487100000E-01
   7   1     7.889309800000E-01  8.068157000000E-02  4.949805100000E-01
   8   1    -1.724873000000E-02  4.632637700000E-01  4.939855300000E-01
   9   1     7.891234700000E-01  3.663533800000E-01  4.938323900000E-01
  10   1    -1.712058000000E-02  1.779482700000E-01  4.938705900000E-01
  11   1     5.746079300000E-01 -1.358685000000E-01  5.050084200000E-01
  12   1     1.922758500000E-01  6.701058600000E-01  5.060034600000E-01
  13   1     2.891808000000E-01 -1.363521300000E-01  5.061566900000E-01
  14   1     4.776318800000E-01  6.699629400000E-01  5.061182400000E-01
  15   1     5.769600900000E-01  3.658057100000E-01  4.949805600000E-01
  16   1     1.950785900000E-01  1.778196900000E-01  4.939854600000E-01
  17   1     2.919926400000E-01  8.110425000000E-02  4.938322700000E-01
  18   1     4.804340900000E-01  4.632212100000E-01  4.938707100000E-01
  19   6     7.770276400000E-01  2.161950000000E-01  4.982338700000E-01
  20   6     8.323411700000E-01  1.644665400000E-01  4.951336200000E-01
  21   6    -6.069808000000E-02  3.789897200000E-01  4.948658000000E-01
  22   6     8.321806200000E-01  3.251259700000E-01  4.956695500000E-01
  23   6    -6.036865000000E-02  2.186368500000E-01  4.936026700000E-01
  24   6    -6.244420000000E-03  3.254517800000E-01  4.957077900000E-01
  25   6     4.383649700000E-01 -1.232039600000E-01  5.017550900000E-01
  26   6     4.907886800000E-01 -1.792460600000E-01  5.048552900000E-01
  27   6     2.763477400000E-01  7.137376200000E-01  5.051232000000E-01
  28   6     3.300219400000E-01 -1.789520700000E-01  5.043194800000E-01
  29   6     4.369747400000E-01  7.131156100000E-01  5.063862100000E-01
  30   6     3.296711000000E-01  6.594548000000E-01  5.042811600000E-01
  31   6     4.391822000000E-01  2.161258600000E-01  4.982338600000E-01
  32   6     4.930622700000E-01  3.253066700000E-01  4.951336800000E-01
  33   6     2.787371900000E-01  2.179764700000E-01  4.948657400000E-01
  34   6     3.320157900000E-01  1.641238100000E-01  4.956694700000E-01
  35   6     4.399479500000E-01  3.794848400000E-01  4.936027500000E-01
  36   6     3.316796700000E-01  3.253743800000E-01  4.957077900000E-01
  37   8     4.456534200000E-01  5.018071000000E-02  4.991907200000E-01
  38   8     6.030719500000E-01  4.713512000000E-02  5.058121000000E-01
  39   8     6.053726400000E-01  2.106866500000E-01  4.958226400000E-01
  40   8     1.652412400000E-01  4.894611800000E-01  4.991907500000E-01
  41   8     1.637342200000E-01  3.274524000000E-01  5.058121000000E-01
  42   8     3.249570600000E-01  4.909986200000E-01  4.958226200000E-01

 *******************************************************************************

 << INFORMATION >>: FROM NOW ON, ALL COORDINATES REFER TO THE PRIMITIVE CELL

 *******************************************************************************

 LATTICE PARAMETERS  (ANGSTROMS AND DEGREES) - PRIMITIVE CELL
       A          B          C        ALPHA      BETA     GAMMA        VOLUME
   15.02361   15.02392    6.80000    40.16693  89.99997 119.99596    625.547921

 COORDINATES OF THE EQUIVALENT ATOMS (FRACTIONAL UNITS)

 N. ATOM EQUIV AT. N.          X                  Y                  Z

   1   1   1    5 B     4.98067860000E-01 -3.93065000000E-03 -4.98512850000E-01

   2   2   1    5 B    -3.42876480000E-01  1.55129000000E-01 -4.98512830000E-01

   3   3   1    5 B     4.98787130000E-01  1.56559020000E-01  4.98348710000E-01

   4   4   1    5 B     1.11642570000E-01  3.82384350000E-01 -4.98512840000E-01

   5   5   1    5 B     2.70750540000E-01  3.82363580000E-01 -4.98512850000E-01

   6   6   1    5 B     2.71454360000E-01 -4.57050000000E-01  4.98348710000E-01

   7   7   1    1 H    -2.11069020000E-01  8.06815700000E-02  4.94980510000E-01

   8   8   1    1 H    -1.72487300000E-02  4.63263770000E-01  4.93985530000E-01

   9   9   1    1 H    -2.10876530000E-01  3.66353380000E-01  4.93832390000E-01

  10  10   1    1 H    -1.71205800000E-02  1.77948270000E-01  4.93870590000E-01

  11  11   1    1 H    -4.25392070000E-01 -1.35868500000E-01 -4.94991580000E-01

  12  12   1    1 H     1.92275850000E-01 -3.29894140000E-01 -4.93996540000E-01

  13  13   1    1 H     2.89180800000E-01 -1.36352130000E-01 -4.93843310000E-01

  14  14   1    1 H     4.77631880000E-01 -3.30037060000E-01 -4.93881760000E-01

  15  15   1    1 H    -4.23039910000E-01  3.65805710000E-01  4.94980560000E-01

  16  16   1    1 H     1.95078590000E-01  1.77819690000E-01  4.93985460000E-01

  17  17   1    1 H     2.91992640000E-01  8.11042500000E-02  4.93832270000E-01

  18  18   1    1 H     4.80434090000E-01  4.63221210000E-01  4.93870710000E-01

  19  19   1    6 C    -2.22972360000E-01  2.16195000000E-01  4.98233870000E-01

  20  20   1    6 C    -1.67658830000E-01  1.64466540000E-01  4.95133620000E-01

  21  21   1    6 C    -6.06980800000E-02  3.78989720000E-01  4.94865800000E-01

  22  22   1    6 C    -1.67819380000E-01  3.25125970000E-01  4.95669550000E-01

  23  23   1    6 C    -6.03686500000E-02  2.18636850000E-01  4.93602670000E-01

  24  24   1    6 C    -6.24442000000E-03  3.25451780000E-01  4.95707790000E-01

  25  25   1    6 C     4.38364970000E-01 -1.23203960000E-01 -4.98244910000E-01

  26  26   1    6 C     4.90788680000E-01 -1.79246060000E-01 -4.95144710000E-01

  27  27   1    6 C     2.76347740000E-01 -2.86262380000E-01 -4.94876800000E-01

  28  28   1    6 C     3.30021940000E-01 -1.78952070000E-01 -4.95680520000E-01

  29  29   1    6 C     4.36974740000E-01 -2.86884390000E-01 -4.93613790000E-01

  30  30   1    6 C     3.29671100000E-01 -3.40545200000E-01 -4.95718840000E-01

  31  31   1    6 C     4.39182200000E-01  2.16125860000E-01  4.98233860000E-01

  32  32   1    6 C     4.93062270000E-01  3.25306670000E-01  4.95133680000E-01

  33  33   1    6 C     2.78737190000E-01  2.17976470000E-01  4.94865740000E-01

  34  34   1    6 C     3.32015790000E-01  1.64123810000E-01  4.95669470000E-01

  35  35   1    6 C     4.39947950000E-01  3.79484840000E-01  4.93602750000E-01

  36  36   1    6 C     3.31679670000E-01  3.25374380000E-01  4.95707790000E-01

  37  37   1    8 O     4.45653420000E-01  5.01807100000E-02  4.99190720000E-01

  38  38   1    8 O    -3.96928050000E-01  4.71351200000E-02 -4.94187900000E-01

  39  39   1    8 O    -3.94627360000E-01  2.10686650000E-01  4.95822640000E-01

  40  40   1    8 O     1.65241240000E-01  4.89461180000E-01  4.99190750000E-01

  41  41   1    8 O     1.63734220000E-01  3.27452400000E-01 -4.94187900000E-01

  42  42   1    8 O     3.24957060000E-01  4.90998620000E-01  4.95822620000E-01

 NUMBER OF SYMMETRY OPERATORS         :    1
 *******************************************************************************
 * GEOMETRY EDITING - INPUT COORDINATES ARE GIVEN IN ANGSTROM         
 *******************************************************************************

 GCALCO - MAX INDICES DIRECT LATTICE VECTOR     9    13    26
 NO.OF VECTORS CREATED 6999 STARS 3500 RMAX   199.55344 BOHR

 GEOMETRY FOR WAVE FUNCTION - DIMENSIONALITY OF THE SYSTEM    3
 (NON PERIODIC DIRECTION: LATTICE PARAMETER FORMALLY SET TO 500)
 *******************************************************************************
 LATTICE PARAMETERS (ANGSTROMS AND DEGREES) - BOHR = 0.5291772083 ANGSTROM
 PRIMITIVE CELL - CENTRING CODE 1/0 VOLUME=   625.547921 - DENSITY  1.036 g/cm^3
         A              B              C           ALPHA      BETA       GAMMA 
    15.02361100    15.02391600     6.80000000    40.166927  89.999973 119.995964
 *******************************************************************************
 ATOMS IN THE ASYMMETRIC UNIT   42 - ATOMS IN THE UNIT CELL:   42
     ATOM                 X/A                 Y/B                 Z/C    
 *******************************************************************************
      1 T   5 B     4.980678600000E-01 -3.930650000000E-03 -4.985128500000E-01
      2 T   5 B    -3.428764800000E-01  1.551290000000E-01 -4.985128300000E-01
      3 T   5 B     4.987871300000E-01  1.565590200000E-01  4.983487100000E-01
      4 T   5 B     1.116425700000E-01  3.823843500000E-01 -4.985128400000E-01
      5 T   5 B     2.707505400000E-01  3.823635800000E-01 -4.985128500000E-01
      6 T   5 B     2.714543600000E-01 -4.570500000000E-01  4.983487100000E-01
      7 T   1 H    -2.110690200000E-01  8.068157000000E-02  4.949805100000E-01
      8 T   1 H    -1.724873000000E-02  4.632637700000E-01  4.939855300000E-01
      9 T   1 H    -2.108765300000E-01  3.663533800000E-01  4.938323900000E-01
     10 T   1 H    -1.712058000000E-02  1.779482700000E-01  4.938705900000E-01
     11 T   1 H    -4.253920700000E-01 -1.358685000000E-01 -4.949915800000E-01
     12 T   1 H     1.922758500000E-01 -3.298941400000E-01 -4.939965400000E-01
     13 T   1 H     2.891808000000E-01 -1.363521300000E-01 -4.938433100000E-01
     14 T   1 H     4.776318800000E-01 -3.300370600000E-01 -4.938817600000E-01
     15 T   1 H    -4.230399100000E-01  3.658057100000E-01  4.949805600000E-01
     16 T   1 H     1.950785900000E-01  1.778196900000E-01  4.939854600000E-01
     17 T   1 H     2.919926400000E-01  8.110425000000E-02  4.938322700000E-01
     18 T   1 H     4.804340900000E-01  4.632212100000E-01  4.938707100000E-01
     19 T   6 C    -2.229723600000E-01  2.161950000000E-01  4.982338700000E-01
     20 T   6 C    -1.676588300000E-01  1.644665400000E-01  4.951336200000E-01
     21 T   6 C    -6.069808000000E-02  3.789897200000E-01  4.948658000000E-01
     22 T   6 C    -1.678193800000E-01  3.251259700000E-01  4.956695500000E-01
     23 T   6 C    -6.036865000000E-02  2.186368500000E-01  4.936026700000E-01
     24 T   6 C    -6.244420000000E-03  3.254517800000E-01  4.957077900000E-01
     25 T   6 C     4.383649700000E-01 -1.232039600000E-01 -4.982449100000E-01
     26 T   6 C     4.907886800000E-01 -1.792460600000E-01 -4.951447100000E-01
     27 T   6 C     2.763477400000E-01 -2.862623800000E-01 -4.948768000000E-01
     28 T   6 C     3.300219400000E-01 -1.789520700000E-01 -4.956805200000E-01
     29 T   6 C     4.369747400000E-01 -2.868843900000E-01 -4.936137900000E-01
     30 T   6 C     3.296711000000E-01 -3.405452000000E-01 -4.957188400000E-01
     31 T   6 C     4.391822000000E-01  2.161258600000E-01  4.982338600000E-01
     32 T   6 C     4.930622700000E-01  3.253066700000E-01  4.951336800000E-01
     33 T   6 C     2.787371900000E-01  2.179764700000E-01  4.948657400000E-01
     34 T   6 C     3.320157900000E-01  1.641238100000E-01  4.956694700000E-01
     35 T   6 C     4.399479500000E-01  3.794848400000E-01  4.936027500000E-01
     36 T   6 C     3.316796700000E-01  3.253743800000E-01  4.957077900000E-01
     37 T   8 O     4.456534200000E-01  5.018071000000E-02  4.991907200000E-01
     38 T   8 O    -3.969280500000E-01  4.713512000000E-02 -4.941879000000E-01
     39 T   8 O    -3.946273600000E-01  2.106866500000E-01  4.958226400000E-01
     40 T   8 O     1.652412400000E-01  4.894611800000E-01  4.991907500000E-01
     41 T   8 O     1.637342200000E-01  3.274524000000E-01 -4.941879000000E-01
     42 T   8 O     3.249570600000E-01  4.909986200000E-01  4.958226200000E-01

 T = ATOM BELONGING TO THE ASYMMETRIC UNIT

 ****    1 SYMMOPS - TRANSLATORS IN FRACTIONAL UNITS
 **** MATRICES AND TRANSLATORS IN THE CRYSTALLOGRAPHIC REFERENCE FRAME
   V INV                    ROTATION MATRICES                   TRANSLATORS
   1   1  1.00 -0.00  0.00  0.00  1.00  0.00  0.00  0.00  1.00  0.00  0.00  0.00

 DIRECT LATTICE VECTORS CARTESIAN COMPONENTS (ANGSTROM)
          X                    Y                    Z
   0.130113578931E+02  -0.751088897922E+01   0.000000000000E+00
   0.000000000000E+00   0.150239160000E+02   0.000000000000E+00
   0.299962723932E+01   0.519634566861E+01   0.320003564314E+01


 CARTESIAN COORDINATES - PRIMITIVE CELL
 *******************************************************************************
 *      ATOM          X(ANGSTROM)         Y(ANGSTROM)         Z(ANGSTROM)
 *******************************************************************************
    1     5 B     1.985559218151E+00  3.437139086541E+00 -4.795294531710E+00
    2     5 B    -5.956641258412E+00  2.315507255110E+00 -1.595258824565E+00
    3     5 B    -2.026972427654E+00 -1.121294383673E+00  4.794769277859E+00
    4     5 B    -4.273125964630E-02  2.315930368608E+00 -1.595258856565E+00
    5     5 B     2.027479451665E+00  1.120575971531E+00 -1.595258888565E+00
    6     5 B     2.027222955464E+00  3.511618123370E+00 -1.605302008429E+00
    7     1 H    -4.261164777950E+00  1.732132671736E-01 -1.616080368483E+00
    8     1 H    -1.742284186935E+00  4.460163162946E+00 -1.619264339947E+00
    9     1 H     1.737150324953E+00 -1.735139180016E-01  4.780316892883E+00
   10     1 H    -1.740961558576E+00  1.720472690541E-01 -1.619632152044E+00
   11     1 H     2.992011959490E+00  8.983296788011E-01 -4.784026342200E+00
   12     1 H    -1.979662818299E+00  8.601291394619E-01 -4.780842178734E+00
   13     1 H    -7.183381993580E-01  3.040841955233E+00 -4.780351837272E+00
   14     1 H     1.733550912188E+00 -1.284699102937E+00 -4.780474878643E+00
   15     1 H    -1.019939262020E+00  1.417759814764E+00  4.783991077808E+00
   16     1 H     1.020382354085E+00 -1.423092009190E+00 -1.619264563949E+00
   17     1 H     2.280906230603E+00 -3.604843353922E+00 -1.619754777409E+00
   18     1 H     4.732900684111E+00  7.208866927879E-01 -1.619631768039E+00
   19     6 C    -4.406284527538E+00  2.315465904732E+00 -1.605669500523E+00
   20     6 C    -3.695879986728E+00  1.106738113345E+00 -1.615590411025E+00
   21     6 C    -2.304978748136E+00  3.524954346037E+00 -1.616447444571E+00
   22     6 C    -3.696361370012E+00  3.524462645032E+00 -1.613875415923E+00
   23     6 C    -2.304481335660E+00  1.106788324537E+00 -1.620489505593E+00
   24     6 C    -1.593937033150E+00  2.315984708981E+00 -1.613753046560E+00
   25     6 C     1.209547269234E+00  2.095000983446E+00 -4.794437114159E+00
   26     6 C     1.900950366493E+00  8.753902257351E-01 -4.784516363658E+00
   27     6 C    -8.884138206366E-01  8.796202693329E-01 -4.783659042109E+00
   28     6 C    -1.924504552179E-01  2.084523988518E+00 -4.786230974756E+00
   29     6 C     1.205350122851E+00 -3.296132841800E-01 -4.779617365092E+00
   30     6 C    -1.971303057369E-01 -3.408016264558E-01 -4.786353600122E+00
   31     6 C     4.209245403145E+00 -2.658942288026E+00 -1.605669532523E+00
   32     6 C     4.900998892843E+00 -1.439415800651E+00 -1.615590219023E+00
   33     6 C     2.111534851383E+00 -1.443556137231E+00 -1.616447636573E+00
   34     6 C     2.807172674425E+00 -2.648627168112E+00 -1.613875671926E+00
   35     6 C     4.205317246748E+00 -2.344670062853E-01 -1.620489249590E+00
   36     6 C     2.802914242526E+00 -2.232884655097E-01 -1.613753046560E+00
   37     8 O    -2.715788428518E+00 -2.316056405455E+00  4.797463739871E+00
   38     8 O     3.364778251205E+00  3.438146798342E+00 -4.781454537555E+00
   39     8 O    -6.477274792101E-01 -1.121763682580E+00  4.786685763822E+00
   40     8 O     6.477718443269E-01  3.510137068114E+00 -1.602607450416E+00
   41     8 O     6.480250495760E-01  1.121856649434E+00 -1.581418894411E+00
   42     8 O     2.715788405036E+00  2.316125677548E+00 -1.613385586467E+00

 *******************************************************************************
 STARTING BASIS SET HANDLING 
 *******************************************************************************

 Loading internal basis set: SOLDEF2MSVP         

 Please cite in your publication:
 L. Dona', J. G. Brandenburg and B. Civalleri, J. Chem. Phys., 151, 121101 (2019
 )                                                                              
                                                                                
                    

 *******************************************************************************
 LOCAL ATOMIC FUNCTIONS BASIS SET
 *******************************************************************************
   ATOM   X(AU)   Y(AU)   Z(AU)  N. TYPE  EXPONENT  S COEF   P COEF   D/F/G COEF
 *******************************************************************************
   1 B    3.752   6.495  -9.062
                                  1 S  
                                         2.410E+03 1.755E-03 0.000E+00 0.000E+00
                                         3.619E+02 1.344E-02 0.000E+00 0.000E+00
                                         8.231E+01 6.637E-02 0.000E+00 0.000E+00
                                         2.311E+01 2.303E-01 0.000E+00 0.000E+00
                                         7.252E+00 5.150E-01 0.000E+00 0.000E+00
                                  2 S  
                                         2.367E+00 1.000E+00 0.000E+00 0.000E+00
                                  3 S  
                                         5.533E-01 1.000E+00 0.000E+00 0.000E+00
                                  4 S  
                                         1.716E-01 1.000E+00 0.000E+00 0.000E+00
                           5-     7 P  
                                         6.002E+00 0.000E+00-3.555E-02 0.000E+00
                                         1.240E+00 0.000E+00-1.983E-01 0.000E+00
                                         3.367E-01 0.000E+00-5.048E-01 0.000E+00
                           8-    10 P  
                                         1.256E-01 0.000E+00 1.000E+00 0.000E+00
                          11-    15 D  
                                         8.880E-01 0.000E+00 0.000E+00 1.000E+00
   2 B  -11.256   4.376  -3.015
   3 B   -3.830  -2.119   9.061
   4 B   -0.081   4.376  -3.015
   5 B    3.831   2.118  -3.015
   6 B    3.831   6.636  -3.034
   7 H   -8.052   0.327  -3.054
                                 91 S  
                                         1.874E+01 1.968E-02 0.000E+00 0.000E+00
                                         2.826E+00 1.380E-01 0.000E+00 0.000E+00
                                         6.401E-01 4.783E-01 0.000E+00 0.000E+00
                                 92 S  
                                         1.756E-01 1.000E+00 0.000E+00 0.000E+00
   8 H   -3.292   8.428  -3.060
   9 H    3.283  -0.328   9.033
  10 H   -3.290   0.325  -3.061
  11 H    5.654   1.698  -9.040
  12 H   -3.741   1.625  -9.034
  13 H   -1.357   5.746  -9.034
  14 H    3.276  -2.428  -9.034
  15 H   -1.927   2.679   9.040
  16 H    1.928  -2.689  -3.060
  17 H    4.310  -6.812  -3.061
  18 H    8.944   1.362  -3.061
  19 C   -8.327   4.376  -3.034
                                115 S  
                                         3.624E+03 1.634E-03 0.000E+00 0.000E+00
                                         5.440E+02 1.252E-02 0.000E+00 0.000E+00
                                         1.237E+02 6.211E-02 0.000E+00 0.000E+00
                                         3.476E+01 2.182E-01 0.000E+00 0.000E+00
                                         1.093E+01 4.980E-01 0.000E+00 0.000E+00
                                116 S  
                                         3.574E+00 1.000E+00 0.000E+00 0.000E+00
                                117 S  
                                         7.742E-01 1.000E+00 0.000E+00 0.000E+00
                                118 S  
                                         2.330E-01 1.000E+00 0.000E+00 0.000E+00
                         119-   121 P  
                                         9.443E+00 0.000E+00 3.790E-02 0.000E+00
                                         2.002E+00 0.000E+00 2.082E-01 0.000E+00
                                         5.463E-01 0.000E+00 5.047E-01 0.000E+00
                         122-   124 P  
                                         1.820E-01 0.000E+00 1.000E+00 0.000E+00
                         125-   129 D  
                                         8.880E-01 0.000E+00 0.000E+00 1.000E+00
  20 C   -6.984   2.091  -3.053
  21 C   -4.356   6.661  -3.055
  22 C   -6.985   6.660  -3.050
  23 C   -4.355   2.092  -3.062
  24 C   -3.012   4.377  -3.050
  25 C    2.286   3.959  -9.060
  26 C    3.592   1.654  -9.041
  27 C   -1.679   1.662  -9.040
  28 C   -0.364   3.939  -9.045
  29 C    2.278  -0.623  -9.032
  30 C   -0.373  -0.644  -9.045
  31 C    7.954  -5.025  -3.034
  32 C    9.262  -2.720  -3.053
  33 C    3.990  -2.728  -3.055
  34 C    5.305  -5.005  -3.050
  35 C    7.947  -0.443  -3.062
  36 C    5.297  -0.422  -3.050
  37 O   -5.132  -4.377   9.066
                                385 S  
                                         6.773E+03 1.727E-03 0.000E+00 0.000E+00
                                         1.017E+03 1.325E-02 0.000E+00 0.000E+00
                                         2.313E+02 6.603E-02 0.000E+00 0.000E+00
                                         6.501E+01 2.353E-01 0.000E+00 0.000E+00
                                         2.050E+01 5.498E-01 0.000E+00 0.000E+00
                                386 S  
                                         6.716E+00 1.000E+00 0.000E+00 0.000E+00
                                387 S  
                                         1.147E+00 1.000E+00 0.000E+00 0.000E+00
                                388 S  
                                         3.342E-01 1.000E+00 0.000E+00 0.000E+00
                         389-   391 P  
                                         1.769E+01 0.000E+00 4.359E-02 0.000E+00
                                         3.854E+00 0.000E+00 2.318E-01 0.000E+00
                                         1.047E+00 0.000E+00 5.146E-01 0.000E+00
                         392-   394 P  
                                         2.759E-01 0.000E+00 1.000E+00 0.000E+00
                         395-   399 D  
                                         8.000E-01 0.000E+00 0.000E+00 1.000E+00
  38 O    6.359   6.497  -9.036
  39 O   -1.224  -2.120   9.046
  40 O    1.224   6.633  -3.028
  41 O    1.225   2.120  -2.988
  42 O    5.132   4.377  -3.049

 *******************************************************************************
 FINISHED BASIS SET HANDLING 
 *******************************************************************************

 INFORMATION **** SET_MPP **** PCRYSTAL CALCULATION
 INFORMATION **** READM2 **** NEW DEFAULT: FOCK/KS MATRIX MIXING SET TO 30 %
 INFORMATION **** READM2 **** NEW DEFAULT: FULL DIRECT SCF MODE
 INFORMATION **** READM2 **** NEW DEFAULT: COULOMB BIPOLAR BUFFER SET TO 32 Mb
 INFORMATION **** READM2 **** NEW DEFAULT: EXCHANGE BIPOLAR BUFFER SET TO 32 Mb

 *******************************************************************************
 NEW DEFAULT: DFT INTEGRATION GRID INCREASED TO XLGRID
 NEW DEFAULT: DIIS ACCELERATOR ACTIVE
 USE KEYWORD NODIIS TO TURN IT OFF
 *******************************************************************************

 WARNING **** RDDFTP **** HSEsol-HJS ACTIVE
 RANGE SEPARATION - OMEGA:   0.110000000000000     
 WARNING **** RDDFTP **** HSEsol-3c has to be combined with sol-def2-mSVP basis set
 *******************************************************************************
 N. OF ATOMS PER CELL        42  COULOMB OVERLAP TOL         (T1) 10**   -6
 NUMBER OF SHELLS           234  COULOMB PENETRATION TOL     (T2) 10**   -6
 NUMBER OF AO               474  EXCHANGE OVERLAP TOL        (T3) 10**   -6
 N. OF ELECTRONS PER CELL   198  EXCHANGE PSEUDO OVP (F(G))  (T4) 10**   -6
 CORE ELECTRONS PER CELL     60  EXCHANGE PSEUDO OVP (P(G))  (T5) 10**  -12
 N. OF SYMMETRY OPERATORS     1  POLE ORDER IN MONO ZONE                  4
 *******************************************************************************
 TYPE OF CALCULATION :  RESTRICTED CLOSED SHELL
 KOHN-SHAM HAMILTONIAN

 (EXCHANGE)[CORRELATION] FUNCTIONAL:(HSEsol GGA)[PBEsol]

 RANGE-SEPARATED HYBRID FUNCTIONAL 
 OMEGA (SHORT-RANGE)[LONG-RANGE]:(    0.1100)[    0.0000]

 HYBRID EXCHANGE - PERCENTAGE OF FOCK EXCHANGE    25.0000

 CAPPA:IS1  2;IS2  2;IS3  8; K PTS MONK NET  20; SYMMOPS:K SPACE   2;G SPACE   1

 *******************************************************************************
 MAX NUMBER OF SCF CYCLES      50  CONVERGENCE ON DELTAP        10**-16
 WEIGHT OF F(I) IN F(I+1)      30% CONVERGENCE ON ENERGY        10**- 6
 SHRINK. FACT.(MONKH.)    2  2  8  NUMBER OF K POINTS IN THE IBZ     20
 SHRINKING FACTOR(GILAT NET)    8  NUMBER OF K POINTS(GILAT NET)   1028
 *******************************************************************************
 *** K POINTS COORDINATES (OBLIQUE COORDINATES IN UNITS OF IS =  2)
   1-R(  0  0  0)   2-R(  1  0  0)   3-R(  0  1  0)   4-R(  1  1  0)
   5-C(  0  0  1)   6-C(  1  0  1)   7-C(  0  1  1)   8-C(  1  1  1)
   9-C(  0  0  2)  10-C(  1  0  2)  11-C(  0  1  2)  12-C(  1  1  2)
  13-C(  0  0  3)  14-C(  1  0  3)  15-C(  0  1  3)  16-C(  1  1  3)
  17-R(  0  0  4)  18-R(  1  0  4)  19-R(  0  1  4)  20-R(  1  1  4)

 DIRECT LATTICE VECTORS COMPON. (A.U.)     RECIP. LATTICE VECTORS COMPON. (A.U.) 
        X            Y            Z              X            Y            Z
   24.5879030  -14.1935232    0.0000000      0.2555397    0.0000000   -0.2395360
    0.0000000   28.3910867    0.0000000      0.1277517    0.2213084   -0.4791204
    5.6684740    9.8196702    6.0471910      0.0000000    0.0000000    1.0390254

 DISK SPACE FOR EIGENVECTORS (FTN 10)     7189632 REALS

 SYMMETRY ADAPTION OF THE BLOCH FUNCTIONS DISABLED
 TTTTTTTTTTTTTTTTTTTTTTTTTTTTTT gordsh1     TELAPSE        0.06 TCPU        0.06

 MATRIX SIZE: P(G)  370730, F(G)   71456, P(G) IRR  186610, F(G) IRR   71972
 MAX G-VECTOR INDEX FOR 1- AND 2-ELECTRON INTEGRALS  51

 TTTTTTTTTTTTTTTTTTTTTTTTTTTTTT INPUT       TELAPSE        0.45 TCPU        0.44

 NEIGHBORS OF THE NON-EQUIVALENT ATOMS

 N = NUMBER OF NEIGHBORS AT DISTANCE R
    ATOM  N     R/ANG      R/AU   NEIGHBORS (ATOM LABELS AND CELL INDICES)
   1 B    1     1.3791     2.6061   37 O    1 2-3
   1 B    1     1.3793     2.6065   38 O    0 0 0
   1 B    1     1.5503     2.9297   25 C    0 0 0
   1 B    1     2.3895     4.5155    3 B    1 2-3
   1 B    1     2.3898     4.5160    2 B    1 1-1
   1 B    1     2.5632     4.8437   26 C    0 0 0

   2 B    1     1.3793     2.6065   39 O    0 1-2
   2 B    1     1.3793     2.6065   38 O   -1-1 1
   2 B    1     1.5504     2.9298   19 C    0 0 0
   2 B    1     2.3895     4.5156    3 B    0 1-2
   2 B    1     2.3898     4.5160    1 B   -1-1 1
   2 B    1     2.5634     4.8440   22 C    0 0 0

   3 B    1     1.3791     2.6061   37 O    0 0 0
   3 B    1     1.3793     2.6064   39 O    0 0 0
   3 B    1     1.5502     2.9294   31 C   -1-1 2
   3 B    1     2.3895     4.5155    1 B   -1-2 3
   3 B    1     2.3895     4.5156    2 B    0-1 2
   3 B    1     2.5629     4.8433   32 C   -1-1 2

   4 B    1     1.3795     2.6068   40 O    0 0 0
   4 B    1     1.3795     2.6070   41 O    0 0 0
   4 B    1     1.5513     2.9316   24 C    0 0 0
   4 B    1     2.3905     4.5174    6 B    0 0 0
   4 B    1     2.3905     4.5175    5 B    0 0 0
   4 B    1     2.5648     4.8468   23 C    0 0 0

   5 B    1     1.3795     2.6069   41 O    0 0 0
   5 B    1     1.3797     2.6072   42 O    0 0 0
   5 B    1     1.5516     2.9322   36 C    0 0 0
   5 B    1     2.3905     4.5175    4 B    0 0 0
   5 B    1     2.3911     4.5185    6 B    0 0 0
   5 B    1     2.5651     4.8473   35 C    0 0 0

   6 B    1     1.3795     2.6068   40 O    0 0 0
   6 B    1     1.3796     2.6071   42 O    0 0 0
   6 B    1     1.5516     2.9322   30 C    0 0 1
   6 B    1     2.3905     4.5174    4 B    0 0 0
   6 B    1     2.3911     4.5185    5 B    0 0 0
   6 B    1     2.5651     4.8473   29 C    0 0 1

   7 H    1     1.0913     2.0623   20 C    0 0 0
   7 H    1     2.1472     4.0576   19 C    0 0 0
   7 H    1     2.1680     4.0969   23 C    0 0 0
   7 H    1     2.5202     4.7625   10 H    0 0 0
   7 H    1     2.5676     4.8520   38 O   -1-1 1
   7 H    1     2.7321     5.1630    2 B    0 0 0

   8 H    1     1.0914     2.0625   21 C    0 0 0
   8 H    1     2.1493     4.0616   24 C    0 0 0
   8 H    1     2.1666     4.0942   22 C    0 0 0
   8 H    1     2.5198     4.7618    9 H    0 1-2
   8 H    1     2.5720     4.8604   40 O    0 0 0
   8 H    1     2.7362     5.1707    4 B    0 0 0

   9 H    1     1.0914     2.0624   22 C    0-1 2
   9 H    1     2.1471     4.0575   19 C    0-1 2
   9 H    1     2.1680     4.0970   21 C    0-1 2
   9 H    1     2.5198     4.7618    8 H    0-1 2
   9 H    1     2.5665     4.8500   39 O    0 0 0
   9 H    1     2.7315     5.1618    2 B    0-1 2

  10 H    1     1.0915     2.0626   23 C    0 0 0
  10 H    1     2.1490     4.0610   24 C    0 0 0
  10 H    1     2.1669     4.0948   20 C    0 0 0
  10 H    1     2.5202     4.7625    7 H    0 0 0
  10 H    1     2.5712     4.8588   41 O    0 0 0
  10 H    1     2.7351     5.1686    4 B    0 0 0

  11 H    1     1.0913     2.0623   26 C    0 0 0
  11 H    1     2.1469     4.0571   25 C    0 0 0
  11 H    1     2.1680     4.0968   29 C    0 0 0
  11 H    1     2.5198     4.7617   14 H    0 0 0
  11 H    1     2.5670     4.8510   38 O    0 0 0
  11 H    1     2.7310     5.1609    1 B    0 0 0

  12 H    1     1.0914     2.0625   27 C    0 0 0
  12 H    1     2.1493     4.0617   30 C    0 0 0
  12 H    1     2.1664     4.0939   28 C    0 0 0
  12 H    1     2.5192     4.7606   13 H    0 0 0
  12 H    1     2.5735     4.8632   40 O    0 0-1
  12 H    1     2.7371     5.1723    6 B    0 0-1

  13 H    1     1.0914     2.0624   28 C    0 0 0
  13 H    1     2.1475     4.0581   25 C    0 0 0
  13 H    1     2.1679     4.0967   27 C    0 0 0
  13 H    1     2.5192     4.7606   12 H    0 0 0
  13 H    1     2.5675     4.8519   37 O    1 2-3
  13 H    1     2.7328     5.1643    1 B    0 0 0

  14 H    1     1.0914     2.0625   29 C    0 0 0
  14 H    1     2.1491     4.0612   30 C    0 0 0
  14 H    1     2.1666     4.0942   26 C    0 0 0
  14 H    1     2.5198     4.7617   11 H    0 0 0
  14 H    1     2.5723     4.8609   42 O    0 0-1
  14 H    1     2.7355     5.1693    6 B    0 0-1

  15 H    1     1.0914     2.0624   32 C   -1-1 2
  15 H    1     2.1475     4.0582   31 C   -1-1 2
  15 H    1     2.1678     4.0966   35 C   -1-1 2
  15 H    1     2.5200     4.7621   18 H   -1-1 2
  15 H    1     2.5667     4.8503   39 O    0 0 0
  15 H    1     2.7315     5.1618    3 B    0 0 0

  16 H    1     1.0913     2.0623   33 C    0 0 0
  16 H    1     2.1487     4.0605   36 C    0 0 0
  16 H    1     2.1667     4.0945   34 C    0 0 0
  16 H    1     2.5197     4.7616   17 H    0 0 0
  16 H    1     2.5723     4.8610   41 O    0 0 0
  16 H    1     2.7359     5.1701    5 B    0 0 0

  17 H    1     1.0915     2.0626   34 C    0 0 0
  17 H    1     2.1479     4.0589   31 C    0 0 0
  17 H    1     2.1679     4.0968   33 C    0 0 0
  17 H    1     2.5197     4.7616   16 H    0 0 0
  17 H    1     2.5677     4.8522   37 O    1 1-2
  17 H    1     2.7331     5.1648    3 B    1 1-2

  18 H    1     1.0914     2.0624   35 C    0 0 0
  18 H    1     2.1486     4.0602   36 C    0 0 0
  18 H    1     2.1668     4.0947   32 C    0 0 0
  18 H    1     2.5200     4.7621   15 H    1 1-2
  18 H    1     2.5717     4.8598   42 O    0 0 0
  18 H    1     2.7349     5.1682    5 B    0 0 0

  19 C    1     1.4020     2.6495   22 C    0 0 0
  19 C    1     1.4021     2.6495   20 C    0 0 0
  19 C    1     1.5504     2.9298    2 B    0 0 0
  19 C    1     2.1471     4.0575    9 H    0 1-2
  19 C    1     2.1472     4.0576    7 H    0 0 0
  19 C    1     2.4246     4.5817   21 C    0 0 0

  20 C    1     1.0913     2.0623    7 H    0 0 0
  20 C    1     1.3914     2.6294   23 C    0 0 0
  20 C    1     1.4021     2.6495   19 C    0 0 0
  20 C    1     2.1669     4.0948   10 H    0 0 0
  20 C    1     2.4177     4.5688   22 C    0 0 0
  20 C    1     2.4250     4.5825   24 C    0 0 0

  21 C    1     1.0914     2.0625    8 H    0 0 0
  21 C    1     1.3914     2.6293   22 C    0 0 0
  21 C    1     1.4026     2.6505   24 C    0 0 0
  21 C    1     2.1680     4.0970    9 H    0 1-2
  21 C    1     2.4182     4.5697   23 C    0 0 0
  21 C    1     2.4246     4.5817   19 C    0 0 0

  22 C    1     1.0914     2.0624    9 H    0 1-2
  22 C    1     1.3914     2.6293   21 C    0 0 0
  22 C    1     1.4020     2.6495   19 C    0 0 0
  22 C    1     2.1666     4.0942    8 H    0 0 0
  22 C    1     2.4177     4.5688   20 C    0 0 0
  22 C    1     2.4250     4.5826   24 C    0 0 0

  23 C    1     1.0915     2.0626   10 H    0 0 0
  23 C    1     1.3914     2.6294   20 C    0 0 0
  23 C    1     1.4025     2.6504   24 C    0 0 0
  23 C    1     2.1680     4.0969    7 H    0 0 0
  23 C    1     2.4182     4.5697   21 C    0 0 0
  23 C    1     2.4246     4.5818   19 C    0 0 0

  24 C    1     1.4025     2.6504   23 C    0 0 0
  24 C    1     1.4026     2.6505   21 C    0 0 0
  24 C    1     1.5513     2.9316    4 B    0 0 0
  24 C    1     2.1490     4.0610   10 H    0 0 0
  24 C    1     2.1493     4.0616    8 H    0 0 0
  24 C    1     2.4250     4.5825   20 C    0 0 0

  25 C    1     1.4020     2.6494   26 C    0 0 0
  25 C    1     1.4021     2.6495   28 C    0 0 0
  25 C    1     1.5503     2.9297    1 B    0 0 0
  25 C    1     2.1469     4.0571   11 H    0 0 0
  25 C    1     2.1475     4.0581   13 H    0 0 0
  25 C    1     2.4246     4.5818   27 C    0 0 0

  26 C    1     1.0913     2.0623   11 H    0 0 0
  26 C    1     1.3914     2.6293   29 C    0 0 0
  26 C    1     1.4020     2.6494   25 C    0 0 0
  26 C    1     2.1666     4.0942   14 H    0 0 0
  26 C    1     2.4175     4.5684   28 C    0 0 0
  26 C    1     2.4251     4.5828   30 C    0 0 0

  27 C    1     1.0914     2.0625   12 H    0 0 0
  27 C    1     1.3915     2.6295   28 C    0 0 0
  27 C    1     1.4026     2.6505   30 C    0 0 0
  27 C    1     2.1679     4.0967   13 H    0 0 0
  27 C    1     2.4179     4.5691   29 C    0 0 0
  27 C    1     2.4246     4.5818   25 C    0 0 0

  28 C    1     1.0914     2.0624   13 H    0 0 0
  28 C    1     1.3915     2.6295   27 C    0 0 0
  28 C    1     1.4021     2.6495   25 C    0 0 0
  28 C    1     2.1664     4.0939   12 H    0 0 0
  28 C    1     2.4175     4.5684   26 C    0 0 0
  28 C    1     2.4253     4.5832   30 C    0 0 0

  29 C    1     1.0914     2.0625   14 H    0 0 0
  29 C    1     1.3914     2.6293   26 C    0 0 0
  29 C    1     1.4025     2.6504   30 C    0 0 0
  29 C    1     2.1680     4.0968   11 H    0 0 0
  29 C    1     2.4179     4.5691   27 C    0 0 0
  29 C    1     2.4247     4.5819   25 C    0 0 0

  30 C    1     1.4025     2.6504   29 C    0 0 0
  30 C    1     1.4026     2.6505   27 C    0 0 0
  30 C    1     1.5516     2.9322    6 B    0 0-1
  30 C    1     2.1491     4.0612   14 H    0 0 0
  30 C    1     2.1493     4.0617   12 H    0 0 0
  30 C    1     2.4251     4.5828   26 C    0 0 0

  31 C    1     1.4021     2.6496   32 C    0 0 0
  31 C    1     1.4021     2.6497   34 C    0 0 0
  31 C    1     1.5502     2.9294    3 B    1 1-2
  31 C    1     2.1475     4.0582   15 H    1 1-2
  31 C    1     2.1479     4.0589   17 H    0 0 0
  31 C    1     2.4244     4.5814   33 C    0 0 0

  32 C    1     1.0914     2.0624   15 H    1 1-2
  32 C    1     1.3914     2.6293   35 C    0 0 0
  32 C    1     1.4021     2.6496   31 C    0 0 0
  32 C    1     2.1668     4.0947   18 H    0 0 0
  32 C    1     2.4179     4.5692   34 C    0 0 0
  32 C    1     2.4251     4.5827   36 C    0 0 0

  33 C    1     1.0913     2.0623   16 H    0 0 0
  33 C    1     1.3914     2.6294   34 C    0 0 0
  33 C    1     1.4025     2.6504   36 C    0 0 0
  33 C    1     2.1679     4.0968   17 H    0 0 0
  33 C    1     2.4178     4.5690   35 C    0 0 0
  33 C    1     2.4244     4.5814   31 C    0 0 0

  34 C    1     1.0915     2.0626   17 H    0 0 0
  34 C    1     1.3914     2.6294   33 C    0 0 0
  34 C    1     1.4021     2.6497   31 C    0 0 0
  34 C    1     2.1667     4.0945   16 H    0 0 0
  34 C    1     2.4179     4.5692   32 C    0 0 0
  34 C    1     2.4253     4.5832   36 C    0 0 0

  35 C    1     1.0914     2.0624   18 H    0 0 0
  35 C    1     1.3914     2.6293   32 C    0 0 0
  35 C    1     1.4025     2.6503   36 C    0 0 0
  35 C    1     2.1678     4.0966   15 H    1 1-2
  35 C    1     2.4178     4.5690   33 C    0 0 0
  35 C    1     2.4245     4.5817   31 C    0 0 0

  36 C    1     1.4025     2.6503   35 C    0 0 0
  36 C    1     1.4025     2.6504   33 C    0 0 0
  36 C    1     1.5516     2.9322    5 B    0 0 0
  36 C    1     2.1486     4.0602   18 H    0 0 0
  36 C    1     2.1487     4.0605   16 H    0 0 0
  36 C    1     2.4251     4.5827   32 C    0 0 0

  37 O    1     1.3791     2.6061    3 B    0 0 0
  37 O    1     1.3791     2.6061    1 B   -1-2 3
  37 O    1     2.3880     4.5126   38 O   -1-2 3
  37 O    1     2.3882     4.5130   39 O    0 0 0
  37 O    1     2.5383     4.7966   31 C   -1-1 2
  37 O    1     2.5384     4.7968   25 C   -1-2 3

  38 O    1     1.3793     2.6065    1 B    0 0 0
  38 O    1     1.3793     2.6065    2 B    1 1-1
  38 O    1     2.3880     4.5126   37 O    1 2-3
  38 O    1     2.3882     4.5131   39 O    1 2-3
  38 O    1     2.5391     4.7981   19 C    1 1-1
  38 O    1     2.5395     4.7990   25 C    0 0 0

  39 O    1     1.3793     2.6064    3 B    0 0 0
  39 O    1     1.3793     2.6065    2 B    0-1 2
  39 O    1     2.3882     4.5130   37 O    0 0 0
  39 O    1     2.3882     4.5131   38 O   -1-2 3
  39 O    1     2.5390     4.7980   19 C    0-1 2
  39 O    1     2.5391     4.7982   31 C   -1-1 2

  40 O    1     1.3795     2.6068    6 B    0 0 0
  40 O    1     1.3795     2.6068    4 B    0 0 0
  40 O    1     2.3880     4.5126   42 O    0 0 0
  40 O    1     2.3884     4.5134   41 O    0 0 0
  40 O    1     2.5400     4.7998   24 C    0 0 0
  40 O    1     2.5403     4.8005   30 C    0 0 1

  41 O    1     1.3795     2.6069    5 B    0 0 0
  41 O    1     1.3795     2.6070    4 B    0 0 0
  41 O    1     2.3881     4.5128   42 O    0 0 0
  41 O    1     2.3884     4.5134   40 O    0 0 0
  41 O    1     2.5404     4.8006   24 C    0 0 0
  41 O    1     2.5405     4.8008   36 C    0 0 0

  42 O    1     1.3796     2.6071    6 B    0 0 0
  42 O    1     1.3797     2.6072    5 B    0 0 0
  42 O    1     2.3880     4.5126   40 O    0 0 0
  42 O    1     2.3881     4.5128   41 O    0 0 0
  42 O    1     2.5409     4.8016   36 C    0 0 0
  42 O    1     2.5410     4.8019   30 C    0 0 1


 SYMMETRY ALLOWED INTERNAL DEGREE(S) OF FREEDOM: 123
 TTTTTTTTTTTTTTTTTTTTTTTTTTTTTT SYMM        TELAPSE        0.45 TCPU        0.45
 TTTTTTTTTTTTTTTTTTTTTTTTTTTTTT INT_SCREEN  TELAPSE        0.49 TCPU        0.48

 DFT PARAMETERS

     ATOM       ELECTRONS   NET CHARGE   R(ANGSTROM)
   1   5  B       5.0000      0.0000     0.89000000
   7   1  H       1.0000      0.0000     1.11000000
  19   6  C       6.0000      0.0000     0.77000000
  37   8  O       8.0000      0.0000     0.74000000

 SIZE OF GRID=    1261403
 TTTTTTTTTTTTTTTTTTTTTTTTTTTTTT MAKE_GRID2  TELAPSE       10.96 TCPU       10.94
 BECKE WEIGHT FUNCTION
 RADSAFE =     2.00
 TOLERANCES - DENSITY:10**- 6; POTENTIAL:10**- 9; GRID WGT:10**-14

 RADIAL INTEGRATION  - INTERVALS (POINTS,UPPER LIMIT):            1( 75,  4.0*R)

 ANGULAR INTEGRATION - INTERVALS (ACCURACY LEVEL [N. POINTS] UPPER LIMIT):
  1(  4[  86]   0.2)  2(  8[ 194]   0.5)  3( 12[ 350]   0.9)  4( 16[ 974]   3.5)
  5( 12[ 350]9999.0)
 TTTTTTTTTTTTTTTTTTTTTTTTTTTTTT INT_CALC    TELAPSE       11.04 TCPU       11.03
 EEEEEEEEEE INT_CALC TERMINATION  DATE 19 02 2026 TIME 18:02:13.1

 *******************************************************************************
 cof-1_z32_L060_incl                                                             
 CRYSTAL - SCF - TYPE OF CALCULATION :  RESTRICTED CLOSED SHELL
 *******************************************************************************

 CAPPA:IS1  2;IS2  2;IS3  8; K PTS MONK NET  20; SYMMOPS:K SPACE   2;G SPACE   1

 TTTTTTTTTTTTTTTTTTTTTTTTTTTTTT SDIK        TELAPSE       11.62 TCPU       18.97

 AAAAAAAAAAAAAAAAAAAAAAAAAAAAAAAAAAAAAAAAAAAAAAAAAAAAAAAAAAAAAAAAAAAAAAAAAAAAAAA
         ATOMIC WAVEFUNCTION(S)


 NUCLEAR CHARGE  5.0  SYMMETRY SPECIES            S    P
 N. ELECTRONS    5.0  NUMBER OF PRIMITIVE GTOS    8    4
                      NUMBER OF CONTRACTED GTOS   4    2
                      NUMBER OF CLOSED SHELLS     2    0
                      OPEN SHELL OCCUPATION       0    1

  ZNUC  SCFIT    TOTAL HF ENERGY   KINETIC ENERGY   VIRIAL THEOREM ACCURACY
   5.0    11    -2.451164084E+01  2.462155050E+01 -1.995536038E+00  1.5E-06

 NUCLEAR CHARGE  1.0  SYMMETRY SPECIES            S
 N. ELECTRONS    1.0  NUMBER OF PRIMITIVE GTOS    4
                      NUMBER OF CONTRACTED GTOS   2
                      NUMBER OF CLOSED SHELLS     0
                      OPEN SHELL OCCUPATION       1

  ZNUC  SCFIT    TOTAL HF ENERGY   KINETIC ENERGY   VIRIAL THEOREM ACCURACY
   1.0     1    -4.977266687E-01  5.190767460E-01 -1.958869132E+00  0.0E+00

 NUCLEAR CHARGE  6.0  SYMMETRY SPECIES            S    P
 N. ELECTRONS    6.0  NUMBER OF PRIMITIVE GTOS    8    4
                      NUMBER OF CONTRACTED GTOS   4    2
                      NUMBER OF CLOSED SHELLS     2    0
                      OPEN SHELL OCCUPATION       0    2

  ZNUC  SCFIT    TOTAL HF ENERGY   KINETIC ENERGY   VIRIAL THEOREM ACCURACY
   6.0     9    -3.766704647E+01  3.775180683E+01 -1.997754800E+00  1.1E-06

 NUCLEAR CHARGE  8.0  SYMMETRY SPECIES            S    P
 N. ELECTRONS    8.0  NUMBER OF PRIMITIVE GTOS    8    4
                      NUMBER OF CONTRACTED GTOS   4    2
                      NUMBER OF CLOSED SHELLS     2    0
                      OPEN SHELL OCCUPATION       0    4

  ZNUC  SCFIT    TOTAL HF ENERGY   KINETIC ENERGY   VIRIAL THEOREM ACCURACY
   8.0    12    -7.477373220E+01  7.477365593E+01 -2.000001020E+00  3.8E-06

 AAAAAAAAAAAAAAAAAAAAAAAAAAAAAAAAAAAAAAAAAAAAAAAAAAAAAAAAAAAAAAAAAAAAAAAAAAAAAAA

 CHARGE NORMALIZATION FACTOR   1.00000000
 TOTAL ATOMIC CHARGES:
   5.0000000   5.0000000   5.0000000   5.0000000   5.0000000   5.0000000
   1.0000000   1.0000000   1.0000000   1.0000000   1.0000000   1.0000000
   1.0000000   1.0000000   1.0000000   1.0000000   1.0000000   1.0000000
   6.0000000   6.0000000   6.0000000   6.0000000   6.0000000   6.0000000
   6.0000000   6.0000000   6.0000000   6.0000000   6.0000000   6.0000000
   6.0000000   6.0000000   6.0000000   6.0000000   6.0000000   6.0000000
   8.0000000   8.0000000   8.0000000   8.0000000   8.0000000   8.0000000
 TTTTTTTTTTTTTTTTTTTTTTTTTTTTTT MOQGAD      TELAPSE       11.67 TCPU       20.51
 TTTTTTTTTTTTTTTTTTTTTTTTTTTTTT SHELLXN     TELAPSE       21.52 TCPU      335.15
 TTTTTTTTTTTTTTTTTTTTTTTTTTTTTT MONMO3      TELAPSE       21.69 TCPU      340.47
 NUMERICALLY INTEGRATED DENSITY    197.9999863450
 TTTTTTTTTTTTTTTTTTTTTTTTTTTTTT NUMDFT      TELAPSE       22.40 TCPU      363.23
 CYC   0 ETOT(AU) -1.295995031379E+03 DETOT -1.30E+03 tst  0.00E+00 PX  1.00E+00
 TTTTTTTTTTTTTTTTTTTTTTTTTTTTTT DIIS        TELAPSE       22.44 TCPU      364.44
 TTTTTTTTTTTTTTTTTTTTTTTTTTTTTT FDIK        TELAPSE       22.93 TCPU      380.03
 INSULATING STATE
 TOP OF VALENCE BANDS -    BAND     99; K    1; EIG -3.0240408E-01 AU
 BOTTOM OF VIRTUAL BANDS - BAND    100; K   17; EIG -1.6916320E-01 AU
 INDIRECT ENERGY BAND GAP:   3.6257 eV
 BOTTOM OF VIRTUAL BANDS - BAND    100; K    1; EIG -1.5814269E-01 AU
 TTTTTTTTTTTTTTTTTTTTTTTTTTTTTT PDIG        TELAPSE       23.27 TCPU      386.23
 CHARGE NORMALIZATION FACTOR   1.00000000
 TOTAL ATOMIC CHARGES:
   4.1403091   4.1595065   4.1601069   4.1591920   4.1587506   4.1389190
   0.7857262   0.7858947   0.7842272   0.7842754   0.7860132   0.7863124
   0.7859979   0.7862191   0.7842005   0.7843552   0.7856658   0.7858883
   6.0465209   6.2698197   6.2697955   6.2676047   6.2677664   6.0458191
   6.0466698   6.2586332   6.2585756   6.2585540   6.2585125   6.0456973
   6.0469189   6.2673071   6.2681173   6.2693776   6.2700918   6.0454367
   8.6989650   8.6993050   8.6994866   8.6996613   8.6998667   8.6999375
 TTTTTTTTTTTTTTTTTTTTTTTTTTTTTT MOQGAD      TELAPSE       23.32 TCPU      386.28
 TTTTTTTTTTTTTTTTTTTTTTTTTTTTTT SHELLXN     TELAPSE       33.57 TCPU      713.07
 TTTTTTTTTTTTTTTTTTTTTTTTTTTTTT MONMO3      TELAPSE       33.73 TCPU      718.35
 NUMERICALLY INTEGRATED DENSITY    197.9999784054
 TTTTTTTTTTTTTTTTTTTTTTTTTTTTTT NUMDFT      TELAPSE       34.46 TCPU      741.45
 CYC   1 ETOT(AU) -1.288826605416E+03 DETOT  7.17E+00 tst  0.00E+00 PX  1.00E+00
 TTTTTTTTTTTTTTTTTTTTTTTTTTTTTT DIIS        TELAPSE       34.50 TCPU      742.94
 DIIS TEST: 0.10946E+01 AT SCF   CYCLE   1 - MIX   30 %
 TTTTTTTTTTTTTTTTTTTTTTTTTTTTTT FDIK        TELAPSE       34.99 TCPU      758.53
 INSULATING STATE
 TOP OF VALENCE BANDS -    BAND     99; K    1; EIG -2.1506900E-01 AU
 BOTTOM OF VIRTUAL BANDS - BAND    100; K   17; EIG -9.6923775E-02 AU
 INDIRECT ENERGY BAND GAP:   3.2149 eV
 BOTTOM OF VIRTUAL BANDS - BAND    100; K    1; EIG -7.9714639E-02 AU
 TTTTTTTTTTTTTTTTTTTTTTTTTTTTTT PDIG        TELAPSE       35.33 TCPU      764.73
 CHARGE NORMALIZATION FACTOR   1.00000000
 TOTAL ATOMIC CHARGES:
   4.6945122   4.6904932   4.6912737   4.6902098   4.6900252   4.6942276
   0.9072366   0.9073772   0.9123483   0.9121544   0.8923227   0.8924001
   0.8924774   0.8922150   0.9122090   0.9122731   0.9073216   0.9073049
   5.8676568   6.1536540   6.1545686   6.1348462   6.1350302   5.8703498
   5.9106117   6.1308354   6.1314259   6.1312636   6.1311687   5.9143824
   5.8675510   6.1345673   6.1353094   6.1541280   6.1538893   5.8703378
   8.3403280   8.3405485   8.3296260   8.3404752   8.3286741   8.3403903
 TTTTTTTTTTTTTTTTTTTTTTTTTTTTTT MOQGAD      TELAPSE       35.38 TCPU      764.78
 TTTTTTTTTTTTTTTTTTTTTTTTTTTTTT SHELLXN     TELAPSE       45.64 TCPU     1091.93
 TTTTTTTTTTTTTTTTTTTTTTTTTTTTTT MONMO3      TELAPSE       45.80 TCPU     1097.18
 NUMERICALLY INTEGRATED DENSITY    197.9999732125
 TTTTTTTTTTTTTTTTTTTTTTTTTTTTTT NUMDFT      TELAPSE       46.52 TCPU     1120.19
 CYC   2 ETOT(AU) -1.289017442004E+03 DETOT -1.91E-01 tst  3.19E-03 PX  1.60E-01
 TTTTTTTTTTTTTTTTTTTTTTTTTTTTTT DIIS        TELAPSE       46.57 TCPU     1121.86
 DIIS TEST: 0.45555E+00 AT SCF   CYCLE   2 - DIIS ACTIVE - HISTORY:     2 CYCLES
 TTTTTTTTTTTTTTTTTTTTTTTTTTTTTT FDIK        TELAPSE       47.05 TCPU     1137.19
 INSULATING STATE
 TOP OF VALENCE BANDS -    BAND     99; K    1; EIG -2.2605697E-01 AU
 BOTTOM OF VIRTUAL BANDS - BAND    100; K   17; EIG -9.1219124E-02 AU
 INDIRECT ENERGY BAND GAP:   3.6691 eV
 BOTTOM OF VIRTUAL BANDS - BAND    100; K    1; EIG -7.6273477E-02 AU
 TTTTTTTTTTTTTTTTTTTTTTTTTTTTTT PDIG        TELAPSE       47.39 TCPU     1143.38
 CHARGE NORMALIZATION FACTOR   1.00000000
 TOTAL ATOMIC CHARGES:
   4.4760782   4.4931296   4.4936156   4.4926234   4.4922963   4.4754339
   0.8865625   0.8868880   0.8899767   0.8897605   0.8749347   0.8753272
   0.8751051   0.8751060   0.8897636   0.8899209   0.8867105   0.8867004
   5.8987497   6.1665343   6.1662637   6.1606261   6.1606341   5.8992402
   5.8991132   6.1668174   6.1661073   6.1666063   6.1663677   5.8985487
   5.8988152   6.1605951   6.1606878   6.1661384   6.1665485   5.8992377
   8.5154476   8.5159743   8.5193377   8.5159132   8.5194772   8.5162851
 TTTTTTTTTTTTTTTTTTTTTTTTTTTTTT MOQGAD      TELAPSE       47.44 TCPU     1143.43
 TTTTTTTTTTTTTTTTTTTTTTTTTTTTTT SHELLXN     TELAPSE       57.71 TCPU     1471.04
 TTTTTTTTTTTTTTTTTTTTTTTTTTTTTT MONMO3      TELAPSE       57.88 TCPU     1476.36
 NUMERICALLY INTEGRATED DENSITY    197.9999725703
 TTTTTTTTTTTTTTTTTTTTTTTTTTTTTT NUMDFT      TELAPSE       58.60 TCPU     1499.43
 CYC   3 ETOT(AU) -1.289111110185E+03 DETOT -9.37E-02 tst  7.89E-04 PX  6.75E-02
 TTTTTTTTTTTTTTTTTTTTTTTTTTTTTT DIIS        TELAPSE       58.66 TCPU     1501.31
 DIIS TEST: 0.14798E-01 AT SCF   CYCLE   3 - DIIS ACTIVE - HISTORY:     3 CYCLES
 TTTTTTTTTTTTTTTTTTTTTTTTTTTTTT FDIK        TELAPSE       59.15 TCPU     1516.99
 INSULATING STATE
 TOP OF VALENCE BANDS -    BAND     99; K    1; EIG -2.3670592E-01 AU
 BOTTOM OF VIRTUAL BANDS - BAND    100; K   17; EIG -1.0005147E-01 AU
 INDIRECT ENERGY BAND GAP:   3.7186 eV
 BOTTOM OF VIRTUAL BANDS - BAND    100; K    1; EIG -8.3637185E-02 AU
 TTTTTTTTTTTTTTTTTTTTTTTTTTTTTT PDIG        TELAPSE       59.50 TCPU     1523.20
 CHARGE NORMALIZATION FACTOR   1.00000000
 TOTAL ATOMIC CHARGES:
   4.4841731   4.4968101   4.4973692   4.4963234   4.4960044   4.4836573
   0.8690770   0.8692447   0.8732835   0.8731687   0.8577931   0.8579534
   0.8578944   0.8578051   0.8731589   0.8732836   0.8691388   0.8691687
   5.9390783   6.1796123   6.1803113   6.1673552   6.1676399   5.9408453
   5.9663091   6.1658177   6.1663915   6.1662272   6.1660369   5.9684998
   5.9394034   6.1669945   6.1679848   6.1798592   6.1799061   5.9405483
   8.4854106   8.4855915   8.4769629   8.4857033   8.4765422   8.4856614
 TTTTTTTTTTTTTTTTTTTTTTTTTTTTTT MOQGAD      TELAPSE       59.55 TCPU     1523.25
 TTTTTTTTTTTTTTTTTTTTTTTTTTTTTT SHELLXN     TELAPSE       69.79 TCPU     1850.12
 TTTTTTTTTTTTTTTTTTTTTTTTTTTTTT MONMO3      TELAPSE       69.96 TCPU     1855.38
 NUMERICALLY INTEGRATED DENSITY    197.9999734436
 TTTTTTTTTTTTTTTTTTTTTTTTTTTTTT NUMDFT      TELAPSE       70.68 TCPU     1878.47
 CYC   4 ETOT(AU) -1.289114281011E+03 DETOT -3.17E-03 tst  3.00E-05 PX  1.53E-02
 TTTTTTTTTTTTTTTTTTTTTTTTTTTTTT DIIS        TELAPSE       70.75 TCPU     1880.50
 DIIS TEST: 0.40721E-02 AT SCF   CYCLE   4 - DIIS ACTIVE - HISTORY:     4 CYCLES
 TTTTTTTTTTTTTTTTTTTTTTTTTTTTTT FDIK        TELAPSE       71.23 TCPU     1896.11
 INSULATING STATE
 TOP OF VALENCE BANDS -    BAND     99; K    1; EIG -2.3471971E-01 AU
 BOTTOM OF VIRTUAL BANDS - BAND    100; K   17; EIG -9.9689864E-02 AU
 INDIRECT ENERGY BAND GAP:   3.6744 eV
 BOTTOM OF VIRTUAL BANDS - BAND    100; K    1; EIG -8.3632918E-02 AU
 TTTTTTTTTTTTTTTTTTTTTTTTTTTTTT PDIG        TELAPSE       71.57 TCPU     1902.30
 CHARGE NORMALIZATION FACTOR   1.00000000
 TOTAL ATOMIC CHARGES:
   4.4879080   4.4985937   4.4991746   4.4981762   4.4978744   4.4874282
   0.8722492   0.8725066   0.8763709   0.8762394   0.8603210   0.8606550
   0.8604910   0.8604443   0.8761973   0.8763876   0.8723759   0.8723650
   5.9247781   6.1776258   6.1776645   6.1673199   6.1672393   5.9254581
   5.9419664   6.1690877   6.1684614   6.1689070   6.1687109   5.9423762
   5.9247161   6.1671690   6.1674030   6.1773832   6.1777542   5.9255116
   8.4927713   8.4932346   8.4911794   8.4931421   8.4909655   8.4934167
 TTTTTTTTTTTTTTTTTTTTTTTTTTTTTT MOQGAD      TELAPSE       71.62 TCPU     1902.35
 TTTTTTTTTTTTTTTTTTTTTTTTTTTTTT SHELLXN     TELAPSE       81.84 TCPU     2228.30
 TTTTTTTTTTTTTTTTTTTTTTTTTTTTTT MONMO3      TELAPSE       82.00 TCPU     2233.58
 NUMERICALLY INTEGRATED DENSITY    197.9999732686
 TTTTTTTTTTTTTTTTTTTTTTTTTTTTTT NUMDFT      TELAPSE       82.73 TCPU     2256.68
 CYC   5 ETOT(AU) -1.289115213957E+03 DETOT -9.33E-04 tst  5.56E-06 PX  7.03E-03
 TTTTTTTTTTTTTTTTTTTTTTTTTTTTTT DIIS        TELAPSE       82.80 TCPU     2258.97
 DIIS TEST: 0.62919E-04 AT SCF   CYCLE   5 - DIIS ACTIVE - HISTORY:     5 CYCLES
 TTTTTTTTTTTTTTTTTTTTTTTTTTTTTT FDIK        TELAPSE       83.29 TCPU     2274.70
 INSULATING STATE
 TOP OF VALENCE BANDS -    BAND     99; K    1; EIG -2.3454134E-01 AU
 BOTTOM OF VIRTUAL BANDS - BAND    100; K   17; EIG -9.9139407E-02 AU
 INDIRECT ENERGY BAND GAP:   3.6845 eV
 BOTTOM OF VIRTUAL BANDS - BAND    100; K    1; EIG -8.3282412E-02 AU
 TTTTTTTTTTTTTTTTTTTTTTTTTTTTTT PDIG        TELAPSE       83.63 TCPU     2280.89
 CHARGE NORMALIZATION FACTOR   1.00000000
 TOTAL ATOMIC CHARGES:
   4.4863519   4.4991501   4.4997207   4.4986543   4.4983377   4.4857915
   0.8731336   0.8733309   0.8770871   0.8769113   0.8614210   0.8615744
   0.8615090   0.8614474   0.8769260   0.8770456   0.8732030   0.8732428
   5.9242845   6.1769659   6.1774822   6.1664752   6.1669295   5.9260493
   5.9407691   6.1679802   6.1685993   6.1684658   6.1681687   5.9423894
   5.9247110   6.1662548   6.1671516   6.1771389   6.1771643   5.9256425
   8.4936094   8.4938171   8.4887024   8.4939495   8.4885081   8.4939533
 TTTTTTTTTTTTTTTTTTTTTTTTTTTTTT MOQGAD      TELAPSE       83.68 TCPU     2280.95
 TTTTTTTTTTTTTTTTTTTTTTTTTTTTTT SHELLXN     TELAPSE       93.88 TCPU     2606.47
 TTTTTTTTTTTTTTTTTTTTTTTTTTTTTT MONMO3      TELAPSE       94.05 TCPU     2611.79
 NUMERICALLY INTEGRATED DENSITY    197.9999732206
 TTTTTTTTTTTTTTTTTTTTTTTTTTTTTT NUMDFT      TELAPSE       94.77 TCPU     2634.84
 CYC   6 ETOT(AU) -1.289115229198E+03 DETOT -1.52E-05 tst  1.13E-07 PX  1.27E-03
 TTTTTTTTTTTTTTTTTTTTTTTTTTTTTT DIIS        TELAPSE       94.85 TCPU     2637.20
 DIIS TEST: 0.11321E-04 AT SCF   CYCLE   6 - DIIS ACTIVE - HISTORY:     6 CYCLES
 TTTTTTTTTTTTTTTTTTTTTTTTTTTTTT FDIK        TELAPSE       95.34 TCPU     2652.95
 INSULATING STATE
 TOP OF VALENCE BANDS -    BAND     99; K    1; EIG -2.3455542E-01 AU
 BOTTOM OF VIRTUAL BANDS - BAND    100; K   17; EIG -9.9241735E-02 AU
 INDIRECT ENERGY BAND GAP:   3.6821 eV
 BOTTOM OF VIRTUAL BANDS - BAND    100; K    1; EIG -8.3286048E-02 AU
 TTTTTTTTTTTTTTTTTTTTTTTTTTTTTT PDIG        TELAPSE       95.68 TCPU     2659.14
 CHARGE NORMALIZATION FACTOR   1.00000000
 TOTAL ATOMIC CHARGES:
   4.4870980   4.4989156   4.4994716   4.4984847   4.4981857   4.4866018
   0.8730935   0.8733381   0.8771063   0.8769833   0.8612099   0.8615315
   0.8613836   0.8613172   0.8769447   0.8771182   0.8732127   0.8732015
   5.9247021   6.1769686   6.1770929   6.1667546   6.1666414   5.9254325
   5.9420374   6.1683351   6.1677937   6.1681461   6.1680437   5.9426621
   5.9246390   6.1665343   6.1668707   6.1767702   6.1771423   5.9255056
   8.4928017   8.4932467   8.4901707   8.4931711   8.4899152   8.4934243
 TTTTTTTTTTTTTTTTTTTTTTTTTTTTTT MOQGAD      TELAPSE       95.73 TCPU     2659.19
 TTTTTTTTTTTTTTTTTTTTTTTTTTTTTT SHELLXN     TELAPSE      105.96 TCPU     2985.83
 TTTTTTTTTTTTTTTTTTTTTTTTTTTTTT MONMO3      TELAPSE      106.13 TCPU     2991.17
 NUMERICALLY INTEGRATED DENSITY    197.9999732332
 TTTTTTTTTTTTTTTTTTTTTTTTTTTTTT NUMDFT      TELAPSE      106.85 TCPU     3014.21
 CYC   7 ETOT(AU) -1.289115231478E+03 DETOT -2.28E-06 tst  3.01E-08 PX  5.48E-04
 TTTTTTTTTTTTTTTTTTTTTTTTTTTTTT DIIS        TELAPSE      106.93 TCPU     3016.80
 DIIS TEST: 0.11835E-05 AT SCF   CYCLE   7 - DIIS ACTIVE - HISTORY:     7 CYCLES
 TTTTTTTTTTTTTTTTTTTTTTTTTTTTTT FDIK        TELAPSE      107.42 TCPU     3032.42
 INSULATING STATE
 TOP OF VALENCE BANDS -    BAND     99; K    1; EIG -2.3455999E-01 AU
 BOTTOM OF VIRTUAL BANDS - BAND    100; K   17; EIG -9.9259713E-02 AU
 INDIRECT ENERGY BAND GAP:   3.6817 eV
 BOTTOM OF VIRTUAL BANDS - BAND    100; K    1; EIG -8.3300910E-02 AU
 TTTTTTTTTTTTTTTTTTTTTTTTTTTTTT PDIG        TELAPSE      107.76 TCPU     3038.62
 CHARGE NORMALIZATION FACTOR   1.00000000
 TOTAL ATOMIC CHARGES:
   4.4871287   4.4989766   4.4995520   4.4985184   4.4982044   4.4866133
   0.8730652   0.8732943   0.8771002   0.8769357   0.8612297   0.8614653
   0.8613507   0.8613040   0.8769280   0.8770819   0.8731627   0.8731798
   5.9244018   6.1769874   6.1772736   6.1665321   6.1667736   5.9256998
   5.9416284   6.1680820   6.1681463   6.1682992   6.1679906   5.9426563
   5.9246376   6.1663717   6.1669409   6.1769699   6.1771425   5.9254725
   8.4930712   8.4933899   8.4898370   8.4934211   8.4896401   8.4935436
 TTTTTTTTTTTTTTTTTTTTTTTTTTTTTT MOQGAD      TELAPSE      107.81 TCPU     3038.67
 TTTTTTTTTTTTTTTTTTTTTTTTTTTTTT SHELLXN     TELAPSE      118.09 TCPU     3366.42
 TTTTTTTTTTTTTTTTTTTTTTTTTTTTTT MONMO3      TELAPSE      118.25 TCPU     3371.72
 NUMERICALLY INTEGRATED DENSITY    197.9999732298
 TTTTTTTTTTTTTTTTTTTTTTTTTTTTTT NUMDFT      TELAPSE      118.97 TCPU     3394.73
 CYC   8 ETOT(AU) -1.289115231616E+03 DETOT -1.37E-07 tst  2.72E-09 PX  1.19E-04
 TTTTTTTTTTTTTTTTTTTTTTTTTTTTTT DIIS        TELAPSE      119.06 TCPU     3397.41
 DIIS TEST: 0.10135E-06 AT SCF   CYCLE   8 - DIIS ACTIVE - HISTORY:     8 CYCLES
 TTTTTTTTTTTTTTTTTTTTTTTTTTTTTT FDIK        TELAPSE      119.54 TCPU     3413.01
 INSULATING STATE
 TOP OF VALENCE BANDS -    BAND     99; K    1; EIG -2.3456303E-01 AU
 BOTTOM OF VIRTUAL BANDS - BAND    100; K   17; EIG -9.9250882E-02 AU
 INDIRECT ENERGY BAND GAP:   3.6820 eV
 BOTTOM OF VIRTUAL BANDS - BAND    100; K    1; EIG -8.3301416E-02 AU
 TTTTTTTTTTTTTTTTTTTTTTTTTTTTTT PDIG        TELAPSE      119.88 TCPU     3419.20
 CHARGE NORMALIZATION FACTOR   1.00000000
 TOTAL ATOMIC CHARGES:
   4.4870666   4.4989816   4.4995437   4.4985292   4.4982267   4.4865543
   0.8730611   0.8732929   0.8770765   0.8769402   0.8612074   0.8614838
   0.8613595   0.8612915   0.8769165   0.8770737   0.8731667   0.8731699
   5.9245718   6.1769952   6.1772237   6.1666638   6.1667044   5.9255769
   5.9416439   6.1682682   6.1680347   6.1682496   6.1681138   5.9425471
   5.9246293   6.1664368   6.1669391   6.1768968   6.1771737   5.9255295
   8.4930304   8.4934146   8.4898380   8.4933922   8.4896034   8.4935811
 TTTTTTTTTTTTTTTTTTTTTTTTTTTTTT MOQGAD      TELAPSE      119.94 TCPU     3419.25
 TTTTTTTTTTTTTTTTTTTTTTTTTTTTTT SHELLXN     TELAPSE      130.20 TCPU     3746.44
 +++ ENERGIES IN A.U. +++
 ::: EXT EL-POLE                                  -1.6209529061263E+03
 ::: EXT EL-SPHEROPOLE                             1.7905263628344E+01
 ::: BIELET ZONE E-E                               2.2643856199391E+03
 ::: TOTAL E-E                                     6.6133797744114E+02
 ::: TOTAL E-N + N-E                              -3.1452918536355E+03
 ::: TOTAL N-N                                     4.8601187828574E+01
 ::: KINETIC ENERGY                                1.2799681522466E+03
 ::: PSEUDO TOTAL   ENERGY                        -1.1553845361193E+03
 ::: VIRIAL COEFFICIENT                            1.0511562931819E+00
 TTTTTTTTTTTTTTTTTTTTTTTTTTTTTT MONMO3      TELAPSE      130.36 TCPU     3751.73
 NUMERICALLY INTEGRATED DENSITY    197.9999732295
 EXCHANGE ENERGY: -0.126025245826E+03  CORRELATION ENERGY: -0.770544970492E+01
 TTTTTTTTTTTTTTTTTTTTTTTTTTTTTT NUMDFT      TELAPSE      131.09 TCPU     3774.79
 CYC   9 ETOT(AU) -1.289115231650E+03 DETOT -3.44E-08 tst  6.99E-10 PX  1.19E-04

 == SCF ENDED - CONVERGENCE ON ENERGY      E(AU) -1.2891152316500E+03 CYCLES   9


 ENERGY EXPRESSION=HARTREE+FOCK EXCH*0.00000+(HSESOL     EXCH)*1.00000+PBESOL     CORR


 TOTAL ENERGY(DFT)(AU)(  9) -1.2891152316500E+03 DE-3.4E-08 tester 7.0E-10
 TTTTTTTTTTTTTTTTTTTTTTTTTTTTTT EDFT        TELAPSE      131.09 TCPU     3774.80
 
 INFORMATION **** DFTD3 ENERGY **** CALCULATE DFTD3 ENERGY

           DFT-D V3(BJ)
 DF                                         hsesol3c  
 parameters
 s6       :    1.0000
 s8       :    0.0000
 a1       :    0.5196
 a2       :    4.9385
 k1 k3    :   16.0000   -4.0000
 Cutoff   :   50.2022
 CN-Cutoff:   21.1671
 ABC-Cutoff:   21.1671
 
 Edisp /kcal,au:   -28.9012 -0.04605699

 E6    /kcal :   -30.7887
 E8    /kcal :     0.0000
 E6(ABC) "   :   1.887519
 
 INFORMATION **** DFTD3 ENERGY **** NORMAL TERMINATION OF DFTD3 MODULE

 GCP ENERGY CALCULATION
  level        hsesol3c            basis:hsesol3c
  Nbf            474
  Atoms           42

  Parameters: 
  sigma     1.0000
  eta       1.4281
  alpha     0.2936
  beta      1.9467

  dmp_scal      4.0000
  dmp_exp       6.0000
 cutoffs: 
   distance [bohr] 60.0
   noise    [a.u.] 2.2E-16
 SR-damping   T
 ** gCP correction **
  Egcp:        0.0841939755 / (a.u.) ||      52.8325 / (kcal/mol)
 INFORMATION **** GCP **** NORMAL TERMINATION OF GCP MODULE

 *******************************************************************************

 DFT-D3-GCP DISPERSION AND COUNTERPOISE CORRECTION

 D3 DISPERSION ENERGY (AU)      -4.6056985980166E-02
 GCP ENERGY (AU)                 8.4193975541418E-02
 TOTAL ENERGY + DISP + GCP (AU) -1.2890770946605E+03

 *******************************************************************************

 EIGENVECTORS IN FORTRAN UNIT 10
 TTTTTTTTTTTTTTTTTTTTTTTTTTTTTT END         TELAPSE      133.10 TCPU     3782.79
 EEEEEEEEEE TERMINATION  DATE 19 02 2026 TIME 18:04:15.2
