 Default number of threads is:           32

         
 *******************************************************************************
 *                                                                             *
 *                               CRYSTAL23                                     *
 *                      public : 1.0.1 - October 2022                          *
 *                       HTTP://WWW.CRYSTAL.UNITO.IT                           *
 *                                                                             *
 *                              MAIN AUTHORS                                   *
 *                                                                             *
 *  R. DOVESI(1,11), V.R. SAUNDERS(2), C. ROETTI(1,11), R. ORLANDO(1,11),      *
 *  C.M. ZICOVICH-WILSON(1,3), F. PASCALE(4), B. CIVALLERI(1,11),              *
 *  K. DOLL(5), N.M. HARRISON(6), I.J. BUSH(7), Ph. D'ARCO(8),                 *
 *  M. LLUNELL(9), M. CAUSA'(10), Y. NOEL(8), L. MASCHIO(1,11), A. ERBA(1,11)  *
 *  M. RE'RAT(14), S. CASASSA(1,11), B.G. SEARLE(2), J.K. DESMARAIS(1)         *
 *                                                                             *
 *        CONTRIBUTIONS TO THE CODE HAVE ALSO BEEN GIVEN BY                    *
 *                                                                             *
 *  M. FERRABONE(1,11), M. DE LA PIERRE(1,11), M. FERRERO(1,11),               *
 *  J. BAIMA(1,11), E. ALBANESE(1,11), M.F. PEINTINGER(12), R. BAST(13),       *
 *  B. KIRTMAN(15), V. LACIVITA(1,11), R. DEMICHELIS(1,16)                     *
 *  G. BRANDEBURG(17), S. SALUSTRO(1,11), G. SANSONE(1,11)                     *
 *  M.T. RUGGIERO(18), L.E. DAGA(1), L. DONA'(1), A. COSSARD(1)                *
 *                                                                             *
 * (1) THEORETICAL CHEMISTRY GROUP - UNIVERSITA' DI TORINO - TORINO (ITALY)    *
 * (2) SCIENTIFIC COMPUTING DEPARTMENT - STFC DARESBURY (UK)                   *
 * (3) UNIVERSIDAD AUTONOMA DEL ESTADO DE MORELOS - CUERNAVACA (MEXICO)        *
 * (4) UNIVERSITE' DE LORRAINE - NANCY (FRANCE)                                *
 * (5) UNIVERSITAET STUTTGART- STUTTGART (GERMANY)                             *
 * (6) IMPERIAL COLLEGE - LONDON (UK)                                          *
 * (7) SCIENTIFIC COMPUTING DEPARTMENT - STFC RAL (UK)                         *
 * (8) UPMC - SORBONNE UNIVERSITES - PARIS (FRANCE)                            *
 * (9) UNIVERSIDAD DE BARCELONA - BARCELONA (SPAIN)                            *
 *(10) UNIVERSITA' DI NAPOLI "FEDERICO II" - NAPOLI (ITALY)                    *
 *(11) NIS - NANOSTRUCTURED INTERFACES AND SURFACES - TORINO (ITALY)           *
 *(12) MPI FUER CHEMISCHE ENERGIEKONVERSION - MUELHEIM AN DER RUHR (GERMANY)   *
 *(13) UNIVERSITY OF TROMSO - TROMSO (NORWAY)                                  *
 *(14) UNIVERSITE' DE PAU ET DES PAYS DE L'ADOUR - PAU (FRANCE)                *
 *(15) UNIVERSITY OF CALIFORNIA SANTA BARBARA - SANTA BARBARA (USA)            *
 *(16) CURTIN UNIVERSITY - PERTH (AUSTRALIA)                                   *
 *(17) UNIVERSITY COLLEGE LONDON - LONDON (UK)                                 *
 *(18) UNIVERSITY OF VERMONT - BURLINGTON (USA)                                *
 *                                                                             *
 *******************************************************************************
 EEEEEEEEEE STARTING  DATE 19 02 2026 TIME 20:25:01.5
 cof-1_z40_L050_serr                                                             

 CRYSTAL CALCULATION
 (INPUT ACCORDING TO THE INTERNATIONAL TABLES FOR X-RAY CRYSTALLOGRAPHY)
 CRYSTAL FAMILY                       :  TRICLINIC   
 CRYSTAL CLASS  (GROTH - 1921)        :  TRICLINIC PEDIAL                     

 SPACE GROUP (NONCENTROSYMMETRIC)     :  P 1             

 LATTICE PARAMETERS  (ANGSTROMS AND DEGREES) - CONVENTIONAL CELL
        A           B           C        ALPHA        BETA       GAMMA
    15.02361    15.02392     8.00000    90.00032    89.99994   119.99596


 NUMBER OF IRREDUCIBLE ATOMS IN THE CONVENTIONAL CELL:   84

 INPUT COORDINATES

 ATOM AT. N.              COORDINATES
   1   5     6.136805400000E-01  2.273182200000E-01  2.505970900000E-01
   2   5     8.057969300000E-01  6.115900500000E-01  7.505970900000E-01
   3   5     7.727362000000E-01  3.863778800000E-01  2.505971000000E-01
   4   5     9.648525900000E-01  7.706497100000E-01  7.505971000000E-01
   5   5     6.136762700000E-01  3.863606700000E-01  2.493417000000E-01
   6   5     8.057926600000E-01  7.706325000000E-01  7.493417000000E-01
   7   5     2.272552500000E-01  6.136332200000E-01  2.505970900000E-01
   8   5     4.193716400000E-01  9.979050500000E-01  7.505970900000E-01
   9   5     3.863632200000E-01  6.136124500000E-01  2.505970900000E-01
  10   5     5.784796100000E-01  9.978842800000E-01  7.505970900000E-01
  11   5     3.863435000000E-01  7.727516500000E-01  2.493417000000E-01
  12   5     5.784598900000E-01  1.570234800000E-01  7.493417000000E-01
  13   1     9.030436200000E-01  3.089300500000E-01  2.479944000000E-01
  14   1     9.516001000000E-02  6.932018800000E-01  7.479944000000E-01
  15   1     9.663453000000E-02  6.910534400000E-01  2.475964000000E-01
  16   1     2.887509200000E-01  7.532527000000E-02  7.475964100000E-01
  17   1     9.029714200000E-01  5.940724300000E-01  2.475351600000E-01
  18   1     9.508781000000E-02  9.783442600000E-01  7.475351600000E-01
  19   1     9.673618000000E-02  4.056849400000E-01  2.475504300000E-01
  20   1     2.888525700000E-01  7.899567700000E-01  7.475504300000E-01
  21   1     6.910324000000E-01  9.700412000000E-02  2.520056200000E-01
  22   1     8.831487900000E-01  4.812759500000E-01  7.520056100000E-01
  23   1     3.089297200000E-01  9.034373100000E-01  2.524036400000E-01
  24   1     5.010461100000E-01  2.877091400000E-01  7.524036400000E-01
  25   1     4.058699900000E-01  9.704998000000E-02  2.524649300000E-01
  26   1     5.979863800000E-01  4.813218100000E-01  7.524649300000E-01
  27   1     5.943122100000E-01  9.033473200000E-01  2.524495500000E-01
  28   1     7.864286000000E-01  2.876191500000E-01  7.524495500000E-01
  29   1     6.910727400000E-01  5.940542100000E-01  2.479944200000E-01
  30   1     8.831891300000E-01  9.783260400000E-01  7.479944300000E-01
  31   1     3.089618300000E-01  4.056093300000E-01  2.475963800000E-01
  32   1     5.010782200000E-01  7.898811600000E-01  7.475963800000E-01
  33   1     4.058405700000E-01  3.088232500000E-01  2.475351100000E-01
  34   1     5.979569600000E-01  6.930950800000E-01  7.475351000000E-01
  35   1     5.942908800000E-01  6.909579300000E-01  2.475504800000E-01
  36   1     7.864072700000E-01  7.522976000000E-02  7.475504800000E-01
  37   6     8.918903100000E-01  4.459436900000E-01  2.492957700000E-01
  38   6     8.400670000000E-02  8.302155200000E-01  7.492957700000E-01
  39   6     9.464891100000E-01  3.927856300000E-01  2.480556500000E-01
  40   6     1.386055000000E-01  7.770574600000E-01  7.480556500000E-01
  41   6     5.338812000000E-02  6.071853000000E-01  2.479485200000E-01
  42   6     2.455045100000E-01  9.914571300000E-01  7.479485200000E-01
  43   6     9.464521100000E-01  5.536921900000E-01  2.482700300000E-01
  44   6     1.385685000000E-01  9.379640200000E-01  7.482700300000E-01
  45   6     5.342634000000E-02  4.462499700000E-01  2.474432600000E-01
  46   6     2.455427300000E-01  8.305218000000E-01  7.474432600000E-01
  47   6     1.080358900000E-01  5.540356300000E-01  2.482853200000E-01
  48   6     3.001522800000E-01  9.383074600000E-01  7.482853200000E-01
  49   6     5.540394200000E-01  1.081684600000E-01  2.507042700000E-01
  50   6     7.461558100000E-01  4.924402900000E-01  7.507042700000E-01
  51   6     6.071778500000E-01  5.355594000000E-02  2.519443600000E-01
  52   6     7.992942400000E-01  4.378277700000E-01  7.519443600000E-01
  53   6     3.927986700000E-01  9.466631600000E-01  2.520515300000E-01
  54   6     5.849150600000E-01  3.309349900000E-01  7.520515300000E-01
  55   6     4.462875800000E-01  5.360286000000E-02  2.517300400000E-01
  56   6     6.384039700000E-01  4.378746900000E-01  7.517300400000E-01
  57   6     5.537168500000E-01  9.466235600000E-01  2.525567400000E-01
  58   6     7.458332400000E-01  3.308953900000E-01  7.525567400000E-01
  59   6     4.459279100000E-01  8.919920600000E-01  2.517147100000E-01
  60   6     6.380443000000E-01  2.762638900000E-01  7.517147100000E-01
  61   6     5.540448700000E-01  4.458745500000E-01  2.492957600000E-01
  62   6     7.461612600000E-01  8.301463800000E-01  7.492957600000E-01
  63   6     6.072102200000E-01  5.536257800000E-01  2.480556800000E-01
  64   6     7.993266100000E-01  9.378976100000E-01  7.480556800000E-01
  65   6     3.928233700000E-01  4.461720300000E-01  2.479484900000E-01
  66   6     5.849397600000E-01  8.304438600000E-01  7.479484900000E-01
  67   6     4.462872600000E-01  3.926899900000E-01  2.482699900000E-01
  68   6     6.384036500000E-01  7.769618200000E-01  7.482699900000E-01
  69   6     5.537429600000E-01  6.070980000000E-01  2.474433000000E-01
  70   6     7.458593500000E-01  9.913698300000E-01  7.474433000000E-01
  71   6     4.459599800000E-01  5.539582300000E-01  2.482853200000E-01
  72   6     6.380763700000E-01  9.382300600000E-01  7.482853200000E-01
  73   8     5.607366800000E-01  2.803706300000E-01  2.496785000000E-01
  74   8     7.528530700000E-01  6.646424600000E-01  7.496785000000E-01
  75   8     7.196817000000E-01  2.803783300000E-01  2.523271000000E-01
  76   8     9.117980900000E-01  6.646501600000E-01  7.523270900000E-01
  77   8     7.196794200000E-01  4.393234600000E-01  2.483312600000E-01
  78   8     9.117958100000E-01  8.235952900000E-01  7.483312600000E-01
  79   8     2.803245100000E-01  7.196511100000E-01  2.496785200000E-01
  80   8     4.724409000000E-01  1.039229400000E-01  7.496785200000E-01
  81   8     2.803439700000E-01  5.606956100000E-01  2.523270900000E-01
  82   8     4.724603600000E-01  9.449674400000E-01  7.523270900000E-01
  83   8     4.392638400000E-01  7.196354200000E-01  2.483312500000E-01
  84   8     6.313802300000E-01  1.039072500000E-01  7.483312500000E-01

 *******************************************************************************

 << INFORMATION >>: FROM NOW ON, ALL COORDINATES REFER TO THE PRIMITIVE CELL

 *******************************************************************************

 LATTICE PARAMETERS  (ANGSTROMS AND DEGREES) - PRIMITIVE CELL
       A          B          C        ALPHA      BETA     GAMMA        VOLUME
   15.02361   15.02392    8.00000    90.00032  89.99994 119.99596   1563.852384

 COORDINATES OF THE EQUIVALENT ATOMS (FRACTIONAL UNITS)

 N. ATOM EQUIV AT. N.          X                  Y                  Z

   1   1   1    5 B    -3.86319460000E-01  2.27318220000E-01  2.50597090000E-01

   2   2   1    5 B    -1.94203070000E-01 -3.88409950000E-01 -2.49402910000E-01

   3   3   1    5 B    -2.27263800000E-01  3.86377880000E-01  2.50597100000E-01

   4   4   1    5 B    -3.51474100000E-02 -2.29350290000E-01 -2.49402900000E-01

   5   5   1    5 B    -3.86323730000E-01  3.86360670000E-01  2.49341700000E-01

   6   6   1    5 B    -1.94207340000E-01 -2.29367500000E-01 -2.50658300000E-01

   7   7   1    5 B     2.27255250000E-01 -3.86366780000E-01  2.50597090000E-01

   8   8   1    5 B     4.19371640000E-01 -2.09495000000E-03 -2.49402910000E-01

   9   9   1    5 B     3.86363220000E-01 -3.86387550000E-01  2.50597090000E-01

  10  10   1    5 B    -4.21520390000E-01 -2.11572000000E-03 -2.49402910000E-01

  11  11   1    5 B     3.86343500000E-01 -2.27248350000E-01  2.49341700000E-01

  12  12   1    5 B    -4.21540110000E-01  1.57023480000E-01 -2.50658300000E-01

  13  13   1    1 H    -9.69563800000E-02  3.08930050000E-01  2.47994400000E-01

  14  14   1    1 H     9.51600100000E-02 -3.06798120000E-01 -2.52005600000E-01

  15  15   1    1 H     9.66345300000E-02 -3.08946560000E-01  2.47596400000E-01

  16  16   1    1 H     2.88750920000E-01  7.53252700000E-02 -2.52403590000E-01

  17  17   1    1 H    -9.70285800000E-02 -4.05927570000E-01  2.47535160000E-01

  18  18   1    1 H     9.50878100000E-02 -2.16557400000E-02 -2.52464840000E-01

  19  19   1    1 H     9.67361800000E-02  4.05684940000E-01  2.47550430000E-01

  20  20   1    1 H     2.88852570000E-01 -2.10043230000E-01 -2.52449570000E-01

  21  21   1    1 H    -3.08967600000E-01  9.70041200000E-02  2.52005620000E-01

  22  22   1    1 H    -1.16851210000E-01  4.81275950000E-01 -2.47994390000E-01

  23  23   1    1 H     3.08929720000E-01 -9.65626900000E-02  2.52403640000E-01

  24  24   1    1 H    -4.98953890000E-01  2.87709140000E-01 -2.47596360000E-01

  25  25   1    1 H     4.05869990000E-01  9.70499800000E-02  2.52464930000E-01

  26  26   1    1 H    -4.02013620000E-01  4.81321810000E-01 -2.47535070000E-01

  27  27   1    1 H    -4.05687790000E-01 -9.66526800000E-02  2.52449550000E-01

  28  28   1    1 H    -2.13571400000E-01  2.87619150000E-01 -2.47550450000E-01

  29  29   1    1 H    -3.08927260000E-01 -4.05945790000E-01  2.47994420000E-01

  30  30   1    1 H    -1.16810870000E-01 -2.16739600000E-02 -2.52005570000E-01

  31  31   1    1 H     3.08961830000E-01  4.05609330000E-01  2.47596380000E-01

  32  32   1    1 H    -4.98921780000E-01 -2.10118840000E-01 -2.52403620000E-01

  33  33   1    1 H     4.05840570000E-01  3.08823250000E-01  2.47535110000E-01

  34  34   1    1 H    -4.02043040000E-01 -3.06904920000E-01 -2.52464900000E-01

  35  35   1    1 H    -4.05709120000E-01 -3.09042070000E-01  2.47550480000E-01

  36  36   1    1 H    -2.13592730000E-01  7.52297600000E-02 -2.52449520000E-01

  37  37   1    6 C    -1.08109690000E-01  4.45943690000E-01  2.49295770000E-01

  38  38   1    6 C     8.40067000000E-02 -1.69784480000E-01 -2.50704230000E-01

  39  39   1    6 C    -5.35108900000E-02  3.92785630000E-01  2.48055650000E-01

  40  40   1    6 C     1.38605500000E-01 -2.22942540000E-01 -2.51944350000E-01

  41  41   1    6 C     5.33881200000E-02 -3.92814700000E-01  2.47948520000E-01

  42  42   1    6 C     2.45504510000E-01 -8.54287000000E-03 -2.52051480000E-01

  43  43   1    6 C    -5.35478900000E-02 -4.46307810000E-01  2.48270030000E-01

  44  44   1    6 C     1.38568500000E-01 -6.20359800000E-02 -2.51729970000E-01

  45  45   1    6 C     5.34263400000E-02  4.46249970000E-01  2.47443260000E-01

  46  46   1    6 C     2.45542730000E-01 -1.69478200000E-01 -2.52556740000E-01

  47  47   1    6 C     1.08035890000E-01 -4.45964370000E-01  2.48285320000E-01

  48  48   1    6 C     3.00152280000E-01 -6.16925400000E-02 -2.51714680000E-01

  49  49   1    6 C    -4.45960580000E-01  1.08168460000E-01  2.50704270000E-01

  50  50   1    6 C    -2.53844190000E-01  4.92440290000E-01 -2.49295730000E-01

  51  51   1    6 C    -3.92822150000E-01  5.35559400000E-02  2.51944360000E-01

  52  52   1    6 C    -2.00705760000E-01  4.37827770000E-01 -2.48055640000E-01

  53  53   1    6 C     3.92798670000E-01 -5.33368400000E-02  2.52051530000E-01

  54  54   1    6 C    -4.15084940000E-01  3.30934990000E-01 -2.47948470000E-01

  55  55   1    6 C     4.46287580000E-01  5.36028600000E-02  2.51730040000E-01

  56  56   1    6 C    -3.61596030000E-01  4.37874690000E-01 -2.48269960000E-01

  57  57   1    6 C    -4.46283150000E-01 -5.33764400000E-02  2.52556740000E-01

  58  58   1    6 C    -2.54166760000E-01  3.30895390000E-01 -2.47443260000E-01

  59  59   1    6 C     4.45927910000E-01 -1.08007940000E-01  2.51714710000E-01

  60  60   1    6 C    -3.61955700000E-01  2.76263890000E-01 -2.48285290000E-01

  61  61   1    6 C    -4.45955130000E-01  4.45874550000E-01  2.49295760000E-01

  62  62   1    6 C    -2.53838740000E-01 -1.69853620000E-01 -2.50704240000E-01

  63  63   1    6 C    -3.92789780000E-01 -4.46374220000E-01  2.48055680000E-01

  64  64   1    6 C    -2.00673390000E-01 -6.21023900000E-02 -2.51944320000E-01

  65  65   1    6 C     3.92823370000E-01  4.46172030000E-01  2.47948490000E-01

  66  66   1    6 C    -4.15060240000E-01 -1.69556140000E-01 -2.52051510000E-01

  67  67   1    6 C     4.46287260000E-01  3.92689990000E-01  2.48269990000E-01

  68  68   1    6 C    -3.61596350000E-01 -2.23038180000E-01 -2.51730010000E-01

  69  69   1    6 C    -4.46257040000E-01 -3.92902000000E-01  2.47443300000E-01

  70  70   1    6 C    -2.54140650000E-01 -8.63017000000E-03 -2.52556700000E-01

  71  71   1    6 C     4.45959980000E-01 -4.46041770000E-01  2.48285320000E-01

  72  72   1    6 C    -3.61923630000E-01 -6.17699400000E-02 -2.51714680000E-01

  73  73   1    8 O    -4.39263320000E-01  2.80370630000E-01  2.49678500000E-01

  74  74   1    8 O    -2.47146930000E-01 -3.35357540000E-01 -2.50321500000E-01

  75  75   1    8 O    -2.80318300000E-01  2.80378330000E-01  2.52327100000E-01

  76  76   1    8 O    -8.82019100000E-02 -3.35349840000E-01 -2.47672910000E-01

  77  77   1    8 O    -2.80320580000E-01  4.39323460000E-01  2.48331260000E-01

  78  78   1    8 O    -8.82041900000E-02 -1.76404710000E-01 -2.51668740000E-01

  79  79   1    8 O     2.80324510000E-01 -2.80348890000E-01  2.49678520000E-01

  80  80   1    8 O     4.72440900000E-01  1.03922940000E-01 -2.50321480000E-01

  81  81   1    8 O     2.80343970000E-01 -4.39304390000E-01  2.52327090000E-01

  82  82   1    8 O     4.72460360000E-01 -5.50325600000E-02 -2.47672910000E-01

  83  83   1    8 O     4.39263840000E-01 -2.80364580000E-01  2.48331250000E-01

  84  84   1    8 O    -3.68619770000E-01  1.03907250000E-01 -2.51668750000E-01

 NUMBER OF SYMMETRY OPERATORS         :    1
 *******************************************************************************
 * GEOMETRY EDITING - INPUT COORDINATES ARE GIVEN IN ANGSTROM         
 *******************************************************************************

 GCALCO - MAX INDICES DIRECT LATTICE VECTOR    12    12    21
 NO.OF VECTORS CREATED 6999 STARS 3500 RMAX   260.07972 BOHR

 GEOMETRY FOR WAVE FUNCTION - DIMENSIONALITY OF THE SYSTEM    3
 (NON PERIODIC DIRECTION: LATTICE PARAMETER FORMALLY SET TO 500)
 *******************************************************************************
 LATTICE PARAMETERS (ANGSTROMS AND DEGREES) - BOHR = 0.5291772083 ANGSTROM
 PRIMITIVE CELL - CENTRING CODE 1/0 VOLUME=  1563.852384 - DENSITY  0.828 g/cm^3
         A              B              C           ALPHA      BETA       GAMMA 
    15.02361100    15.02391600     8.00000000    90.000323  89.999944 119.995964
 *******************************************************************************
 ATOMS IN THE ASYMMETRIC UNIT   84 - ATOMS IN THE UNIT CELL:   84
     ATOM                 X/A                 Y/B                 Z/C    
 *******************************************************************************
      1 T   5 B    -3.863194600000E-01  2.273182200000E-01  2.505970900000E-01
      2 T   5 B    -1.942030700000E-01 -3.884099500000E-01 -2.494029100000E-01
      3 T   5 B    -2.272638000000E-01  3.863778800000E-01  2.505971000000E-01
      4 T   5 B    -3.514741000000E-02 -2.293502900000E-01 -2.494029000000E-01
      5 T   5 B    -3.863237300000E-01  3.863606700000E-01  2.493417000000E-01
      6 T   5 B    -1.942073400000E-01 -2.293675000000E-01 -2.506583000000E-01
      7 T   5 B     2.272552500000E-01 -3.863667800000E-01  2.505970900000E-01
      8 T   5 B     4.193716400000E-01 -2.094950000000E-03 -2.494029100000E-01
      9 T   5 B     3.863632200000E-01 -3.863875500000E-01  2.505970900000E-01
     10 T   5 B    -4.215203900000E-01 -2.115720000000E-03 -2.494029100000E-01
     11 T   5 B     3.863435000000E-01 -2.272483500000E-01  2.493417000000E-01
     12 T   5 B    -4.215401100000E-01  1.570234800000E-01 -2.506583000000E-01
     13 T   1 H    -9.695638000000E-02  3.089300500000E-01  2.479944000000E-01
     14 T   1 H     9.516001000000E-02 -3.067981200000E-01 -2.520056000000E-01
     15 T   1 H     9.663453000000E-02 -3.089465600000E-01  2.475964000000E-01
     16 T   1 H     2.887509200000E-01  7.532527000000E-02 -2.524035900000E-01
     17 T   1 H    -9.702858000000E-02 -4.059275700000E-01  2.475351600000E-01
     18 T   1 H     9.508781000000E-02 -2.165574000000E-02 -2.524648400000E-01
     19 T   1 H     9.673618000000E-02  4.056849400000E-01  2.475504300000E-01
     20 T   1 H     2.888525700000E-01 -2.100432300000E-01 -2.524495700000E-01
     21 T   1 H    -3.089676000000E-01  9.700412000000E-02  2.520056200000E-01
     22 T   1 H    -1.168512100000E-01  4.812759500000E-01 -2.479943900000E-01
     23 T   1 H     3.089297200000E-01 -9.656269000000E-02  2.524036400000E-01
     24 T   1 H    -4.989538900000E-01  2.877091400000E-01 -2.475963600000E-01
     25 T   1 H     4.058699900000E-01  9.704998000000E-02  2.524649300000E-01
     26 T   1 H    -4.020136200000E-01  4.813218100000E-01 -2.475350700000E-01
     27 T   1 H    -4.056877900000E-01 -9.665268000000E-02  2.524495500000E-01
     28 T   1 H    -2.135714000000E-01  2.876191500000E-01 -2.475504500000E-01
     29 T   1 H    -3.089272600000E-01 -4.059457900000E-01  2.479944200000E-01
     30 T   1 H    -1.168108700000E-01 -2.167396000000E-02 -2.520055700000E-01
     31 T   1 H     3.089618300000E-01  4.056093300000E-01  2.475963800000E-01
     32 T   1 H    -4.989217800000E-01 -2.101188400000E-01 -2.524036200000E-01
     33 T   1 H     4.058405700000E-01  3.088232500000E-01  2.475351100000E-01
     34 T   1 H    -4.020430400000E-01 -3.069049200000E-01 -2.524649000000E-01
     35 T   1 H    -4.057091200000E-01 -3.090420700000E-01  2.475504800000E-01
     36 T   1 H    -2.135927300000E-01  7.522976000000E-02 -2.524495200000E-01
     37 T   6 C    -1.081096900000E-01  4.459436900000E-01  2.492957700000E-01
     38 T   6 C     8.400670000000E-02 -1.697844800000E-01 -2.507042300000E-01
     39 T   6 C    -5.351089000000E-02  3.927856300000E-01  2.480556500000E-01
     40 T   6 C     1.386055000000E-01 -2.229425400000E-01 -2.519443500000E-01
     41 T   6 C     5.338812000000E-02 -3.928147000000E-01  2.479485200000E-01
     42 T   6 C     2.455045100000E-01 -8.542870000000E-03 -2.520514800000E-01
     43 T   6 C    -5.354789000000E-02 -4.463078100000E-01  2.482700300000E-01
     44 T   6 C     1.385685000000E-01 -6.203598000000E-02 -2.517299700000E-01
     45 T   6 C     5.342634000000E-02  4.462499700000E-01  2.474432600000E-01
     46 T   6 C     2.455427300000E-01 -1.694782000000E-01 -2.525567400000E-01
     47 T   6 C     1.080358900000E-01 -4.459643700000E-01  2.482853200000E-01
     48 T   6 C     3.001522800000E-01 -6.169254000000E-02 -2.517146800000E-01
     49 T   6 C    -4.459605800000E-01  1.081684600000E-01  2.507042700000E-01
     50 T   6 C    -2.538441900000E-01  4.924402900000E-01 -2.492957300000E-01
     51 T   6 C    -3.928221500000E-01  5.355594000000E-02  2.519443600000E-01
     52 T   6 C    -2.007057600000E-01  4.378277700000E-01 -2.480556400000E-01
     53 T   6 C     3.927986700000E-01 -5.333684000000E-02  2.520515300000E-01
     54 T   6 C    -4.150849400000E-01  3.309349900000E-01 -2.479484700000E-01
     55 T   6 C     4.462875800000E-01  5.360286000000E-02  2.517300400000E-01
     56 T   6 C    -3.615960300000E-01  4.378746900000E-01 -2.482699600000E-01
     57 T   6 C    -4.462831500000E-01 -5.337644000000E-02  2.525567400000E-01
     58 T   6 C    -2.541667600000E-01  3.308953900000E-01 -2.474432600000E-01
     59 T   6 C     4.459279100000E-01 -1.080079400000E-01  2.517147100000E-01
     60 T   6 C    -3.619557000000E-01  2.762638900000E-01 -2.482852900000E-01
     61 T   6 C    -4.459551300000E-01  4.458745500000E-01  2.492957600000E-01
     62 T   6 C    -2.538387400000E-01 -1.698536200000E-01 -2.507042400000E-01
     63 T   6 C    -3.927897800000E-01 -4.463742200000E-01  2.480556800000E-01
     64 T   6 C    -2.006733900000E-01 -6.210239000000E-02 -2.519443200000E-01
     65 T   6 C     3.928233700000E-01  4.461720300000E-01  2.479484900000E-01
     66 T   6 C    -4.150602400000E-01 -1.695561400000E-01 -2.520515100000E-01
     67 T   6 C     4.462872600000E-01  3.926899900000E-01  2.482699900000E-01
     68 T   6 C    -3.615963500000E-01 -2.230381800000E-01 -2.517300100000E-01
     69 T   6 C    -4.462570400000E-01 -3.929020000000E-01  2.474433000000E-01
     70 T   6 C    -2.541406500000E-01 -8.630170000000E-03 -2.525567000000E-01
     71 T   6 C     4.459599800000E-01 -4.460417700000E-01  2.482853200000E-01
     72 T   6 C    -3.619236300000E-01 -6.176994000000E-02 -2.517146800000E-01
     73 T   8 O    -4.392633200000E-01  2.803706300000E-01  2.496785000000E-01
     74 T   8 O    -2.471469300000E-01 -3.353575400000E-01 -2.503215000000E-01
     75 T   8 O    -2.803183000000E-01  2.803783300000E-01  2.523271000000E-01
     76 T   8 O    -8.820191000000E-02 -3.353498400000E-01 -2.476729100000E-01
     77 T   8 O    -2.803205800000E-01  4.393234600000E-01  2.483312600000E-01
     78 T   8 O    -8.820419000000E-02 -1.764047100000E-01 -2.516687400000E-01
     79 T   8 O     2.803245100000E-01 -2.803488900000E-01  2.496785200000E-01
     80 T   8 O     4.724409000000E-01  1.039229400000E-01 -2.503214800000E-01
     81 T   8 O     2.803439700000E-01 -4.393043900000E-01  2.523270900000E-01
     82 T   8 O     4.724603600000E-01 -5.503256000000E-02 -2.476729100000E-01
     83 T   8 O     4.392638400000E-01 -2.803645800000E-01  2.483312500000E-01
     84 T   8 O    -3.686197700000E-01  1.039072500000E-01 -2.516687500000E-01

 T = ATOM BELONGING TO THE ASYMMETRIC UNIT

 ****    1 SYMMOPS - TRANSLATORS IN FRACTIONAL UNITS
 **** MATRICES AND TRANSLATORS IN THE CRYSTALLOGRAPHIC REFERENCE FRAME
   V INV                    ROTATION MATRICES                   TRANSLATORS
   1   1  1.00  0.00  0.00  0.00  1.00  0.00 -0.00 -0.00  1.00  0.00  0.00  0.00

 DIRECT LATTICE VECTORS CARTESIAN COMPONENTS (ANGSTROM)
          X                    Y                    Z
   0.130113578931E+02  -0.751088897922E+01   0.000000000000E+00
   0.000000000000E+00   0.150239160000E+02   0.000000000000E+00
  -0.170055388808E-04  -0.450993078697E-04   0.799999999985E+01


 CARTESIAN COORDINATES - PRIMITIVE CELL
 *******************************************************************************
 *      ATOM          X(ANGSTROM)         Y(ANGSTROM)         Z(ANGSTROM)
 *******************************************************************************
    1     5 B    -5.026545016651E+00  6.316801115365E+00  2.004776719964E+00
    2     5 B    -2.526841406469E+00 -4.376789516273E+00 -1.995223279964E+00
    3     5 B    -2.957014899475E+00  7.511850682417E+00  2.004776799964E+00
    4     5 B    -4.573112892933E-01 -3.181739949220E+00 -1.995223199964E+00
    5     5 B    -5.026600553801E+00 -6.317642347288E+00  1.994733599964E+00
    6     5 B    -2.526896943619E+00 -1.987316978925E+00 -2.005266399964E+00
    7     5 B     2.956895129287E+00 -7.511642302360E+00  2.004776719964E+00
    8     5 B     5.456598739469E+00 -3.181316933998E+00 -1.995223279964E+00
    9     5 B     5.027105870595E+00  6.316919352526E+00  2.004776719964E+00
   10     5 B    -5.484548412280E+00  3.134217700105E+00 -1.995223279964E+00
   11     5 B     5.026849307966E+00 -6.315954503019E+00  1.994733599964E+00
   12     5 B     7.526552918148E+00 -1.985629134656E+00 -2.005266399964E+00
   13     1 H    -1.261538377474E+00  5.369556542707E+00  1.983955199964E+00
   14     1 H     1.238165232708E+00 -5.324034088931E+00 -2.016044799963E+00
   15     1 H     1.257342244147E+00 -5.367409558744E+00  1.980771199964E+00
   16     1 H     3.757045854328E+00 -1.037084190382E+00 -2.019228719963E+00
   17     1 H    -1.262477789704E+00 -5.369861985237E+00  1.980281279964E+00
   18     1 H     1.237225820478E+00 -1.039536616875E+00 -2.019718719963E+00
   19     1 H     1.258664849459E+00  5.368390588418E+00  1.980403439964E+00
   20     1 H     3.758368459640E+00 -5.325200043219E+00 -2.019596559963E+00
   21     1 H    -4.020092306450E+00  3.777991727030E+00  2.016044959963E+00
   22     1 H    -1.520388696268E+00 -6.915598904607E+00 -1.983955119964E+00
   23     1 H     4.019590858462E+00 -3.771097955824E+00  2.019229119963E+00
   24     1 H     6.519294468643E+00  5.592274125384E-01 -1.980770879964E+00
   25     1 H     5.280915404639E+00 -1.590385073558E+00  2.019719439963E+00
   26     1 H    -5.230738878236E+00 -4.773086725979E+00 -1.980280559964E+00
   27     1 H    -5.278553321574E+00  1.594962820119E+00  2.019596399963E+00
   28     1 H    -2.778849711392E+00  5.925288188481E+00 -1.980403599964E+00
   29     1 H    -4.019567360060E+00 -3.778588281377E+00  1.983955359964E+00
   30     1 H    -1.519863749879E+00  5.517370869851E-01 -2.016044559963E+00
   31     1 H     4.020008734914E+00  3.773251332365E+00  1.980771039964E+00
   32     1 H    -6.491645547961E+00  5.905496799442E-01 -2.019228959963E+00
   33     1 H     5.280532694324E+00  1.591499938653E+00  1.980280879964E+00
   34     1 H    -5.231121588551E+00 -1.591201713768E+00 -2.019719199963E+00
   35     1 H    -5.278830770526E+00 -1.595797106326E+00  1.980403839964E+00
   36     1 H    -2.779127160345E+00  2.734528262037E+00 -2.019596159963E+00
   37     6 C    -1.406658107706E+00  7.511809175391E+00  1.994366159964E+00
   38     6 C     1.093045502475E+00 -3.181781456247E+00 -2.005633839964E+00
   39     6 C    -6.962535592860E-01  6.303081477958E+00  1.984445199964E+00
   40     6 C     1.803450050895E+00 -4.390509153680E+00 -2.015554799963E+00
   41     6 C     6.946477200593E-01 -6.302618480801E+00  1.983588159964E+00
   42     6 C     3.194351330241E+00 -1.972293112439E+00 -2.016411839963E+00
   43     6 C    -6.967349831737E-01 -6.303109987529E+00  1.986160239964E+00
   44     6 C     1.802968627008E+00 -1.972784619167E+00 -2.013839759963E+00
   45     6 C     6.951450227501E-01  6.303131596457E+00  1.979546079964E+00
   46     6 C     3.194848632932E+00 -4.390459035181E+00 -2.020453919963E+00
   47     6 C     1.405689407859E+00 -7.511588006930E+00  1.986282559964E+00
   48     6 C     3.905393018041E+00 -3.181262638567E+00 -2.013717439963E+00
   49     6 C     7.208800917120E+00 -2.536226023429E+00  2.005634159964E+00
   50     6 C    -3.302853365755E+00 -5.718927675850E+00 -1.994365839964E+00
   51     6 C    -5.111153866420E+00  3.755052138572E+00  2.015554879963E+00
   52     6 C    -2.611450256238E+00 -6.938538493066E+00 -1.984445119964E+00
   53     6 C     5.110839789015E+00 -3.751606772769E+00  2.016412239963E+00
   54     6 C     7.610543399196E+00  5.787185955935E-01 -1.983587759964E+00
   55     6 C     5.806803145801E+00 -2.546702953034E+00  2.013840319963E+00
   56     6 C    -4.704851137074E+00 -5.729404605455E+00 -1.986159679964E+00
   57     6 C    -5.806754081154E+00  2.550048651872E+00  2.020453919963E+00
   58     6 C    -3.307050470973E+00  6.880374020234E+00 -1.979546079964E+00
   59     6 C     5.802123350968E+00 -4.972028594796E+00  2.013717679963E+00
   60     6 C     8.301826961150E+00 -6.417032264339E-01 -1.986282319964E+00
   61     6 C     7.208871852973E+00  2.537401034597E+00  1.994366079964E+00
   62     6 C    -3.302782429902E+00 -6.453006178240E-01 -2.005633919964E+00
   63     6 C    -5.110732622635E+00 -3.756099543234E+00  1.984445439964E+00
   64     6 C    -2.611029012454E+00  5.742258251282E-01 -2.015554559963E+00
   65     6 C     5.111161239329E+00  3.752787197453E+00  1.983587919964E+00
   66     6 C    -5.400493043546E+00  5.700855450313E-01 -2.016412079963E+00
   67     6 C     5.806799041007E+00  2.547716164297E+00  1.986159919964E+00
   68     6 C    -4.704855241868E+00 -6.349854881238E-01 -2.013840079963E+00
   69     6 C    -5.806414267643E+00 -2.551150720120E+00  1.979546399964E+00
   70     6 C    -3.306710657461E+00  1.779174648243E+00 -2.020453599963E+00
   71     6 C     5.802540683535E+00  4.973054818579E+00  1.986282559964E+00
   72     6 C    -4.709113599340E+00  1.790353166158E+00 -2.013717439963E+00
   73     8 O     7.295941381327E+00  6.225836051150E-04  1.997427999964E+00
   74     8 O    -3.215712901548E+00 -3.182079068816E+00 -2.002571999964E+00
   75     8 O    -3.647326016232E+00  6.317808728505E+00  2.018616799963E+00
   76     8 O    -1.147622406050E+00 -4.375781903132E+00 -1.981383279964E+00
   77     8 O    -3.647355614176E+00 -6.318111684729E+00  1.986650079964E+00
   78     8 O    -1.147652003995E+00 -1.987786316367E+00 -2.013349919963E+00
   79     8 O     3.647398279888E+00 -6.317435707145E+00  1.997428159964E+00
   80     8 O     6.147101890069E+00 -1.987110338783E+00 -2.002571839964E+00
   81     8 O     3.647651435872E+00  6.318199931769E+00  2.018616719963E+00
   82     8 O     6.147355046054E+00 -4.375390699869E+00 -1.981383279964E+00
   83     8 O    -7.295943084345E+00 -5.580544706205E-04  1.986649999964E+00
   84     8 O    -4.796239474163E+00  4.329767313892E+00 -2.013349999963E+00

 *******************************************************************************
 STARTING BASIS SET HANDLING 
 *******************************************************************************

 Loading internal basis set: SOLDEF2MSVP         

 Please cite in your publication:
 L. Dona', J. G. Brandenburg and B. Civalleri, J. Chem. Phys., 151, 121101 (2019
 )                                                                              
                                                                                
                    

 *******************************************************************************
 LOCAL ATOMIC FUNCTIONS BASIS SET
 *******************************************************************************
   ATOM   X(AU)   Y(AU)   Z(AU)  N. TYPE  EXPONENT  S COEF   P COEF   D/F/G COEF
 *******************************************************************************
   1 B   -9.499  11.937   3.788
                                  1 S  
                                         2.410E+03 1.755E-03 0.000E+00 0.000E+00
                                         3.619E+02 1.344E-02 0.000E+00 0.000E+00
                                         8.231E+01 6.637E-02 0.000E+00 0.000E+00
                                         2.311E+01 2.303E-01 0.000E+00 0.000E+00
                                         7.252E+00 5.150E-01 0.000E+00 0.000E+00
                                  2 S  
                                         2.367E+00 1.000E+00 0.000E+00 0.000E+00
                                  3 S  
                                         5.533E-01 1.000E+00 0.000E+00 0.000E+00
                                  4 S  
                                         1.716E-01 1.000E+00 0.000E+00 0.000E+00
                           5-     7 P  
                                         6.002E+00 0.000E+00-3.555E-02 0.000E+00
                                         1.240E+00 0.000E+00-1.983E-01 0.000E+00
                                         3.367E-01 0.000E+00-5.048E-01 0.000E+00
                           8-    10 P  
                                         1.256E-01 0.000E+00 1.000E+00 0.000E+00
                          11-    15 D  
                                         8.880E-01 0.000E+00 0.000E+00 1.000E+00
   2 B   -4.775  -8.271  -3.770
   3 B   -5.588  14.195   3.788
   4 B   -0.864  -6.013  -3.770
   5 B   -9.499 -11.939   3.770
   6 B   -4.775  -3.755  -3.789
   7 B    5.588 -14.195   3.788
   8 B   10.311  -6.012  -3.770
   9 B    9.500  11.937   3.788
  10 B  -10.364   5.923  -3.770
  11 B    9.499 -11.935   3.770
  12 B   14.223  -3.752  -3.789
  13 H   -2.384  10.147   3.749
                                181 S  
                                         1.874E+01 1.968E-02 0.000E+00 0.000E+00
                                         2.826E+00 1.380E-01 0.000E+00 0.000E+00
                                         6.401E-01 4.783E-01 0.000E+00 0.000E+00
                                182 S  
                                         1.756E-01 1.000E+00 0.000E+00 0.000E+00
  14 H    2.340 -10.061  -3.810
  15 H    2.376 -10.143   3.743
  16 H    7.100  -1.960  -3.816
  17 H   -2.386 -10.148   3.742
  18 H    2.338  -1.964  -3.817
  19 H    2.379  10.145   3.742
  20 H    7.102 -10.063  -3.816
  21 H   -7.597   7.139   3.810
  22 H   -2.873 -13.069  -3.749
  23 H    7.596  -7.126   3.816
  24 H   12.320   1.057  -3.743
  25 H    9.979  -3.005   3.817
  26 H   -9.885  -9.020  -3.742
  27 H   -9.975   3.014   3.816
  28 H   -5.251  11.197  -3.742
  29 H   -7.596  -7.140   3.749
  30 H   -2.872   1.043  -3.810
  31 H    7.597   7.130   3.743
  32 H  -12.267   1.116  -3.816
  33 H    9.979   3.007   3.742
  34 H   -9.885  -3.007  -3.817
  35 H   -9.976  -3.016   3.742
  36 H   -5.252   5.168  -3.816
  37 C   -2.658  14.195   3.769
                                229 S  
                                         3.624E+03 1.634E-03 0.000E+00 0.000E+00
                                         5.440E+02 1.252E-02 0.000E+00 0.000E+00
                                         1.237E+02 6.211E-02 0.000E+00 0.000E+00
                                         3.476E+01 2.182E-01 0.000E+00 0.000E+00
                                         1.093E+01 4.980E-01 0.000E+00 0.000E+00
                                230 S  
                                         3.574E+00 1.000E+00 0.000E+00 0.000E+00
                                231 S  
                                         7.742E-01 1.000E+00 0.000E+00 0.000E+00
                                232 S  
                                         2.330E-01 1.000E+00 0.000E+00 0.000E+00
                         233-   235 P  
                                         9.443E+00 0.000E+00 3.790E-02 0.000E+00
                                         2.002E+00 0.000E+00 2.082E-01 0.000E+00
                                         5.463E-01 0.000E+00 5.047E-01 0.000E+00
                         236-   238 P  
                                         1.820E-01 0.000E+00 1.000E+00 0.000E+00
                         239-   243 D  
                                         8.880E-01 0.000E+00 0.000E+00 1.000E+00
  38 C    2.066  -6.013  -3.790
  39 C   -1.316  11.911   3.750
  40 C    3.408  -8.297  -3.809
  41 C    1.313 -11.910   3.748
  42 C    6.036  -3.727  -3.810
  43 C   -1.317 -11.911   3.753
  44 C    3.407  -3.728  -3.806
  45 C    1.314  11.911   3.741
  46 C    6.037  -8.297  -3.818
  47 C    2.656 -14.195   3.754
  48 C    7.380  -6.012  -3.805
  49 C   13.623  -4.793   3.790
  50 C   -6.241 -10.807  -3.769
  51 C   -9.659   7.096   3.809
  52 C   -4.935 -13.112  -3.750
  53 C    9.658  -7.090   3.810
  54 C   14.382   1.094  -3.748
  55 C   10.973  -4.813   3.806
  56 C   -8.891 -10.827  -3.753
  57 C  -10.973   4.819   3.818
  58 C   -6.249  13.002  -3.741
  59 C   10.964  -9.396   3.805
  60 C   15.688  -1.213  -3.754
  61 C   13.623   4.795   3.769
  62 C   -6.241  -1.219  -3.790
  63 C   -9.658  -7.098   3.750
  64 C   -4.934   1.085  -3.809
  65 C    9.659   7.092   3.748
  66 C  -10.205   1.077  -3.810
  67 C   10.973   4.814   3.753
  68 C   -8.891  -1.200  -3.806
  69 C  -10.973  -4.821   3.741
  70 C   -6.249   3.362  -3.818
  71 C   10.965   9.398   3.754
  72 C   -8.899   3.383  -3.805
  73 O   13.787   0.001   3.775
                                769 S  
                                         6.773E+03 1.727E-03 0.000E+00 0.000E+00
                                         1.017E+03 1.325E-02 0.000E+00 0.000E+00
                                         2.313E+02 6.603E-02 0.000E+00 0.000E+00
                                         6.501E+01 2.353E-01 0.000E+00 0.000E+00
                                         2.050E+01 5.498E-01 0.000E+00 0.000E+00
                                770 S  
                                         6.716E+00 1.000E+00 0.000E+00 0.000E+00
                                771 S  
                                         1.147E+00 1.000E+00 0.000E+00 0.000E+00
                                772 S  
                                         3.342E-01 1.000E+00 0.000E+00 0.000E+00
                         773-   775 P  
                                         1.769E+01 0.000E+00 4.359E-02 0.000E+00
                                         3.854E+00 0.000E+00 2.318E-01 0.000E+00
                                         1.047E+00 0.000E+00 5.146E-01 0.000E+00
                         776-   778 P  
                                         2.759E-01 0.000E+00 1.000E+00 0.000E+00
                         779-   783 D  
                                         8.000E-01 0.000E+00 0.000E+00 1.000E+00
  74 O   -6.077  -6.013  -3.784
  75 O   -6.892  11.939   3.815
  76 O   -2.169  -8.269  -3.744
  77 O   -6.893 -11.940   3.754
  78 O   -2.169  -3.756  -3.805
  79 O    6.893 -11.938   3.775
  80 O   11.616  -3.755  -3.784
  81 O    6.893  11.940   3.815
  82 O   11.617  -8.268  -3.744
  83 O  -13.787  -0.001   3.754
  84 O   -9.064   8.182  -3.805

 *******************************************************************************
 FINISHED BASIS SET HANDLING 
 *******************************************************************************

 INFORMATION **** SET_MPP **** PCRYSTAL CALCULATION
 INFORMATION **** READM2 **** NEW DEFAULT: FOCK/KS MATRIX MIXING SET TO 30 %
 INFORMATION **** READM2 **** NEW DEFAULT: FULL DIRECT SCF MODE
 INFORMATION **** READM2 **** NEW DEFAULT: COULOMB BIPOLAR BUFFER SET TO 32 Mb
 INFORMATION **** READM2 **** NEW DEFAULT: EXCHANGE BIPOLAR BUFFER SET TO 32 Mb

 *******************************************************************************
 NEW DEFAULT: DFT INTEGRATION GRID INCREASED TO XLGRID
 NEW DEFAULT: DIIS ACCELERATOR ACTIVE
 USE KEYWORD NODIIS TO TURN IT OFF
 *******************************************************************************

 WARNING **** RDDFTP **** HSEsol-HJS ACTIVE
 RANGE SEPARATION - OMEGA:   0.110000000000000     
 WARNING **** RDDFTP **** HSEsol-3c has to be combined with sol-def2-mSVP basis set
 *******************************************************************************
 N. OF ATOMS PER CELL        84  COULOMB OVERLAP TOL         (T1) 10**   -6
 NUMBER OF SHELLS           468  COULOMB PENETRATION TOL     (T2) 10**   -6
 NUMBER OF AO               948  EXCHANGE OVERLAP TOL        (T3) 10**   -6
 N. OF ELECTRONS PER CELL   396  EXCHANGE PSEUDO OVP (F(G))  (T4) 10**   -6
 CORE ELECTRONS PER CELL    120  EXCHANGE PSEUDO OVP (P(G))  (T5) 10**  -12
 N. OF SYMMETRY OPERATORS     1  POLE ORDER IN MONO ZONE                  4
 *******************************************************************************
 TYPE OF CALCULATION :  RESTRICTED CLOSED SHELL
 KOHN-SHAM HAMILTONIAN

 (EXCHANGE)[CORRELATION] FUNCTIONAL:(HSEsol GGA)[PBEsol]

 RANGE-SEPARATED HYBRID FUNCTIONAL 
 OMEGA (SHORT-RANGE)[LONG-RANGE]:(    0.1100)[    0.0000]

 HYBRID EXCHANGE - PERCENTAGE OF FOCK EXCHANGE    25.0000

 CAPPA:IS1  2;IS2  2;IS3  8; K PTS MONK NET  20; SYMMOPS:K SPACE   2;G SPACE   1

 *******************************************************************************
 MAX NUMBER OF SCF CYCLES      50  CONVERGENCE ON DELTAP        10**-16
 WEIGHT OF F(I) IN F(I+1)      30% CONVERGENCE ON ENERGY        10**- 6
 SHRINK. FACT.(MONKH.)    2  2  8  NUMBER OF K POINTS IN THE IBZ     20
 SHRINKING FACTOR(GILAT NET)    8  NUMBER OF K POINTS(GILAT NET)   1028
 *******************************************************************************
 *** K POINTS COORDINATES (OBLIQUE COORDINATES IN UNITS OF IS =  2)
   1-R(  0  0  0)   2-R(  1  0  0)   3-R(  0  1  0)   4-R(  1  1  0)
   5-C(  0  0  1)   6-C(  1  0  1)   7-C(  0  1  1)   8-C(  1  1  1)
   9-C(  0  0  2)  10-C(  1  0  2)  11-C(  0  1  2)  12-C(  1  1  2)
  13-C(  0  0  3)  14-C(  1  0  3)  15-C(  0  1  3)  16-C(  1  1  3)
  17-R(  0  0  4)  18-R(  1  0  4)  19-R(  0  1  4)  20-R(  1  1  4)

 DIRECT LATTICE VECTORS COMPON. (A.U.)     RECIP. LATTICE VECTORS COMPON. (A.U.) 
        X            Y            Z              X            Y            Z
   24.5879030  -14.1935232    0.0000000      0.2555397    0.0000000    0.0000005
    0.0000000   28.3910867    0.0000000      0.1277517    0.2213084    0.0000015
   -0.0000321   -0.0000852   15.1178091      0.0000000    0.0000000    0.4156148

 DISK SPACE FOR EIGENVECTORS (FTN 10)    28758528 REALS

 SYMMETRY ADAPTION OF THE BLOCH FUNCTIONS DISABLED
 TTTTTTTTTTTTTTTTTTTTTTTTTTTTTT gordsh1     TELAPSE        0.05 TCPU        0.05

 MATRIX SIZE: P(G)  622202, F(G)  123390, P(G) IRR  313039, F(G) IRR  124350
 MAX G-VECTOR INDEX FOR 1- AND 2-ELECTRON INTEGRALS  43

 TTTTTTTTTTTTTTTTTTTTTTTTTTTTTT INPUT       TELAPSE        2.46 TCPU        2.45

 NEIGHBORS OF THE NON-EQUIVALENT ATOMS

 N = NUMBER OF NEIGHBORS AT DISTANCE R
    ATOM  N     R/ANG      R/AU   NEIGHBORS (ATOM LABELS AND CELL INDICES)
   1 B    1     1.3791     2.6061   73 O   -1 0 0
   1 B    1     1.3793     2.6065   75 O    0 0 0
   1 B    1     1.5503     2.9297   49 C   -1 0 0
   1 B    1     2.3895     4.5155    5 B    0 1 0
   1 B    1     2.3898     4.5160    3 B    0 0 0
   1 B    1     2.5632     4.8437   51 C    0 0 0

   2 B    1     1.3791     2.6061   74 O    0 0 0
   2 B    1     1.3793     2.6065   76 O    0 0 0
   2 B    1     1.5503     2.9297   50 C    0 0 0
   2 B    1     2.3895     4.5155    6 B    0 0 0
   2 B    1     2.3898     4.5160    4 B    0 0 0
   2 B    1     2.5632     4.8437   52 C    0 0 0

   3 B    1     1.3793     2.6065   77 O    0 1 0
   3 B    1     1.3793     2.6065   75 O    0 0 0
   3 B    1     1.5504     2.9298   37 C    0 0 0
   3 B    1     2.3895     4.5156    5 B    0 1 0
   3 B    1     2.3898     4.5160    1 B    0 0 0
   3 B    1     2.5634     4.8440   43 C    0 1 0

   4 B    1     1.3793     2.6065   78 O    0 0 0
   4 B    1     1.3793     2.6065   76 O    0 0 0
   4 B    1     1.5504     2.9298   38 C    0 0 0
   4 B    1     2.3895     4.5156    6 B    0 0 0
   4 B    1     2.3898     4.5160    2 B    0 0 0
   4 B    1     2.5634     4.8440   44 C    0 0 0

   5 B    1     1.3791     2.6061   73 O   -1-1 0
   5 B    1     1.3793     2.6064   77 O    0 0 0
   5 B    1     1.5502     2.9294   61 C   -1-1 0
   5 B    1     2.3895     4.5155    1 B    0-1 0
   5 B    1     2.3895     4.5156    3 B    0-1 0
   5 B    1     2.5629     4.8433   63 C    0 0 0

   6 B    1     1.3791     2.6061   74 O    0 0 0
   6 B    1     1.3793     2.6064   78 O    0 0 0
   6 B    1     1.5502     2.9294   62 C    0 0 0
   6 B    1     2.3895     4.5155    2 B    0 0 0
   6 B    1     2.3895     4.5156    4 B    0 0 0
   6 B    1     2.5629     4.8433   64 C    0 0 0

   7 B    1     1.3795     2.6068   79 O    0 0 0
   7 B    1     1.3795     2.6070   81 O    0-1 0
   7 B    1     1.5513     2.9316   47 C    0 0 0
   7 B    1     2.3905     4.5174   11 B    0 0 0
   7 B    1     2.3905     4.5175    9 B    0-1 0
   7 B    1     2.5648     4.8468   45 C    0-1 0

   8 B    1     1.3795     2.6068   80 O    0 0 0
   8 B    1     1.3795     2.6070   82 O    0 0 0
   8 B    1     1.5513     2.9316   48 C    0 0 0
   8 B    1     2.3905     4.5174   12 B    0 0 0
   8 B    1     2.3905     4.5175   10 B    1 0 0
   8 B    1     2.5648     4.8468   46 C    0 0 0

   9 B    1     1.3795     2.6069   81 O    0 0 0
   9 B    1     1.3797     2.6072   83 O    1 1 0
   9 B    1     1.5516     2.9322   71 C    0 0 0
   9 B    1     2.3905     4.5175    7 B    0 1 0
   9 B    1     2.3911     4.5185   11 B    0 1 0
   9 B    1     2.5651     4.8473   69 C    1 1 0

  10 B    1     1.3795     2.6069   82 O   -1 0 0
  10 B    1     1.3797     2.6072   84 O    0 0 0
  10 B    1     1.5516     2.9322   72 C    0 0 0
  10 B    1     2.3905     4.5175    8 B   -1 0 0
  10 B    1     2.3911     4.5185   12 B   -1 0 0
  10 B    1     2.5651     4.8473   70 C    0 0 0

  11 B    1     1.3795     2.6068   79 O    0 0 0
  11 B    1     1.3796     2.6071   83 O    1 0 0
  11 B    1     1.5516     2.9322   59 C    0 0 0
  11 B    1     2.3905     4.5174    7 B    0 0 0
  11 B    1     2.3911     4.5185    9 B    0-1 0
  11 B    1     2.5651     4.8473   57 C    1 0 0

  12 B    1     1.3795     2.6068   80 O    0 0 0
  12 B    1     1.3796     2.6071   84 O    1 0 0
  12 B    1     1.5516     2.9322   60 C    0 0 0
  12 B    1     2.3905     4.5174    8 B    0 0 0
  12 B    1     2.3911     4.5185   10 B    1 0 0
  12 B    1     2.5651     4.8473   58 C    1 0 0

  13 H    1     1.0913     2.0623   39 C    0 0 0
  13 H    1     2.1472     4.0576   37 C    0 0 0
  13 H    1     2.1680     4.0969   45 C    0 0 0
  13 H    1     2.5202     4.7625   19 H    0 0 0
  13 H    1     2.5676     4.8520   75 O    0 0 0
  13 H    1     2.7321     5.1630    3 B    0 0 0

  14 H    1     1.0913     2.0623   40 C    0 0 0
  14 H    1     2.1472     4.0576   38 C    0 0 0
  14 H    1     2.1680     4.0969   46 C    0 0 0
  14 H    1     2.5202     4.7625   20 H    0 0 0
  14 H    1     2.5676     4.8520   76 O    0 0 0
  14 H    1     2.7321     5.1630    4 B    0 0 0

  15 H    1     1.0914     2.0625   41 C    0 0 0
  15 H    1     2.1493     4.0616   47 C    0 0 0
  15 H    1     2.1666     4.0942   43 C    0 0 0
  15 H    1     2.5198     4.7618   17 H    0 0 0
  15 H    1     2.5720     4.8604   79 O    0 0 0
  15 H    1     2.7362     5.1707    7 B    0 0 0

  16 H    1     1.0914     2.0625   42 C    0 0 0
  16 H    1     2.1493     4.0616   48 C    0 0 0
  16 H    1     2.1666     4.0942   44 C    0 0 0
  16 H    1     2.5198     4.7618   18 H    0 0 0
  16 H    1     2.5720     4.8604   80 O    0 0 0
  16 H    1     2.7362     5.1707    8 B    0 0 0

  17 H    1     1.0914     2.0624   43 C    0 0 0
  17 H    1     2.1471     4.0575   37 C    0-1 0
  17 H    1     2.1680     4.0970   41 C    0 0 0
  17 H    1     2.5198     4.7618   15 H    0 0 0
  17 H    1     2.5665     4.8500   77 O    0 0 0
  17 H    1     2.7315     5.1618    3 B    0-1 0

  18 H    1     1.0914     2.0624   44 C    0 0 0
  18 H    1     2.1471     4.0575   38 C    0 0 0
  18 H    1     2.1680     4.0970   42 C    0 0 0
  18 H    1     2.5198     4.7618   16 H    0 0 0
  18 H    1     2.5665     4.8500   78 O    0 0 0
  18 H    1     2.7315     5.1618    4 B    0 0 0

  19 H    1     1.0915     2.0626   45 C    0 0 0
  19 H    1     2.1490     4.0610   47 C    0 1 0
  19 H    1     2.1669     4.0948   39 C    0 0 0
  19 H    1     2.5202     4.7625   13 H    0 0 0
  19 H    1     2.5712     4.8588   81 O    0 0 0
  19 H    1     2.7351     5.1686    7 B    0 1 0

  20 H    1     1.0915     2.0626   46 C    0 0 0
  20 H    1     2.1490     4.0610   48 C    0 0 0
  20 H    1     2.1669     4.0948   40 C    0 0 0
  20 H    1     2.5202     4.7625   14 H    0 0 0
  20 H    1     2.5712     4.8588   82 O    0 0 0
  20 H    1     2.7351     5.1686    8 B    0 0 0

  21 H    1     1.0913     2.0623   51 C    0 0 0
  21 H    1     2.1469     4.0571   49 C   -1 0 0
  21 H    1     2.1680     4.0968   57 C    0 0 0
  21 H    1     2.5198     4.7617   27 H    0 0 0
  21 H    1     2.5670     4.8510   75 O    0 0 0
  21 H    1     2.7310     5.1609    1 B    0 0 0

  22 H    1     1.0913     2.0623   52 C    0 0 0
  22 H    1     2.1469     4.0571   50 C    0 0 0
  22 H    1     2.1680     4.0968   58 C    0-1 0
  22 H    1     2.5198     4.7617   28 H    0-1 0
  22 H    1     2.5670     4.8510   76 O    0 0 0
  22 H    1     2.7310     5.1609    2 B    0 0 0

  23 H    1     1.0914     2.0625   53 C    0 0 0
  23 H    1     2.1493     4.0617   59 C    0 0 0
  23 H    1     2.1664     4.0939   55 C    0 0 0
  23 H    1     2.5192     4.7606   25 H    0 0 0
  23 H    1     2.5735     4.8632   79 O    0 0 0
  23 H    1     2.7371     5.1723   11 B    0 0 0

  24 H    1     1.0914     2.0625   54 C    0 0 0
  24 H    1     2.1493     4.0617   60 C    0 0 0
  24 H    1     2.1664     4.0939   56 C    1 1 0
  24 H    1     2.5192     4.7606   26 H    1 1 0
  24 H    1     2.5735     4.8632   80 O    0 0 0
  24 H    1     2.7371     5.1723   12 B    0 0 0

  25 H    1     1.0914     2.0624   55 C    0 0 0
  25 H    1     2.1475     4.0581   49 C    0 0 0
  25 H    1     2.1679     4.0967   53 C    0 0 0
  25 H    1     2.5192     4.7606   23 H    0 0 0
  25 H    1     2.5675     4.8519   73 O    0 0 0
  25 H    1     2.7328     5.1643    1 B    1 0 0

  26 H    1     1.0914     2.0624   56 C    0 0 0
  26 H    1     2.1475     4.0581   50 C    0 0 0
  26 H    1     2.1679     4.0967   54 C   -1-1 0
  26 H    1     2.5192     4.7606   24 H   -1-1 0
  26 H    1     2.5675     4.8519   74 O    0 0 0
  26 H    1     2.7328     5.1643    2 B    0 0 0

  27 H    1     1.0914     2.0625   57 C    0 0 0
  27 H    1     2.1491     4.0612   59 C   -1 0 0
  27 H    1     2.1666     4.0942   51 C    0 0 0
  27 H    1     2.5198     4.7617   21 H    0 0 0
  27 H    1     2.5723     4.8609   83 O    0 0 0
  27 H    1     2.7355     5.1693   11 B   -1 0 0

  28 H    1     1.0914     2.0625   58 C    0 0 0
  28 H    1     2.1491     4.0612   60 C   -1 0 0
  28 H    1     2.1666     4.0942   52 C    0 1 0
  28 H    1     2.5198     4.7617   22 H    0 1 0
  28 H    1     2.5723     4.8609   84 O    0 0 0
  28 H    1     2.7355     5.1693   12 B   -1 0 0

  29 H    1     1.0914     2.0624   63 C    0 0 0
  29 H    1     2.1475     4.0582   61 C   -1-1 0
  29 H    1     2.1678     4.0966   69 C    0 0 0
  29 H    1     2.5200     4.7621   35 H    0 0 0
  29 H    1     2.5667     4.8503   77 O    0 0 0
  29 H    1     2.7315     5.1618    5 B    0 0 0

  30 H    1     1.0914     2.0624   64 C    0 0 0
  30 H    1     2.1475     4.0582   62 C    0 0 0
  30 H    1     2.1678     4.0966   70 C    0 0 0
  30 H    1     2.5200     4.7621   36 H    0 0 0
  30 H    1     2.5667     4.8503   78 O    0 0 0
  30 H    1     2.7315     5.1618    6 B    0 0 0

  31 H    1     1.0913     2.0623   65 C    0 0 0
  31 H    1     2.1487     4.0605   71 C    0 0 0
  31 H    1     2.1667     4.0945   67 C    0 0 0
  31 H    1     2.5197     4.7616   33 H    0 0 0
  31 H    1     2.5723     4.8610   81 O    0 0 0
  31 H    1     2.7359     5.1701    9 B    0 0 0

  32 H    1     1.0913     2.0623   66 C    0 0 0
  32 H    1     2.1487     4.0605   72 C    0 0 0
  32 H    1     2.1667     4.0945   68 C    0 0 0
  32 H    1     2.5197     4.7616   34 H    0 0 0
  32 H    1     2.5723     4.8610   82 O   -1 0 0
  32 H    1     2.7359     5.1701   10 B    0 0 0

  33 H    1     1.0915     2.0626   67 C    0 0 0
  33 H    1     2.1479     4.0589   61 C    0 0 0
  33 H    1     2.1679     4.0968   65 C    0 0 0
  33 H    1     2.5197     4.7616   31 H    0 0 0
  33 H    1     2.5677     4.8522   73 O    0 0 0
  33 H    1     2.7331     5.1648    5 B    1 1 0

  34 H    1     1.0915     2.0626   68 C    0 0 0
  34 H    1     2.1479     4.0589   62 C    0 0 0
  34 H    1     2.1679     4.0968   66 C    0 0 0
  34 H    1     2.5197     4.7616   32 H    0 0 0
  34 H    1     2.5677     4.8522   74 O    0 0 0
  34 H    1     2.7331     5.1648    6 B    0 0 0

  35 H    1     1.0914     2.0624   69 C    0 0 0
  35 H    1     2.1486     4.0602   71 C   -1-1 0
  35 H    1     2.1668     4.0947   63 C    0 0 0
  35 H    1     2.5200     4.7621   29 H    0 0 0
  35 H    1     2.5717     4.8598   83 O    0 0 0
  35 H    1     2.7349     5.1682    9 B   -1-1 0

  36 H    1     1.0914     2.0624   70 C    0 0 0
  36 H    1     2.1486     4.0602   72 C    0 0 0
  36 H    1     2.1668     4.0947   64 C    0 0 0
  36 H    1     2.5200     4.7621   30 H    0 0 0
  36 H    1     2.5717     4.8598   84 O    0 0 0
  36 H    1     2.7349     5.1682   10 B    0 0 0

  37 C    1     1.4020     2.6495   43 C    0 1 0
  37 C    1     1.4021     2.6495   39 C    0 0 0
  37 C    1     1.5504     2.9298    3 B    0 0 0
  37 C    1     2.1471     4.0575   17 H    0 1 0
  37 C    1     2.1472     4.0576   13 H    0 0 0
  37 C    1     2.4246     4.5817   41 C    0 1 0

  38 C    1     1.4020     2.6495   44 C    0 0 0
  38 C    1     1.4021     2.6495   40 C    0 0 0
  38 C    1     1.5504     2.9298    4 B    0 0 0
  38 C    1     2.1471     4.0575   18 H    0 0 0
  38 C    1     2.1472     4.0576   14 H    0 0 0
  38 C    1     2.4246     4.5817   42 C    0 0 0

  39 C    1     1.0913     2.0623   13 H    0 0 0
  39 C    1     1.3914     2.6294   45 C    0 0 0
  39 C    1     1.4021     2.6495   37 C    0 0 0
  39 C    1     2.1669     4.0948   19 H    0 0 0
  39 C    1     2.4177     4.5688   43 C    0 1 0
  39 C    1     2.4250     4.5825   47 C    0 1 0

  40 C    1     1.0913     2.0623   14 H    0 0 0
  40 C    1     1.3914     2.6294   46 C    0 0 0
  40 C    1     1.4021     2.6495   38 C    0 0 0
  40 C    1     2.1669     4.0948   20 H    0 0 0
  40 C    1     2.4177     4.5688   44 C    0 0 0
  40 C    1     2.4250     4.5825   48 C    0 0 0

  41 C    1     1.0914     2.0625   15 H    0 0 0
  41 C    1     1.3914     2.6293   43 C    0 0 0
  41 C    1     1.4026     2.6505   47 C    0 0 0
  41 C    1     2.1680     4.0970   17 H    0 0 0
  41 C    1     2.4182     4.5697   45 C    0-1 0
  41 C    1     2.4246     4.5817   37 C    0-1 0

  42 C    1     1.0914     2.0625   16 H    0 0 0
  42 C    1     1.3914     2.6293   44 C    0 0 0
  42 C    1     1.4026     2.6505   48 C    0 0 0
  42 C    1     2.1680     4.0970   18 H    0 0 0
  42 C    1     2.4182     4.5697   46 C    0 0 0
  42 C    1     2.4246     4.5817   38 C    0 0 0

  43 C    1     1.0914     2.0624   17 H    0 0 0
  43 C    1     1.3914     2.6293   41 C    0 0 0
  43 C    1     1.4020     2.6495   37 C    0-1 0
  43 C    1     2.1666     4.0942   15 H    0 0 0
  43 C    1     2.4177     4.5688   39 C    0-1 0
  43 C    1     2.4250     4.5826   47 C    0 0 0

  44 C    1     1.0914     2.0624   18 H    0 0 0
  44 C    1     1.3914     2.6293   42 C    0 0 0
  44 C    1     1.4020     2.6495   38 C    0 0 0
  44 C    1     2.1666     4.0942   16 H    0 0 0
  44 C    1     2.4177     4.5688   40 C    0 0 0
  44 C    1     2.4250     4.5826   48 C    0 0 0

  45 C    1     1.0915     2.0626   19 H    0 0 0
  45 C    1     1.3914     2.6294   39 C    0 0 0
  45 C    1     1.4025     2.6504   47 C    0 1 0
  45 C    1     2.1680     4.0969   13 H    0 0 0
  45 C    1     2.4182     4.5697   41 C    0 1 0
  45 C    1     2.4246     4.5818   37 C    0 0 0

  46 C    1     1.0915     2.0626   20 H    0 0 0
  46 C    1     1.3914     2.6294   40 C    0 0 0
  46 C    1     1.4025     2.6504   48 C    0 0 0
  46 C    1     2.1680     4.0969   14 H    0 0 0
  46 C    1     2.4182     4.5697   42 C    0 0 0
  46 C    1     2.4246     4.5818   38 C    0 0 0

  47 C    1     1.4025     2.6504   45 C    0-1 0
  47 C    1     1.4026     2.6505   41 C    0 0 0
  47 C    1     1.5513     2.9316    7 B    0 0 0
  47 C    1     2.1490     4.0610   19 H    0-1 0
  47 C    1     2.1493     4.0616   15 H    0 0 0
  47 C    1     2.4250     4.5825   39 C    0-1 0

  48 C    1     1.4025     2.6504   46 C    0 0 0
  48 C    1     1.4026     2.6505   42 C    0 0 0
  48 C    1     1.5513     2.9316    8 B    0 0 0
  48 C    1     2.1490     4.0610   20 H    0 0 0
  48 C    1     2.1493     4.0616   16 H    0 0 0
  48 C    1     2.4250     4.5825   40 C    0 0 0

  49 C    1     1.4020     2.6494   51 C    1 0 0
  49 C    1     1.4021     2.6495   55 C    0 0 0
  49 C    1     1.5503     2.9297    1 B    1 0 0
  49 C    1     2.1469     4.0571   21 H    1 0 0
  49 C    1     2.1475     4.0581   25 H    0 0 0
  49 C    1     2.4246     4.5818   53 C    0 0 0

  50 C    1     1.4020     2.6494   52 C    0 0 0
  50 C    1     1.4021     2.6495   56 C    0 0 0
  50 C    1     1.5503     2.9297    2 B    0 0 0
  50 C    1     2.1469     4.0571   22 H    0 0 0
  50 C    1     2.1475     4.0581   26 H    0 0 0
  50 C    1     2.4246     4.5818   54 C   -1-1 0

  51 C    1     1.0913     2.0623   21 H    0 0 0
  51 C    1     1.3914     2.6293   57 C    0 0 0
  51 C    1     1.4020     2.6494   49 C   -1 0 0
  51 C    1     2.1666     4.0942   27 H    0 0 0
  51 C    1     2.4175     4.5684   55 C   -1 0 0
  51 C    1     2.4251     4.5828   59 C   -1 0 0

  52 C    1     1.0913     2.0623   22 H    0 0 0
  52 C    1     1.3914     2.6293   58 C    0-1 0
  52 C    1     1.4020     2.6494   50 C    0 0 0
  52 C    1     2.1666     4.0942   28 H    0-1 0
  52 C    1     2.4175     4.5684   56 C    0 0 0
  52 C    1     2.4251     4.5828   60 C   -1-1 0

  53 C    1     1.0914     2.0625   23 H    0 0 0
  53 C    1     1.3915     2.6295   55 C    0 0 0
  53 C    1     1.4026     2.6505   59 C    0 0 0
  53 C    1     2.1679     4.0967   25 H    0 0 0
  53 C    1     2.4179     4.5691   57 C    1 0 0
  53 C    1     2.4246     4.5818   49 C    0 0 0

  54 C    1     1.0914     2.0625   24 H    0 0 0
  54 C    1     1.3915     2.6295   56 C    1 1 0
  54 C    1     1.4026     2.6505   60 C    0 0 0
  54 C    1     2.1679     4.0967   26 H    1 1 0
  54 C    1     2.4179     4.5691   58 C    1 0 0
  54 C    1     2.4246     4.5818   50 C    1 1 0

  55 C    1     1.0914     2.0624   25 H    0 0 0
  55 C    1     1.3915     2.6295   53 C    0 0 0
  55 C    1     1.4021     2.6495   49 C    0 0 0
  55 C    1     2.1664     4.0939   23 H    0 0 0
  55 C    1     2.4175     4.5684   51 C    1 0 0
  55 C    1     2.4253     4.5832   59 C    0 0 0

  56 C    1     1.0914     2.0624   26 H    0 0 0
  56 C    1     1.3915     2.6295   54 C   -1-1 0
  56 C    1     1.4021     2.6495   50 C    0 0 0
  56 C    1     2.1664     4.0939   24 H   -1-1 0
  56 C    1     2.4175     4.5684   52 C    0 0 0
  56 C    1     2.4253     4.5832   60 C   -1-1 0

  57 C    1     1.0914     2.0625   27 H    0 0 0
  57 C    1     1.3914     2.6293   51 C    0 0 0
  57 C    1     1.4025     2.6504   59 C   -1 0 0
  57 C    1     2.1680     4.0968   21 H    0 0 0
  57 C    1     2.4179     4.5691   53 C   -1 0 0
  57 C    1     2.4247     4.5819   49 C   -1 0 0

  58 C    1     1.0914     2.0625   28 H    0 0 0
  58 C    1     1.3914     2.6293   52 C    0 1 0
  58 C    1     1.4025     2.6504   60 C   -1 0 0
  58 C    1     2.1680     4.0968   22 H    0 1 0
  58 C    1     2.4179     4.5691   54 C   -1 0 0
  58 C    1     2.4247     4.5819   50 C    0 1 0

  59 C    1     1.4025     2.6504   57 C    1 0 0
  59 C    1     1.4026     2.6505   53 C    0 0 0
  59 C    1     1.5516     2.9322   11 B    0 0 0
  59 C    1     2.1491     4.0612   27 H    1 0 0
  59 C    1     2.1493     4.0617   23 H    0 0 0
  59 C    1     2.4251     4.5828   51 C    1 0 0

  60 C    1     1.4025     2.6504   58 C    1 0 0
  60 C    1     1.4026     2.6505   54 C    0 0 0
  60 C    1     1.5516     2.9322   12 B    0 0 0
  60 C    1     2.1491     4.0612   28 H    1 0 0
  60 C    1     2.1493     4.0617   24 H    0 0 0
  60 C    1     2.4251     4.5828   52 C    1 1 0

  61 C    1     1.4021     2.6496   63 C    1 1 0
  61 C    1     1.4021     2.6497   67 C    0 0 0
  61 C    1     1.5502     2.9294    5 B    1 1 0
  61 C    1     2.1475     4.0582   29 H    1 1 0
  61 C    1     2.1479     4.0589   33 H    0 0 0
  61 C    1     2.4244     4.5814   65 C    0 0 0

  62 C    1     1.4021     2.6496   64 C    0 0 0
  62 C    1     1.4021     2.6497   68 C    0 0 0
  62 C    1     1.5502     2.9294    6 B    0 0 0
  62 C    1     2.1475     4.0582   30 H    0 0 0
  62 C    1     2.1479     4.0589   34 H    0 0 0
  62 C    1     2.4244     4.5814   66 C    0 0 0

  63 C    1     1.0914     2.0624   29 H    0 0 0
  63 C    1     1.3914     2.6293   69 C    0 0 0
  63 C    1     1.4021     2.6496   61 C   -1-1 0
  63 C    1     2.1668     4.0947   35 H    0 0 0
  63 C    1     2.4179     4.5692   67 C   -1-1 0
  63 C    1     2.4251     4.5827   71 C   -1-1 0

  64 C    1     1.0914     2.0624   30 H    0 0 0
  64 C    1     1.3914     2.6293   70 C    0 0 0
  64 C    1     1.4021     2.6496   62 C    0 0 0
  64 C    1     2.1668     4.0947   36 H    0 0 0
  64 C    1     2.4179     4.5692   68 C    0 0 0
  64 C    1     2.4251     4.5827   72 C    0 0 0

  65 C    1     1.0913     2.0623   31 H    0 0 0
  65 C    1     1.3914     2.6294   67 C    0 0 0
  65 C    1     1.4025     2.6504   71 C    0 0 0
  65 C    1     2.1679     4.0968   33 H    0 0 0
  65 C    1     2.4178     4.5690   69 C    1 1 0
  65 C    1     2.4244     4.5814   61 C    0 0 0

  66 C    1     1.0913     2.0623   32 H    0 0 0
  66 C    1     1.3914     2.6294   68 C    0 0 0
  66 C    1     1.4025     2.6504   72 C    0 0 0
  66 C    1     2.1679     4.0968   34 H    0 0 0
  66 C    1     2.4178     4.5690   70 C    0 0 0
  66 C    1     2.4244     4.5814   62 C    0 0 0

  67 C    1     1.0915     2.0626   33 H    0 0 0
  67 C    1     1.3914     2.6294   65 C    0 0 0
  67 C    1     1.4021     2.6497   61 C    0 0 0
  67 C    1     2.1667     4.0945   31 H    0 0 0
  67 C    1     2.4179     4.5692   63 C    1 1 0
  67 C    1     2.4253     4.5832   71 C    0 0 0

  68 C    1     1.0915     2.0626   34 H    0 0 0
  68 C    1     1.3914     2.6294   66 C    0 0 0
  68 C    1     1.4021     2.6497   62 C    0 0 0
  68 C    1     2.1667     4.0945   32 H    0 0 0
  68 C    1     2.4179     4.5692   64 C    0 0 0
  68 C    1     2.4253     4.5832   72 C    0 0 0

  69 C    1     1.0914     2.0624   35 H    0 0 0
  69 C    1     1.3914     2.6293   63 C    0 0 0
  69 C    1     1.4025     2.6503   71 C   -1-1 0
  69 C    1     2.1678     4.0966   29 H    0 0 0
  69 C    1     2.4178     4.5690   65 C   -1-1 0
  69 C    1     2.4245     4.5817   61 C   -1-1 0

  70 C    1     1.0914     2.0624   36 H    0 0 0
  70 C    1     1.3914     2.6293   64 C    0 0 0
  70 C    1     1.4025     2.6503   72 C    0 0 0
  70 C    1     2.1678     4.0966   30 H    0 0 0
  70 C    1     2.4178     4.5690   66 C    0 0 0
  70 C    1     2.4245     4.5817   62 C    0 0 0

  71 C    1     1.4025     2.6503   69 C    1 1 0
  71 C    1     1.4025     2.6504   65 C    0 0 0
  71 C    1     1.5516     2.9322    9 B    0 0 0
  71 C    1     2.1486     4.0602   35 H    1 1 0
  71 C    1     2.1487     4.0605   31 H    0 0 0
  71 C    1     2.4251     4.5827   63 C    1 1 0

  72 C    1     1.4025     2.6503   70 C    0 0 0
  72 C    1     1.4025     2.6504   66 C    0 0 0
  72 C    1     1.5516     2.9322   10 B    0 0 0
  72 C    1     2.1486     4.0602   36 H    0 0 0
  72 C    1     2.1487     4.0605   32 H    0 0 0
  72 C    1     2.4251     4.5827   64 C    0 0 0

  73 O    1     1.3791     2.6061    1 B    1 0 0
  73 O    1     1.3791     2.6061    5 B    1 1 0
  73 O    1     2.3880     4.5126   75 O    1 0 0
  73 O    1     2.3882     4.5130   77 O    1 1 0
  73 O    1     2.5383     4.7966   61 C    0 0 0
  73 O    1     2.5384     4.7968   49 C    0 0 0

  74 O    1     1.3791     2.6061    2 B    0 0 0
  74 O    1     1.3791     2.6061    6 B    0 0 0
  74 O    1     2.3880     4.5126   76 O    0 0 0
  74 O    1     2.3882     4.5130   78 O    0 0 0
  74 O    1     2.5383     4.7966   62 C    0 0 0
  74 O    1     2.5384     4.7968   50 C    0 0 0

  75 O    1     1.3793     2.6065    1 B    0 0 0
  75 O    1     1.3793     2.6065    3 B    0 0 0
  75 O    1     2.3880     4.5126   73 O   -1 0 0
  75 O    1     2.3882     4.5131   77 O    0 1 0
  75 O    1     2.5391     4.7981   37 C    0 0 0
  75 O    1     2.5395     4.7990   49 C   -1 0 0

  76 O    1     1.3793     2.6065    2 B    0 0 0
  76 O    1     1.3793     2.6065    4 B    0 0 0
  76 O    1     2.3880     4.5126   74 O    0 0 0
  76 O    1     2.3882     4.5131   78 O    0 0 0
  76 O    1     2.5391     4.7981   38 C    0 0 0
  76 O    1     2.5395     4.7990   50 C    0 0 0

  77 O    1     1.3793     2.6064    5 B    0 0 0
  77 O    1     1.3793     2.6065    3 B    0-1 0
  77 O    1     2.3882     4.5130   73 O   -1-1 0
  77 O    1     2.3882     4.5131   75 O    0-1 0
  77 O    1     2.5390     4.7980   37 C    0-1 0
  77 O    1     2.5391     4.7982   61 C   -1-1 0

  78 O    1     1.3793     2.6064    6 B    0 0 0
  78 O    1     1.3793     2.6065    4 B    0 0 0
  78 O    1     2.3882     4.5130   74 O    0 0 0
  78 O    1     2.3882     4.5131   76 O    0 0 0
  78 O    1     2.5390     4.7980   38 C    0 0 0
  78 O    1     2.5391     4.7982   62 C    0 0 0

  79 O    1     1.3795     2.6068   11 B    0 0 0
  79 O    1     1.3795     2.6068    7 B    0 0 0
  79 O    1     2.3880     4.5126   83 O    1 0 0
  79 O    1     2.3884     4.5134   81 O    0-1 0
  79 O    1     2.5400     4.7998   47 C    0 0 0
  79 O    1     2.5403     4.8005   59 C    0 0 0

  80 O    1     1.3795     2.6068   12 B    0 0 0
  80 O    1     1.3795     2.6068    8 B    0 0 0
  80 O    1     2.3880     4.5126   84 O    1 0 0
  80 O    1     2.3884     4.5134   82 O    0 0 0
  80 O    1     2.5400     4.7998   48 C    0 0 0
  80 O    1     2.5403     4.8005   60 C    0 0 0

  81 O    1     1.3795     2.6069    9 B    0 0 0
  81 O    1     1.3795     2.6070    7 B    0 1 0
  81 O    1     2.3881     4.5128   83 O    1 1 0
  81 O    1     2.3884     4.5134   79 O    0 1 0
  81 O    1     2.5404     4.8006   47 C    0 1 0
  81 O    1     2.5405     4.8008   71 C    0 0 0

  82 O    1     1.3795     2.6069   10 B    1 0 0
  82 O    1     1.3795     2.6070    8 B    0 0 0
  82 O    1     2.3881     4.5128   84 O    1 0 0
  82 O    1     2.3884     4.5134   80 O    0 0 0
  82 O    1     2.5404     4.8006   48 C    0 0 0
  82 O    1     2.5405     4.8008   72 C    1 0 0

  83 O    1     1.3796     2.6071   11 B   -1 0 0
  83 O    1     1.3797     2.6072    9 B   -1-1 0
  83 O    1     2.3880     4.5126   79 O   -1 0 0
  83 O    1     2.3881     4.5128   81 O   -1-1 0
  83 O    1     2.5409     4.8016   71 C   -1-1 0
  83 O    1     2.5410     4.8019   59 C   -1 0 0

  84 O    1     1.3796     2.6071   12 B   -1 0 0
  84 O    1     1.3797     2.6072   10 B    0 0 0
  84 O    1     2.3880     4.5126   80 O   -1 0 0
  84 O    1     2.3881     4.5128   82 O   -1 0 0
  84 O    1     2.5409     4.8016   72 C    0 0 0
  84 O    1     2.5410     4.8019   60 C   -1 0 0


 SYMMETRY ALLOWED INTERNAL DEGREE(S) OF FREEDOM: 249
 TTTTTTTTTTTTTTTTTTTTTTTTTTTTTT SYMM        TELAPSE        2.46 TCPU        2.46
 TTTTTTTTTTTTTTTTTTTTTTTTTTTTTT INT_SCREEN  TELAPSE        2.66 TCPU        2.66

 DFT PARAMETERS

     ATOM       ELECTRONS   NET CHARGE   R(ANGSTROM)
   1   5  B       5.0000      0.0000     0.89000000
  13   1  H       1.0000      0.0000     1.11000000
  37   6  C       6.0000      0.0000     0.77000000
  73   8  O       8.0000      0.0000     0.74000000

 SIZE OF GRID=    2640237
 TTTTTTTTTTTTTTTTTTTTTTTTTTTTTT MAKE_GRID2  TELAPSE       20.26 TCPU       20.22
 BECKE WEIGHT FUNCTION
 RADSAFE =     2.00
 TOLERANCES - DENSITY:10**- 6; POTENTIAL:10**- 9; GRID WGT:10**-14

 RADIAL INTEGRATION  - INTERVALS (POINTS,UPPER LIMIT):            1( 75,  4.0*R)

 ANGULAR INTEGRATION - INTERVALS (ACCURACY LEVEL [N. POINTS] UPPER LIMIT):
  1(  4[  86]   0.2)  2(  8[ 194]   0.5)  3( 12[ 350]   0.9)  4( 16[ 974]   3.5)
  5( 12[ 350]9999.0)
 TTTTTTTTTTTTTTTTTTTTTTTTTTTTTT INT_CALC    TELAPSE       20.49 TCPU       20.46
 EEEEEEEEEE INT_CALC TERMINATION  DATE 19 02 2026 TIME 20:25:22.0

 *******************************************************************************
 cof-1_z40_L050_serr                                                             
 CRYSTAL - SCF - TYPE OF CALCULATION :  RESTRICTED CLOSED SHELL
 *******************************************************************************

 CAPPA:IS1  2;IS2  2;IS3  8; K PTS MONK NET  20; SYMMOPS:K SPACE   2;G SPACE   1

 TTTTTTTTTTTTTTTTTTTTTTTTTTTTTT SDIK        TELAPSE       23.22 TCPU       47.40

 AAAAAAAAAAAAAAAAAAAAAAAAAAAAAAAAAAAAAAAAAAAAAAAAAAAAAAAAAAAAAAAAAAAAAAAAAAAAAAA
         ATOMIC WAVEFUNCTION(S)


 NUCLEAR CHARGE  5.0  SYMMETRY SPECIES            S    P
 N. ELECTRONS    5.0  NUMBER OF PRIMITIVE GTOS    8    4
                      NUMBER OF CONTRACTED GTOS   4    2
                      NUMBER OF CLOSED SHELLS     2    0
                      OPEN SHELL OCCUPATION       0    1

  ZNUC  SCFIT    TOTAL HF ENERGY   KINETIC ENERGY   VIRIAL THEOREM ACCURACY
   5.0    11    -2.451164084E+01  2.462155050E+01 -1.995536038E+00  1.5E-06

 NUCLEAR CHARGE  1.0  SYMMETRY SPECIES            S
 N. ELECTRONS    1.0  NUMBER OF PRIMITIVE GTOS    4
                      NUMBER OF CONTRACTED GTOS   2
                      NUMBER OF CLOSED SHELLS     0
                      OPEN SHELL OCCUPATION       1

  ZNUC  SCFIT    TOTAL HF ENERGY   KINETIC ENERGY   VIRIAL THEOREM ACCURACY
   1.0     1    -4.977266687E-01  5.190767460E-01 -1.958869132E+00  0.0E+00

 NUCLEAR CHARGE  6.0  SYMMETRY SPECIES            S    P
 N. ELECTRONS    6.0  NUMBER OF PRIMITIVE GTOS    8    4
                      NUMBER OF CONTRACTED GTOS   4    2
                      NUMBER OF CLOSED SHELLS     2    0
                      OPEN SHELL OCCUPATION       0    2

  ZNUC  SCFIT    TOTAL HF ENERGY   KINETIC ENERGY   VIRIAL THEOREM ACCURACY
   6.0     9    -3.766704647E+01  3.775180683E+01 -1.997754800E+00  1.1E-06

 NUCLEAR CHARGE  8.0  SYMMETRY SPECIES            S    P
 N. ELECTRONS    8.0  NUMBER OF PRIMITIVE GTOS    8    4
                      NUMBER OF CONTRACTED GTOS   4    2
                      NUMBER OF CLOSED SHELLS     2    0
                      OPEN SHELL OCCUPATION       0    4

  ZNUC  SCFIT    TOTAL HF ENERGY   KINETIC ENERGY   VIRIAL THEOREM ACCURACY
   8.0    12    -7.477373220E+01  7.477365593E+01 -2.000001020E+00  3.8E-06

 AAAAAAAAAAAAAAAAAAAAAAAAAAAAAAAAAAAAAAAAAAAAAAAAAAAAAAAAAAAAAAAAAAAAAAAAAAAAAAA

 CHARGE NORMALIZATION FACTOR   1.00000000
 TOTAL ATOMIC CHARGES:
   5.0000000   5.0000000   5.0000000   5.0000000   5.0000000   5.0000000
   5.0000000   5.0000000   5.0000000   5.0000000   5.0000000   5.0000000
   1.0000000   1.0000000   1.0000000   1.0000000   1.0000000   1.0000000
   1.0000000   1.0000000   1.0000000   1.0000000   1.0000000   1.0000000
   1.0000000   1.0000000   1.0000000   1.0000000   1.0000000   1.0000000
   1.0000000   1.0000000   1.0000000   1.0000000   1.0000000   1.0000000
   6.0000000   6.0000000   6.0000000   6.0000000   6.0000000   6.0000000
   6.0000000   6.0000000   6.0000000   6.0000000   6.0000000   6.0000000
   6.0000000   6.0000000   6.0000000   6.0000000   6.0000000   6.0000000
   6.0000000   6.0000000   6.0000000   6.0000000   6.0000000   6.0000000
   6.0000000   6.0000000   6.0000000   6.0000000   6.0000000   6.0000000
   6.0000000   6.0000000   6.0000000   6.0000000   6.0000000   6.0000000
   8.0000000   8.0000000   8.0000000   8.0000000   8.0000000   8.0000000
   8.0000000   8.0000000   8.0000000   8.0000000   8.0000000   8.0000000
 TTTTTTTTTTTTTTTTTTTTTTTTTTTTTT MOQGAD      TELAPSE       23.38 TCPU       49.91
 TTTTTTTTTTTTTTTTTTTTTTTTTTTTTT SHELLXN     TELAPSE       46.89 TCPU      473.50
 TTTTTTTTTTTTTTTTTTTTTTTTTTTTTT MONMO3      TELAPSE       48.02 TCPU      496.06
 NUMERICALLY INTEGRATED DENSITY    396.0000051222
 TTTTTTTTTTTTTTTTTTTTTTTTTTTTTT NUMDFT      TELAPSE       50.15 TCPU      538.66
 CYC   0 ETOT(AU) -2.591911984123E+03 DETOT -2.59E+03 tst  0.00E+00 PX  1.00E+00
 TTTTTTTTTTTTTTTTTTTTTTTTTTTTTT DIIS        TELAPSE       50.35 TCPU      542.46
 TTTTTTTTTTTTTTTTTTTTTTTTTTTTTT FDIK        TELAPSE       52.46 TCPU      606.29
 INSULATING STATE
 TOP OF VALENCE BANDS -    BAND    198; K    4; EIG -3.1432085E-01 AU
 TOP OF VALENCE BANDS -    BAND    198; K    1; EIG -3.1452440E-01 AU
 BOTTOM OF VIRTUAL BANDS - BAND    199; K    1; EIG -1.6260929E-01 AU
 INDIRECT ENERGY BAND GAP:   4.1283 eV
 TTTTTTTTTTTTTTTTTTTTTTTTTTTTTT PDIG        TELAPSE       53.96 TCPU      613.16
 CHARGE NORMALIZATION FACTOR   1.00000000
 TOTAL ATOMIC CHARGES:
   4.1487412   4.1626492   4.1675962   4.1662150   4.1678440   4.1664636
   4.1660467   4.1674432   4.1658270   4.1672189   4.1622650   4.1483724
   0.7851632   0.7851878   0.7853027   0.7852791   0.7848352   0.7850030
   0.7851224   0.7849554   0.7854852   0.7853562   0.7855256   0.7856503
   0.7854748   0.7853456   0.7854892   0.7856131   0.7848382   0.7850051
   0.7851869   0.7850196   0.7851153   0.7851395   0.7852965   0.7852721
   6.0443337   6.0429482   6.2660822   6.2654630   6.2654285   6.2660440
   6.2653680   6.2647417   6.2646830   6.2653147   6.0422279   6.0436063
   6.0482670   6.0423434   6.2647205   6.2634566   6.2635427   6.2647953
   6.2646311   6.2633625   6.2635587   6.2648091   6.0411341   6.0470293
   6.0446961   6.0433013   6.2651419   6.2645123   6.2650546   6.2656880
   6.2657156   6.2650939   6.2657064   6.2663218   6.0417617   6.0431429
   8.6947045   8.6908506   8.6948086   8.6909645   8.6933530   8.6908088
   8.6912826   8.6951316   8.6912143   8.6937449   8.6914538   8.6953106
 TTTTTTTTTTTTTTTTTTTTTTTTTTTTTT MOQGAD      TELAPSE       54.04 TCPU      613.24
 TTTTTTTTTTTTTTTTTTTTTTTTTTTTTT SHELLXN     TELAPSE       67.60 TCPU     1045.61
 TTTTTTTTTTTTTTTTTTTTTTTTTTTTTT MONMO3      TELAPSE       68.13 TCPU     1062.42
 NUMERICALLY INTEGRATED DENSITY    396.0000211104
 TTTTTTTTTTTTTTTTTTTTTTTTTTTTTT NUMDFT      TELAPSE       69.49 TCPU     1105.78
 CYC   1 ETOT(AU) -2.577636256987E+03 DETOT  1.43E+01 tst  0.00E+00 PX  1.00E+00
 TTTTTTTTTTTTTTTTTTTTTTTTTTTTTT DIIS        TELAPSE       69.61 TCPU     1109.89
 DIIS TEST: 0.22007E+01 AT SCF   CYCLE   1 - MIX   30 %
 TTTTTTTTTTTTTTTTTTTTTTTTTTTTTT FDIK        TELAPSE       71.43 TCPU     1167.89
 INSULATING STATE
 TOP OF VALENCE BANDS -    BAND    198; K    4; EIG -2.2788291E-01 AU
 TOP OF VALENCE BANDS -    BAND    198; K    1; EIG -2.2808926E-01 AU
 BOTTOM OF VIRTUAL BANDS - BAND    199; K    1; EIG -8.7042868E-02 AU
 INDIRECT ENERGY BAND GAP:   3.8325 eV
 TTTTTTTTTTTTTTTTTTTTTTTTTTTTTT PDIG        TELAPSE       72.93 TCPU     1174.77
 CHARGE NORMALIZATION FACTOR   1.00000000
 TOTAL ATOMIC CHARGES:
   4.6856856   4.6997992   4.6875572   4.7162890   4.6875344   4.7163182
   4.7164491   4.6876814   4.7164221   4.6876564   4.6998978   4.6856179
   0.9118096   0.9041574   0.9042080   0.9118117   0.9159178   0.9139554
   0.9139873   0.9160372   0.9053221   0.8992566   0.8991948   0.9054104
   0.9053003   0.8992425   0.8991879   0.9053572   0.9159262   0.9139519
   0.9140588   0.9161110   0.9117461   0.9041039   0.9042192   0.9118094
   5.8564977   5.8776426   6.1432328   6.1319699   6.1323756   6.1436310
   6.1297711   6.1443977   6.1450157   6.1305404   5.8802882   5.8591053
   5.8975615   5.8690478   6.1468116   6.1301512   6.1311124   6.1474279
   6.1469714   6.1303930   6.1309692   6.1475127   5.8721572   5.9005646
   5.8564366   5.8775930   6.1298396   6.1444504   6.1448846   6.1304272
   6.1434385   6.1321937   6.1321153   6.1433512   5.8805094   5.8592859
   8.3391345   8.3268717   8.3394925   8.3272383   8.3348475   8.3385910
   8.3267238   8.3389365   8.3383215   8.3347693   8.3270942   8.3393139
 TTTTTTTTTTTTTTTTTTTTTTTTTTTTTT MOQGAD      TELAPSE       73.01 TCPU     1174.86
 TTTTTTTTTTTTTTTTTTTTTTTTTTTTTT SHELLXN     TELAPSE       86.58 TCPU     1607.44
 TTTTTTTTTTTTTTTTTTTTTTTTTTTTTT MONMO3      TELAPSE       87.11 TCPU     1624.24
 NUMERICALLY INTEGRATED DENSITY    396.0000241485
 TTTTTTTTTTTTTTTTTTTTTTTTTTTTTT NUMDFT      TELAPSE       88.46 TCPU     1667.44
 CYC   2 ETOT(AU) -2.578025061669E+03 DETOT -3.89E-01 tst  3.55E-03 PX  1.59E-01
 TTTTTTTTTTTTTTTTTTTTTTTTTTTTTT DIIS        TELAPSE       88.61 TCPU     1672.14
 DIIS TEST: 0.90539E+00 AT SCF   CYCLE   2 - DIIS ACTIVE - HISTORY:     2 CYCLES
 TTTTTTTTTTTTTTTTTTTTTTTTTTTTTT FDIK        TELAPSE       90.42 TCPU     1729.96
 INSULATING STATE
 TOP OF VALENCE BANDS -    BAND    198; K    4; EIG -2.3986506E-01 AU
 TOP OF VALENCE BANDS -    BAND    198; K    1; EIG -2.3988489E-01 AU
 BOTTOM OF VIRTUAL BANDS - BAND    199; K    1; EIG -8.3664444E-02 AU
 INDIRECT ENERGY BAND GAP:   4.2504 eV
 TTTTTTTTTTTTTTTTTTTTTTTTTTTTTT PDIG        TELAPSE       91.91 TCPU     1736.84
 CHARGE NORMALIZATION FACTOR   1.00000000
 TOTAL ATOMIC CHARGES:
   4.4799574   4.4961604   4.4938748   4.5088761   4.4939766   4.5090117
   4.5086570   4.4936786   4.5084896   4.4935067   4.4957473   4.4797302
   0.8898281   0.8839766   0.8840772   0.8900608   0.8918655   0.8923882
   0.8925343   0.8919541   0.8850704   0.8789162   0.8792880   0.8851689
   0.8850993   0.8789323   0.8792482   0.8850662   0.8918819   0.8923991
   0.8925817   0.8920190   0.8898188   0.8839854   0.8840381   0.8900055
   5.9048989   5.8835119   6.1592558   6.1636611   6.1633931   6.1590394
   6.1635176   6.1500898   6.1494301   6.1625590   5.8827416   5.9040799
   5.8994852   5.8988666   6.1602819   6.1673854   6.1670742   6.1600465
   6.1603135   6.1675841   6.1669115   6.1601466   5.8976515   5.8985659
   5.9052133   5.8838086   6.1634568   6.1500052   6.1495925   6.1626767
   6.1591577   6.1635259   6.1634054   6.1590881   5.8824631   5.9037987
   8.5141227   8.5113885   8.5142676   8.5115965   8.5190801   8.5047276
   8.5116141   8.5144505   8.5048787   8.5188811   8.5117927   8.5146472
 TTTTTTTTTTTTTTTTTTTTTTTTTTTTTT MOQGAD      TELAPSE       92.00 TCPU     1736.92
 TTTTTTTTTTTTTTTTTTTTTTTTTTTTTT SHELLXN     TELAPSE      105.56 TCPU     2169.37
 TTTTTTTTTTTTTTTTTTTTTTTTTTTTTT MONMO3      TELAPSE      106.08 TCPU     2186.18
 NUMERICALLY INTEGRATED DENSITY    396.0000241861
 TTTTTTTTTTTTTTTTTTTTTTTTTTTTTT NUMDFT      TELAPSE      107.44 TCPU     2229.52
 CYC   3 ETOT(AU) -2.578211909973E+03 DETOT -1.87E-01 tst  5.68E-04 PX  6.61E-02
 TTTTTTTTTTTTTTTTTTTTTTTTTTTTTT DIIS        TELAPSE      107.61 TCPU     2234.97
 DIIS TEST: 0.29998E-01 AT SCF   CYCLE   3 - DIIS ACTIVE - HISTORY:     3 CYCLES
 TTTTTTTTTTTTTTTTTTTTTTTTTTTTTT FDIK        TELAPSE      109.42 TCPU     2292.95
 INSULATING STATE
 TOP OF VALENCE BANDS -    BAND    198; K    1; EIG -2.4988465E-01 AU
 BOTTOM OF VIRTUAL BANDS - BAND    199; K    1; EIG -9.1446938E-02 AU
 DIRECT ENERGY BAND GAP:   4.3113 eV
 TTTTTTTTTTTTTTTTTTTTTTTTTTTTTT PDIG        TELAPSE      110.91 TCPU     2299.81
 CHARGE NORMALIZATION FACTOR   1.00000000
 TOTAL ATOMIC CHARGES:
   4.4890819   4.4984047   4.4981689   4.5118929   4.4982583   4.5120291
   4.5119008   4.4981092   4.5117313   4.4979476   4.4982748   4.4888398
   0.8723476   0.8679382   0.8680498   0.8723823   0.8774588   0.8724378
   0.8724444   0.8775199   0.8660858   0.8636522   0.8635778   0.8662659
   0.8661025   0.8636749   0.8635347   0.8661610   0.8774947   0.8724527
   0.8724994   0.8775697   0.8723308   0.8679200   0.8680255   0.8723417
   5.9256574   5.9472130   6.1737350   6.1637979   6.1640842   6.1738847
   6.1562850   6.1776269   6.1785940   6.1576972   5.9497202   5.9280357
   5.9677116   5.9290064   6.1780941   6.1630937   6.1641320   6.1787160
   6.1780346   6.1631688   6.1640913   6.1789676   5.9315050   5.9698633
   5.9256885   5.9472631   6.1561933   6.1775106   6.1787060   6.1578185
   6.1736235   6.1637318   6.1641035   6.1739060   5.9497619   5.9280298
   8.4835554   8.4725891   8.4838255   8.4728825   8.4770425   8.4829520
   8.4726367   8.4834264   8.4829456   8.4774983   8.4729373   8.4837489
 TTTTTTTTTTTTTTTTTTTTTTTTTTTTTT MOQGAD      TELAPSE      111.00 TCPU     2299.90
 TTTTTTTTTTTTTTTTTTTTTTTTTTTTTT SHELLXN     TELAPSE      124.56 TCPU     2732.39
 TTTTTTTTTTTTTTTTTTTTTTTTTTTTTT MONMO3      TELAPSE      125.09 TCPU     2749.21
 NUMERICALLY INTEGRATED DENSITY    396.0000238055
 TTTTTTTTTTTTTTTTTTTTTTTTTTTTTT NUMDFT      TELAPSE      126.44 TCPU     2792.60
 CYC   4 ETOT(AU) -2.578217937207E+03 DETOT -6.03E-03 tst  2.80E-05 PX  1.60E-02
 TTTTTTTTTTTTTTTTTTTTTTTTTTTTTT DIIS        TELAPSE      126.63 TCPU     2798.69
 DIIS TEST: 0.10108E-01 AT SCF   CYCLE   4 - DIIS ACTIVE - HISTORY:     4 CYCLES
 TTTTTTTTTTTTTTTTTTTTTTTTTTTTTT FDIK        TELAPSE      128.45 TCPU     2856.65
 INSULATING STATE
 TOP OF VALENCE BANDS -    BAND    198; K    1; EIG -2.4854127E-01 AU
 BOTTOM OF VIRTUAL BANDS - BAND    199; K    1; EIG -9.1459438E-02 AU
 DIRECT ENERGY BAND GAP:   4.2744 eV
 TTTTTTTTTTTTTTTTTTTTTTTTTTTTTT PDIG        TELAPSE      129.95 TCPU     2863.53
 CHARGE NORMALIZATION FACTOR   1.00000000
 TOTAL ATOMIC CHARGES:
   4.4886564   4.5022610   4.4982349   4.5165982   4.4983230   4.5167275
   4.5165488   4.4982065   4.5163939   4.4980483   4.5020259   4.4885056
   0.8750625   0.8698177   0.8699140   0.8752215   0.8784906   0.8771366
   0.8773164   0.8786509   0.8698536   0.8646167   0.8648977   0.8699701
   0.8698629   0.8646192   0.8648698   0.8698780   0.8785100   0.8771451
   0.8773728   0.8787193   0.8750341   0.8698039   0.8698935   0.8751855
   5.9262504   5.9214192   6.1684388   6.1687547   6.1686629   6.1684368
   6.1702774   6.1625807   6.1619225   6.1693836   5.9210003   5.9258014
   5.9346136   5.9323599   6.1704451   6.1714400   6.1713855   6.1703154
   6.1705016   6.1716601   6.1712142   6.1704240   5.9318170   5.9343086
   5.9264736   5.9216372   6.1702303   6.1625145   6.1620232   6.1694559
   6.1684103   6.1687028   6.1686135   6.1684145   5.9208377   5.9256224
   8.4894002   8.4850385   8.4895887   8.4852803   8.4929132   8.4832236
   8.4851550   8.4896206   8.4832243   8.4926002   8.4853770   8.4898568
 TTTTTTTTTTTTTTTTTTTTTTTTTTTTTT MOQGAD      TELAPSE      130.03 TCPU     2863.62
 TTTTTTTTTTTTTTTTTTTTTTTTTTTTTT SHELLXN     TELAPSE      143.60 TCPU     3296.17
 TTTTTTTTTTTTTTTTTTTTTTTTTTTTTT MONMO3      TELAPSE      144.12 TCPU     3312.97
 NUMERICALLY INTEGRATED DENSITY    396.0000238537
 TTTTTTTTTTTTTTTTTTTTTTTTTTTTTT NUMDFT      TELAPSE      145.48 TCPU     3356.32
 CYC   5 ETOT(AU) -2.578220125427E+03 DETOT -2.19E-03 tst  1.14E-05 PX  8.92E-03
 TTTTTTTTTTTTTTTTTTTTTTTTTTTTTT DIIS        TELAPSE      145.69 TCPU     3363.12
 DIIS TEST: 0.87039E-03 AT SCF   CYCLE   5 - DIIS ACTIVE - HISTORY:     5 CYCLES
 TTTTTTTTTTTTTTTTTTTTTTTTTTTTTT FDIK        TELAPSE      147.51 TCPU     3421.03
 INSULATING STATE
 TOP OF VALENCE BANDS -    BAND    198; K    1; EIG -2.4798990E-01 AU
 BOTTOM OF VIRTUAL BANDS - BAND    199; K    1; EIG -9.0939676E-02 AU
 DIRECT ENERGY BAND GAP:   4.2736 eV
 TTTTTTTTTTTTTTTTTTTTTTTTTTTTTT PDIG        TELAPSE      149.02 TCPU     3427.91
 CHARGE NORMALIZATION FACTOR   1.00000000
 TOTAL ATOMIC CHARGES:
   4.4893667   4.5018192   4.4987598   4.5156337   4.4988459   4.5157668
   4.5155714   4.4986461   4.5154105   4.4984895   4.5016166   4.4891391
   0.8762982   0.8711027   0.8712204   0.8764037   0.8804218   0.8775464
   0.8775823   0.8804907   0.8707037   0.8664148   0.8664811   0.8708617
   0.8707219   0.8664332   0.8664410   0.8707592   0.8804503   0.8775585
   0.8776365   0.8805475   0.8762804   0.8710911   0.8711946   0.8763615
   5.9186856   5.9220207   6.1719555   6.1647960   6.1648556   6.1719418
   6.1599180   6.1699083   6.1704743   6.1606965   5.9235576   5.9201101
   5.9431945   5.9162303   6.1743610   6.1658944   6.1665014   6.1747043
   6.1743279   6.1660078   6.1664236   6.1749108   5.9175154   5.9443353
   5.9188199   5.9221610   6.1598415   6.1698085   6.1706005   6.1608125
   6.1718501   6.1647038   6.1648691   6.1719718   5.9234836   5.9200060
   8.4931027   8.4842285   8.4933305   8.4844946   8.4897068   8.4886368
   8.4843416   8.4931150   8.4887154   8.4900150   8.4845973   8.4933927
 TTTTTTTTTTTTTTTTTTTTTTTTTTTTTT MOQGAD      TELAPSE      149.11 TCPU     3428.00
 TTTTTTTTTTTTTTTTTTTTTTTTTTTTTT SHELLXN     TELAPSE      162.67 TCPU     3860.52
 TTTTTTTTTTTTTTTTTTTTTTTTTTTTTT MONMO3      TELAPSE      163.19 TCPU     3877.31
 NUMERICALLY INTEGRATED DENSITY    396.0000238859
 TTTTTTTTTTTTTTTTTTTTTTTTTTTTTT NUMDFT      TELAPSE      164.55 TCPU     3920.62
 CYC   6 ETOT(AU) -2.578220245846E+03 DETOT -1.20E-04 tst  4.95E-06 PX  3.79E-03
 TTTTTTTTTTTTTTTTTTTTTTTTTTTTTT DIIS        TELAPSE      164.79 TCPU     3927.38
 DIIS TEST: 0.45725E-03 AT SCF   CYCLE   6 - DIIS ACTIVE - HISTORY:     6 CYCLES
 TTTTTTTTTTTTTTTTTTTTTTTTTTTTTT FDIK        TELAPSE      166.60 TCPU     3985.23
 INSULATING STATE
 TOP OF VALENCE BANDS -    BAND    198; K    1; EIG -2.4813880E-01 AU
 BOTTOM OF VIRTUAL BANDS - BAND    199; K    1; EIG -9.0811948E-02 AU
 DIRECT ENERGY BAND GAP:   4.2811 eV
 TTTTTTTTTTTTTTTTTTTTTTTTTTTTTT PDIG        TELAPSE      168.10 TCPU     3992.10
 CHARGE NORMALIZATION FACTOR   1.00000000
 TOTAL ATOMIC CHARGES:
   4.4890855   4.5019530   4.4988586   4.5157221   4.4989474   4.5158540
   4.5156595   4.4987824   4.5154998   4.4986233   4.5017213   4.4888797
   0.8764590   0.8709619   0.8710631   0.8765801   0.8801047   0.8778778
   0.8779840   0.8802170   0.8709732   0.8662995   0.8664559   0.8711081
   0.8709883   0.8663117   0.8664211   0.8710095   0.8801302   0.8778898
   0.8780377   0.8802773   0.8764382   0.8709503   0.8710384   0.8765396
   5.9205474   5.9229695   6.1690212   6.1669405   6.1669749   6.1690502
   6.1638485   6.1667917   6.1667640   6.1638400   5.9236460   5.9211487
   5.9390220   5.9230649   6.1719126   6.1680633   6.1684010   6.1720673
   6.1719185   6.1682243   6.1682809   6.1722308   5.9236106   5.9395909
   5.9207127   5.9231372   6.1637795   6.1666989   6.1668853   6.1639441
   6.1689440   6.1668658   6.1669646   6.1690588   5.9235422   5.9210174
   8.4911994   8.4843652   8.4914125   8.4846213   8.4910628   8.4864856
   8.4844817   8.4913077   8.4865097   8.4910741   8.4847264   8.4915703
 TTTTTTTTTTTTTTTTTTTTTTTTTTTTTT MOQGAD      TELAPSE      168.19 TCPU     3992.19
 TTTTTTTTTTTTTTTTTTTTTTTTTTTTTT SHELLXN     TELAPSE      181.75 TCPU     4424.61
 TTTTTTTTTTTTTTTTTTTTTTTTTTTTTT MONMO3      TELAPSE      182.28 TCPU     4441.40
 NUMERICALLY INTEGRATED DENSITY    396.0000238902
 TTTTTTTTTTTTTTTTTTTTTTTTTTTTTT NUMDFT      TELAPSE      183.63 TCPU     4484.73
 CYC   7 ETOT(AU) -2.578220357579E+03 DETOT -1.12E-04 tst  1.06E-06 PX  1.58E-03
 TTTTTTTTTTTTTTTTTTTTTTTTTTTTTT DIIS        TELAPSE      183.89 TCPU     4491.55
 DIIS TEST: 0.90107E-05 AT SCF   CYCLE   7 - DIIS ACTIVE - HISTORY:     7 CYCLES
 TTTTTTTTTTTTTTTTTTTTTTTTTTTTTT FDIK        TELAPSE      185.71 TCPU     4549.48
 INSULATING STATE
 TOP OF VALENCE BANDS -    BAND    198; K    1; EIG -2.4811850E-01 AU
 BOTTOM OF VIRTUAL BANDS - BAND    199; K    1; EIG -9.0889715E-02 AU
 DIRECT ENERGY BAND GAP:   4.2784 eV
 TTTTTTTTTTTTTTTTTTTTTTTTTTTTTT PDIG        TELAPSE      187.20 TCPU     4556.35
 CHARGE NORMALIZATION FACTOR   1.00000000
 TOTAL ATOMIC CHARGES:
   4.4891366   4.5019984   4.4988284   4.5158866   4.4989165   4.5160183
   4.5158260   4.4987508   4.5156669   4.4985925   4.5017754   4.4889377
   0.8763455   0.8710539   0.8711604   0.8764718   0.8800606   0.8778833
   0.8779816   0.8801666   0.8708626   0.8661941   0.8663505   0.8710012
   0.8708778   0.8662064   0.8663154   0.8709024   0.8800855   0.8778944
   0.8780362   0.8802279   0.8763241   0.8710423   0.8711362   0.8764315
   5.9215798   5.9219746   6.1698301   6.1661841   6.1661890   6.1698310
   6.1639067   6.1664649   6.1664942   6.1639578   5.9226824   5.9222103
   5.9396000   5.9228633   6.1722105   6.1678577   6.1681884   6.1723574
   6.1722161   6.1680173   6.1680697   6.1725221   5.9233923   5.9401466
   5.9217502   5.9221464   6.1638412   6.1663777   6.1666108   6.1640566
   6.1697567   6.1661090   6.1661764   6.1698390   5.9225729   5.9220759
   8.4913025   8.4843894   8.4915144   8.4846457   8.4908838   8.4862928
   8.4845025   8.4914033   8.4863328   8.4909179   8.4847453   8.4916646
 TTTTTTTTTTTTTTTTTTTTTTTTTTTTTT MOQGAD      TELAPSE      187.29 TCPU     4556.44
 TTTTTTTTTTTTTTTTTTTTTTTTTTTTTT SHELLXN     TELAPSE      200.85 TCPU     4988.79
 TTTTTTTTTTTTTTTTTTTTTTTTTTTTTT MONMO3      TELAPSE      201.37 TCPU     5005.58
 NUMERICALLY INTEGRATED DENSITY    396.0000238880
 TTTTTTTTTTTTTTTTTTTTTTTTTTTTTT NUMDFT      TELAPSE      202.73 TCPU     5048.93
 CYC   8 ETOT(AU) -2.578220359247E+03 DETOT -1.67E-06 tst  3.73E-08 PX  2.55E-04
 TTTTTTTTTTTTTTTTTTTTTTTTTTTTTT DIIS        TELAPSE      203.01 TCPU     5055.72
 DIIS TEST: 0.15734E-05 AT SCF   CYCLE   8 - DIIS ACTIVE - HISTORY:     8 CYCLES
 TTTTTTTTTTTTTTTTTTTTTTTTTTTTTT FDIK        TELAPSE      204.83 TCPU     5113.58
 INSULATING STATE
 TOP OF VALENCE BANDS -    BAND    198; K    1; EIG -2.4812376E-01 AU
 BOTTOM OF VIRTUAL BANDS - BAND    199; K    1; EIG -9.0887102E-02 AU
 DIRECT ENERGY BAND GAP:   4.2786 eV
 TTTTTTTTTTTTTTTTTTTTTTTTTTTTTT PDIG        TELAPSE      206.31 TCPU     5120.44
 CHARGE NORMALIZATION FACTOR   1.00000000
 TOTAL ATOMIC CHARGES:
   4.4891659   4.5020173   4.4988104   4.5159298   4.4988981   4.5160614
   4.5158699   4.4987329   4.5157109   4.4985748   4.5017945   4.4889659
   0.8763392   0.8710121   0.8711181   0.8764641   0.8800813   0.8778417
   0.8779402   0.8801882   0.8708514   0.8661979   0.8663523   0.8709902
   0.8708666   0.8662103   0.8663171   0.8708914   0.8801065   0.8778529
   0.8779947   0.8802492   0.8763180   0.8710004   0.8710938   0.8764238
   5.9211874   5.9222747   6.1696421   6.1663818   6.1663931   6.1696477
   6.1638345   6.1665942   6.1666248   6.1638909   5.9229922   5.9218269
   5.9394107   5.9229554   6.1721649   6.1678806   6.1682181   6.1723162
   6.1721689   6.1680392   6.1681008   6.1724825   5.9235005   5.9399708
   5.9213555   5.9224449   6.1637685   6.1665057   6.1667422   6.1639907
   6.1695670   6.1663068   6.1663816   6.1696563   5.9228850   5.9216942
   8.4913210   8.4844000   8.4915338   8.4846564   8.4909477   8.4863563
   8.4845142   8.4914215   8.4863936   8.4909844   8.4847576   8.4916833
 TTTTTTTTTTTTTTTTTTTTTTTTTTTTTT MOQGAD      TELAPSE      206.40 TCPU     5120.53
 TTTTTTTTTTTTTTTTTTTTTTTTTTTTTT SHELLXN     TELAPSE      219.96 TCPU     5553.06
 TTTTTTTTTTTTTTTTTTTTTTTTTTTTTT MONMO3      TELAPSE      220.49 TCPU     5569.86
 NUMERICALLY INTEGRATED DENSITY    396.0000238874
 TTTTTTTTTTTTTTTTTTTTTTTTTTTTTT NUMDFT      TELAPSE      221.85 TCPU     5613.17
 CYC   9 ETOT(AU) -2.578220359404E+03 DETOT -1.57E-07 tst  5.04E-09 PX  1.02E-04
 TTTTTTTTTTTTTTTTTTTTTTTTTTTTTT DIIS        TELAPSE      222.15 TCPU     5620.02
 DIIS TEST: 0.31124E-07 AT SCF   CYCLE   9 - DIIS ACTIVE - HISTORY:     9 CYCLES
 TTTTTTTTTTTTTTTTTTTTTTTTTTTTTT FDIK        TELAPSE      223.97 TCPU     5678.03
 INSULATING STATE
 TOP OF VALENCE BANDS -    BAND    198; K    1; EIG -2.4812497E-01 AU
 BOTTOM OF VIRTUAL BANDS - BAND    199; K    1; EIG -9.0883316E-02 AU
 DIRECT ENERGY BAND GAP:   4.2788 eV
 TTTTTTTTTTTTTTTTTTTTTTTTTTTTTT PDIG        TELAPSE      225.47 TCPU     5684.91
 CHARGE NORMALIZATION FACTOR   1.00000000
 TOTAL ATOMIC CHARGES:
   4.4891537   4.5020130   4.4988161   4.5158954   4.4989041   4.5160271
   4.5158350   4.4987394   4.5156759   4.4985811   4.5017884   4.4889530
   0.8763454   0.8710051   0.8711099   0.8764698   0.8800690   0.8778427
   0.8779438   0.8801777   0.8708558   0.8661957   0.8663519   0.8709933
   0.8708708   0.8662079   0.8663170   0.8708946   0.8800942   0.8778541
   0.8779981   0.8802386   0.8763242   0.8709934   0.8710856   0.8764295
   5.9212520   5.9222609   6.1696155   6.1664084   6.1664237   6.1696265
   6.1638565   6.1666062   6.1666172   6.1638885   5.9229581   5.9218727
   5.9394544   5.9228784   6.1721647   6.1679136   6.1682477   6.1723149
   6.1721707   6.1680738   6.1681285   6.1724792   5.9234124   5.9400083
   5.9214208   5.9224314   6.1637898   6.1665171   6.1667354   6.1639892
   6.1695409   6.1663336   6.1664117   6.1696346   5.9228503   5.9217393
   8.4913067   8.4843904   8.4915189   8.4846467   8.4909576   8.4863745
   8.4845048   8.4914100   8.4864089   8.4909847   8.4847482   8.4916715
 TTTTTTTTTTTTTTTTTTTTTTTTTTTTTT MOQGAD      TELAPSE      225.56 TCPU     5685.00
 TTTTTTTTTTTTTTTTTTTTTTTTTTTTTT SHELLXN     TELAPSE      239.11 TCPU     6117.39
 +++ ENERGIES IN A.U. +++
 ::: EXT EL-POLE                                  -2.5581139196139E+03
 ::: EXT EL-SPHEROPOLE                             2.8614939375773E+01
 ::: BIELET ZONE E-E                               4.1033188560913E+03
 ::: TOTAL E-E                                     1.5738198758532E+03
 ::: TOTAL E-N + N-E                              -6.8067967728772E+03
 ::: TOTAL N-N                                     3.6232752383450E+02
 ::: KINETIC ENERGY                                2.5598625057762E+03
 ::: PSEUDO TOTAL   ENERGY                        -2.3107868674132E+03
 ::: VIRIAL COEFFICIENT                            1.0511380761124E+00
 TTTTTTTTTTTTTTTTTTTTTTTTTTTTTT MONMO3      TELAPSE      239.64 TCPU     6134.19
 NUMERICALLY INTEGRATED DENSITY    396.0000238878
 EXCHANGE ENERGY: -0.252053649943E+03  CORRELATION ENERGY: -0.153798421316E+02
 TTTTTTTTTTTTTTTTTTTTTTTTTTTTTT NUMDFT      TELAPSE      241.00 TCPU     6177.58
 CYC  10 ETOT(AU) -2.578220359488E+03 DETOT -8.43E-08 tst  1.29E-10 PX  1.02E-04

 == SCF ENDED - CONVERGENCE ON ENERGY      E(AU) -2.5782203594879E+03 CYCLES  10


 ENERGY EXPRESSION=HARTREE+FOCK EXCH*0.00000+(HSESOL     EXCH)*1.00000+PBESOL     CORR


 TOTAL ENERGY(DFT)(AU)( 10) -2.5782203594879E+03 DE-8.4E-08 tester 1.3E-10
 TTTTTTTTTTTTTTTTTTTTTTTTTTTTTT EDFT        TELAPSE      241.00 TCPU     6177.60
 
 INFORMATION **** DFTD3 ENERGY **** CALCULATE DFTD3 ENERGY

           DFT-D V3(BJ)
 DF                                         hsesol3c  
 parameters
 s6       :    1.0000
 s8       :    0.0000
 a1       :    0.5196
 a2       :    4.9385
 k1 k3    :   16.0000   -4.0000
 Cutoff   :   50.2022
 CN-Cutoff:   21.1671
 ABC-Cutoff:   21.1671
 
 Edisp /kcal,au:   -47.8127 -0.07619433

 E6    /kcal :   -50.6609
 E8    /kcal :     0.0000
 E6(ABC) "   :   2.848187
 
 INFORMATION **** DFTD3 ENERGY **** NORMAL TERMINATION OF DFTD3 MODULE

 GCP ENERGY CALCULATION
  level        hsesol3c            basis:hsesol3c
  Nbf            948
  Atoms           84

  Parameters: 
  sigma     1.0000
  eta       1.4281
  alpha     0.2936
  beta      1.9467

  dmp_scal      4.0000
  dmp_exp       6.0000
 cutoffs: 
   distance [bohr] 60.0
   noise    [a.u.] 2.2E-16
 SR-damping   T
 ** gCP correction **
  Egcp:        0.1658948275 / (a.u.) ||     104.1006 / (kcal/mol)
 INFORMATION **** GCP **** NORMAL TERMINATION OF GCP MODULE

 *******************************************************************************

 DFT-D3-GCP DISPERSION AND COUNTERPOISE CORRECTION

 D3 DISPERSION ENERGY (AU)      -7.6194327881210E-02
 GCP ENERGY (AU)                 1.6589482753518E-01
 TOTAL ENERGY + DISP + GCP (AU) -2.5781306589882E+03

 *******************************************************************************

 EIGENVECTORS IN FORTRAN UNIT  8
 TTTTTTTTTTTTTTTTTTTTTTTTTTTTTT END         TELAPSE      243.81 TCPU     6186.32
 EEEEEEEEEE TERMINATION  DATE 19 02 2026 TIME 20:29:05.3
