 Default number of threads is:           32

         
 *******************************************************************************
 *                                                                             *
 *                               CRYSTAL23                                     *
 *                      public : 1.0.1 - October 2022                          *
 *                       HTTP://WWW.CRYSTAL.UNITO.IT                           *
 *                                                                             *
 *                              MAIN AUTHORS                                   *
 *                                                                             *
 *  R. DOVESI(1,11), V.R. SAUNDERS(2), C. ROETTI(1,11), R. ORLANDO(1,11),      *
 *  C.M. ZICOVICH-WILSON(1,3), F. PASCALE(4), B. CIVALLERI(1,11),              *
 *  K. DOLL(5), N.M. HARRISON(6), I.J. BUSH(7), Ph. D'ARCO(8),                 *
 *  M. LLUNELL(9), M. CAUSA'(10), Y. NOEL(8), L. MASCHIO(1,11), A. ERBA(1,11)  *
 *  M. RE'RAT(14), S. CASASSA(1,11), B.G. SEARLE(2), J.K. DESMARAIS(1)         *
 *                                                                             *
 *        CONTRIBUTIONS TO THE CODE HAVE ALSO BEEN GIVEN BY                    *
 *                                                                             *
 *  M. FERRABONE(1,11), M. DE LA PIERRE(1,11), M. FERRERO(1,11),               *
 *  J. BAIMA(1,11), E. ALBANESE(1,11), M.F. PEINTINGER(12), R. BAST(13),       *
 *  B. KIRTMAN(15), V. LACIVITA(1,11), R. DEMICHELIS(1,16)                     *
 *  G. BRANDEBURG(17), S. SALUSTRO(1,11), G. SANSONE(1,11)                     *
 *  M.T. RUGGIERO(18), L.E. DAGA(1), L. DONA'(1), A. COSSARD(1)                *
 *                                                                             *
 * (1) THEORETICAL CHEMISTRY GROUP - UNIVERSITA' DI TORINO - TORINO (ITALY)    *
 * (2) SCIENTIFIC COMPUTING DEPARTMENT - STFC DARESBURY (UK)                   *
 * (3) UNIVERSIDAD AUTONOMA DEL ESTADO DE MORELOS - CUERNAVACA (MEXICO)        *
 * (4) UNIVERSITE' DE LORRAINE - NANCY (FRANCE)                                *
 * (5) UNIVERSITAET STUTTGART- STUTTGART (GERMANY)                             *
 * (6) IMPERIAL COLLEGE - LONDON (UK)                                          *
 * (7) SCIENTIFIC COMPUTING DEPARTMENT - STFC RAL (UK)                         *
 * (8) UPMC - SORBONNE UNIVERSITES - PARIS (FRANCE)                            *
 * (9) UNIVERSIDAD DE BARCELONA - BARCELONA (SPAIN)                            *
 *(10) UNIVERSITA' DI NAPOLI "FEDERICO II" - NAPOLI (ITALY)                    *
 *(11) NIS - NANOSTRUCTURED INTERFACES AND SURFACES - TORINO (ITALY)           *
 *(12) MPI FUER CHEMISCHE ENERGIEKONVERSION - MUELHEIM AN DER RUHR (GERMANY)   *
 *(13) UNIVERSITY OF TROMSO - TROMSO (NORWAY)                                  *
 *(14) UNIVERSITE' DE PAU ET DES PAYS DE L'ADOUR - PAU (FRANCE)                *
 *(15) UNIVERSITY OF CALIFORNIA SANTA BARBARA - SANTA BARBARA (USA)            *
 *(16) CURTIN UNIVERSITY - PERTH (AUSTRALIA)                                   *
 *(17) UNIVERSITY COLLEGE LONDON - LONDON (UK)                                 *
 *(18) UNIVERSITY OF VERMONT - BURLINGTON (USA)                                *
 *                                                                             *
 *******************************************************************************
 EEEEEEEEEE STARTING  DATE 19 02 2026 TIME 18:24:47.5
 cof-1_z35_L020_incl                                                             

 CRYSTAL CALCULATION
 (INPUT ACCORDING TO THE INTERNATIONAL TABLES FOR X-RAY CRYSTALLOGRAPHY)
 CRYSTAL FAMILY                       :  TRICLINIC   
 CRYSTAL CLASS  (GROTH - 1921)        :  TRICLINIC PEDIAL                     

 SPACE GROUP (NONCENTROSYMMETRIC)     :  P 1             

 LATTICE PARAMETERS  (ANGSTROMS AND DEGREES) - CONVENTIONAL CELL
        A           B           C        ALPHA        BETA       GAMMA
    15.02361    15.02392     4.03113    64.55265    89.99995   119.99596


 NUMBER OF IRREDUCIBLE ATOMS IN THE CONVENTIONAL CELL:   42

 INPUT COORDINATES

 ATOM AT. N.              COORDINATES
   1   5     5.751525100000E-01  1.502543400000E-01  5.013630800000E-01
   2   5     7.342081700000E-01  3.093139900000E-01  5.013631000000E-01
   3   5     5.753687500000E-01  3.097378500000E-01  4.984936200000E-01
   4   5     1.887272200000E-01  5.365693300000E-01  5.013630900000E-01
   5   5     3.478351900000E-01  5.365485700000E-01  5.013630800000E-01
   6   5     3.480359800000E-01  6.961288300000E-01  4.984936200000E-01
   7   1     8.649727500000E-01  2.327805800000E-01  4.954141000000E-01
   8   1     5.863357000000E-02  6.150438000000E-01  4.945043900000E-01
   9   1     8.649812200000E-01  5.180843000000E-01  4.943643900000E-01
  10   1     5.874330000000E-02  3.296914500000E-01  4.943993100000E-01
  11   1     6.522569700000E-01  1.944538000000E-02  5.045825500000E-01
  12   1     2.700843800000E-01  8.257387300000E-01  5.054923200000E-01
  13   1     3.670138800000E-01  1.932986000000E-02  5.056324100000E-01
  14   1     5.554588000000E-01  8.256326100000E-01  5.055972600000E-01
  15   1     6.530018700000E-01  5.179047300000E-01  4.954141500000E-01
  16   1     2.709608700000E-01  3.295996900000E-01  4.945043400000E-01
  17   1     3.678503800000E-01  2.328351400000E-01  4.943642700000E-01
  18   1     5.562979900000E-01  6.149644200000E-01  4.943994200000E-01
  19   6     8.535908600000E-01  3.693370000000E-01  4.983886300000E-01
  20   6     9.084074900000E-01  3.166146400000E-01  4.955540900000E-01
  21   6     1.532531000000E-02  5.310519500000E-01  4.953092300000E-01
  22   6     9.083328300000E-01  4.774458800000E-01  4.960440900000E-01
  23   6     1.545228000000E-02  3.702941300000E-01  4.941543600000E-01
  24   6     6.991392000000E-02  4.777839500000E-01  4.960790500000E-01
  25   6     5.154925700000E-01  3.106692000000E-02  5.016080600000E-01
  26   6     5.684131800000E-01 -2.398128000000E-02  5.044425400000E-01
  27   6     3.540151700000E-01  8.690882800000E-01  5.046875000000E-01
  28   6     4.075605500000E-01 -2.385907000000E-02  5.039526600000E-01
  29   6     5.148446200000E-01  8.688711900000E-01  5.058422600000E-01
  30   6     4.072035800000E-01  8.145355200000E-01  5.039176200000E-01
  31   6     5.157454200000E-01  3.692678700000E-01  4.983886200000E-01
  32   6     5.691285900000E-01  4.774547800000E-01  4.955541500000E-01
  33   6     3.547605700000E-01  3.700386800000E-01  4.953091700000E-01
  34   6     4.081679900000E-01  3.164436900000E-01  4.960440100000E-01
  35   6     5.157688900000E-01  5.311421500000E-01  4.941544300000E-01
  36   6     4.078380100000E-01  4.777065500000E-01  4.960790500000E-01
  37   8     5.223700000000E-01  2.036294700000E-01  4.992634700000E-01
  38   8     6.808498000000E-01  2.027066400000E-01  5.053173600000E-01
  39   8     6.815493800000E-01  3.630556400000E-01  4.961840600000E-01
  40   8     2.419578300000E-01  6.429099500000E-01  4.992635000000E-01
  41   8     2.415120700000E-01  4.830239200000E-01  5.053173600000E-01
  42   8     4.011338100000E-01  6.433676000000E-01  4.961840300000E-01

 *******************************************************************************

 << INFORMATION >>: FROM NOW ON, ALL COORDINATES REFER TO THE PRIMITIVE CELL

 *******************************************************************************

 LATTICE PARAMETERS  (ANGSTROMS AND DEGREES) - PRIMITIVE CELL
       A          B          C        ALPHA      BETA     GAMMA        VOLUME
   15.02361   15.02392    4.03113    64.55265  89.99995 119.99596    684.187756

 COORDINATES OF THE EQUIVALENT ATOMS (FRACTIONAL UNITS)

 N. ATOM EQUIV AT. N.          X                  Y                  Z

   1   1   1    5 B    -4.24847490000E-01  1.50254340000E-01 -4.98636920000E-01

   2   2   1    5 B    -2.65791830000E-01  3.09313990000E-01 -4.98636900000E-01

   3   3   1    5 B    -4.24631250000E-01  3.09737850000E-01  4.98493620000E-01

   4   4   1    5 B     1.88727220000E-01 -4.63430670000E-01 -4.98636910000E-01

   5   5   1    5 B     3.47835190000E-01 -4.63451430000E-01 -4.98636920000E-01

   6   6   1    5 B     3.48035980000E-01 -3.03871170000E-01  4.98493620000E-01

   7   7   1    1 H    -1.35027250000E-01  2.32780580000E-01  4.95414100000E-01

   8   8   1    1 H     5.86335700000E-02 -3.84956200000E-01  4.94504390000E-01

   9   9   1    1 H    -1.35018780000E-01 -4.81915700000E-01  4.94364390000E-01

  10  10   1    1 H     5.87433000000E-02  3.29691450000E-01  4.94399310000E-01

  11  11   1    1 H    -3.47743030000E-01  1.94453800000E-02 -4.95417450000E-01

  12  12   1    1 H     2.70084380000E-01 -1.74261270000E-01 -4.94507680000E-01

  13  13   1    1 H     3.67013880000E-01  1.93298600000E-02 -4.94367590000E-01

  14  14   1    1 H    -4.44541200000E-01 -1.74367390000E-01 -4.94402740000E-01

  15  15   1    1 H    -3.46998130000E-01 -4.82095270000E-01  4.95414150000E-01

  16  16   1    1 H     2.70960870000E-01  3.29599690000E-01  4.94504340000E-01

  17  17   1    1 H     3.67850380000E-01  2.32835140000E-01  4.94364270000E-01

  18  18   1    1 H    -4.43702010000E-01 -3.85035580000E-01  4.94399420000E-01

  19  19   1    6 C    -1.46409140000E-01  3.69337000000E-01  4.98388630000E-01

  20  20   1    6 C    -9.15925100000E-02  3.16614640000E-01  4.95554090000E-01

  21  21   1    6 C     1.53253100000E-02 -4.68948050000E-01  4.95309230000E-01

  22  22   1    6 C    -9.16671700000E-02  4.77445880000E-01  4.96044090000E-01

  23  23   1    6 C     1.54522800000E-02  3.70294130000E-01  4.94154360000E-01

  24  24   1    6 C     6.99139200000E-02  4.77783950000E-01  4.96079050000E-01

  25  25   1    6 C    -4.84507430000E-01  3.10669200000E-02 -4.98391940000E-01

  26  26   1    6 C    -4.31586820000E-01 -2.39812800000E-02 -4.95557460000E-01

  27  27   1    6 C     3.54015170000E-01 -1.30911720000E-01 -4.95312500000E-01

  28  28   1    6 C     4.07560550000E-01 -2.38590700000E-02 -4.96047340000E-01

  29  29   1    6 C    -4.85155380000E-01 -1.31128810000E-01 -4.94157740000E-01

  30  30   1    6 C     4.07203580000E-01 -1.85464480000E-01 -4.96082380000E-01

  31  31   1    6 C    -4.84254580000E-01  3.69267870000E-01  4.98388620000E-01

  32  32   1    6 C    -4.30871410000E-01  4.77454780000E-01  4.95554150000E-01

  33  33   1    6 C     3.54760570000E-01  3.70038680000E-01  4.95309170000E-01

  34  34   1    6 C     4.08167990000E-01  3.16443690000E-01  4.96044010000E-01

  35  35   1    6 C    -4.84231110000E-01 -4.68857850000E-01  4.94154430000E-01

  36  36   1    6 C     4.07838010000E-01  4.77706550000E-01  4.96079050000E-01

  37  37   1    8 O    -4.77630000000E-01  2.03629470000E-01  4.99263470000E-01

  38  38   1    8 O    -3.19150200000E-01  2.02706640000E-01 -4.94682640000E-01

  39  39   1    8 O    -3.18450620000E-01  3.63055640000E-01  4.96184060000E-01

  40  40   1    8 O     2.41957830000E-01 -3.57090050000E-01  4.99263500000E-01

  41  41   1    8 O     2.41512070000E-01  4.83023920000E-01 -4.94682640000E-01

  42  42   1    8 O     4.01133810000E-01 -3.56632400000E-01  4.96184030000E-01

 NUMBER OF SYMMETRY OPERATORS         :    1
 *******************************************************************************
 * GEOMETRY EDITING - INPUT COORDINATES ARE GIVEN IN ANGSTROM         
 *******************************************************************************

 GCALCO - MAX INDICES DIRECT LATTICE VECTOR     9    10    34
 NO.OF VECTORS CREATED 6999 STARS 3500 RMAX   197.38474 BOHR

 GEOMETRY FOR WAVE FUNCTION - DIMENSIONALITY OF THE SYSTEM    3
 (NON PERIODIC DIRECTION: LATTICE PARAMETER FORMALLY SET TO 500)
 *******************************************************************************
 LATTICE PARAMETERS (ANGSTROMS AND DEGREES) - BOHR = 0.5291772083 ANGSTROM
 PRIMITIVE CELL - CENTRING CODE 1/0 VOLUME=   684.187756 - DENSITY  0.947 g/cm^3
         A              B              C           ALPHA      BETA       GAMMA 
    15.02361100    15.02391600     4.03112900    64.552650  89.999951 119.995964
 *******************************************************************************
 ATOMS IN THE ASYMMETRIC UNIT   42 - ATOMS IN THE UNIT CELL:   42
     ATOM                 X/A                 Y/B                 Z/C    
 *******************************************************************************
      1 T   5 B    -4.248474900000E-01  1.502543400000E-01 -4.986369200000E-01
      2 T   5 B    -2.657918300000E-01  3.093139900000E-01 -4.986369000000E-01
      3 T   5 B    -4.246312500000E-01  3.097378500000E-01  4.984936200000E-01
      4 T   5 B     1.887272200000E-01 -4.634306700000E-01 -4.986369100000E-01
      5 T   5 B     3.478351900000E-01 -4.634514300000E-01 -4.986369200000E-01
      6 T   5 B     3.480359800000E-01 -3.038711700000E-01  4.984936200000E-01
      7 T   1 H    -1.350272500000E-01  2.327805800000E-01  4.954141000000E-01
      8 T   1 H     5.863357000000E-02 -3.849562000000E-01  4.945043900000E-01
      9 T   1 H    -1.350187800000E-01 -4.819157000000E-01  4.943643900000E-01
     10 T   1 H     5.874330000000E-02  3.296914500000E-01  4.943993100000E-01
     11 T   1 H    -3.477430300000E-01  1.944538000000E-02 -4.954174500000E-01
     12 T   1 H     2.700843800000E-01 -1.742612700000E-01 -4.945076800000E-01
     13 T   1 H     3.670138800000E-01  1.932986000000E-02 -4.943675900000E-01
     14 T   1 H    -4.445412000000E-01 -1.743673900000E-01 -4.944027400000E-01
     15 T   1 H    -3.469981300000E-01 -4.820952700000E-01  4.954141500000E-01
     16 T   1 H     2.709608700000E-01  3.295996900000E-01  4.945043400000E-01
     17 T   1 H     3.678503800000E-01  2.328351400000E-01  4.943642700000E-01
     18 T   1 H    -4.437020100000E-01 -3.850355800000E-01  4.943994200000E-01
     19 T   6 C    -1.464091400000E-01  3.693370000000E-01  4.983886300000E-01
     20 T   6 C    -9.159251000000E-02  3.166146400000E-01  4.955540900000E-01
     21 T   6 C     1.532531000000E-02 -4.689480500000E-01  4.953092300000E-01
     22 T   6 C    -9.166717000000E-02  4.774458800000E-01  4.960440900000E-01
     23 T   6 C     1.545228000000E-02  3.702941300000E-01  4.941543600000E-01
     24 T   6 C     6.991392000000E-02  4.777839500000E-01  4.960790500000E-01
     25 T   6 C    -4.845074300000E-01  3.106692000000E-02 -4.983919400000E-01
     26 T   6 C    -4.315868200000E-01 -2.398128000000E-02 -4.955574600000E-01
     27 T   6 C     3.540151700000E-01 -1.309117200000E-01 -4.953125000000E-01
     28 T   6 C     4.075605500000E-01 -2.385907000000E-02 -4.960473400000E-01
     29 T   6 C    -4.851553800000E-01 -1.311288100000E-01 -4.941577400000E-01
     30 T   6 C     4.072035800000E-01 -1.854644800000E-01 -4.960823800000E-01
     31 T   6 C    -4.842545800000E-01  3.692678700000E-01  4.983886200000E-01
     32 T   6 C    -4.308714100000E-01  4.774547800000E-01  4.955541500000E-01
     33 T   6 C     3.547605700000E-01  3.700386800000E-01  4.953091700000E-01
     34 T   6 C     4.081679900000E-01  3.164436900000E-01  4.960440100000E-01
     35 T   6 C    -4.842311100000E-01 -4.688578500000E-01  4.941544300000E-01
     36 T   6 C     4.078380100000E-01  4.777065500000E-01  4.960790500000E-01
     37 T   8 O    -4.776300000000E-01  2.036294700000E-01  4.992634700000E-01
     38 T   8 O    -3.191502000000E-01  2.027066400000E-01 -4.946826400000E-01
     39 T   8 O    -3.184506200000E-01  3.630556400000E-01  4.961840600000E-01
     40 T   8 O     2.419578300000E-01 -3.570900500000E-01  4.992635000000E-01
     41 T   8 O     2.415120700000E-01  4.830239200000E-01 -4.946826400000E-01
     42 T   8 O     4.011338100000E-01 -3.566324000000E-01  4.961840300000E-01

 T = ATOM BELONGING TO THE ASYMMETRIC UNIT

 ****    1 SYMMOPS - TRANSLATORS IN FRACTIONAL UNITS
 **** MATRICES AND TRANSLATORS IN THE CRYSTALLOGRAPHIC REFERENCE FRAME
   V INV                    ROTATION MATRICES                   TRANSLATORS
   1   1  1.00 -0.00  0.00  0.00  1.00  0.00  0.00 -0.00  1.00  0.00  0.00  0.00

 DIRECT LATTICE VECTORS CARTESIAN COMPONENTS (ANGSTROM)
          X                    Y                    Z
   0.130113578931E+02  -0.751088897922E+01   0.000000000000E+00
   0.000000000000E+00   0.150239160000E+02   0.000000000000E+00
   0.999870639568E+00   0.173210161684E+01   0.350001195823E+01


 CARTESIAN COORDINATES - PRIMITIVE CELL
 *******************************************************************************
 *      ATOM          X(ANGSTROM)         Y(ANGSTROM)         Z(ANGSTROM)
 *******************************************************************************
    1     5 B    -6.026415158470E+00  4.584701097938E+00 -1.745235182813E+00
    2     5 B    -3.956885021296E+00  5.779750549394E+00 -1.745235112813E+00
    3     5 B     6.984887221812E+00 -5.367153745915E-01 -1.755278327127E+00
    4     5 B     1.957024997468E+00  5.780173547295E+00 -1.745235147813E+00
    5     5 B     4.027235728777E+00  4.584819335099E+00 -1.745235182813E+00
    6     5 B     4.026979190522E+00  6.975861448894E+00 -1.755278327127E+00
    7     1 H    -2.261408501615E+00  3.637456511048E+00 -1.766056683952E+00
    8     1 H     1.257342784516E+00 -5.367407993753E+00  1.730771278395E+00
    9     1 H    -1.262477230055E+00 -5.369860569967E+00  1.730281276721E+00
   10     1 H     2.587948148427E-01  3.636290473523E+00 -1.769608461087E+00
   11     1 H    -5.019962380731E+00  2.045891681181E+00 -1.733966999314E+00
   12     1 H     4.019591458800E+00 -3.771096410964E+00  1.769229164791E+00
   13     1 H     4.281045306004E+00 -3.322485215530E+00 -1.730292476759E+00
   14     1 H    -5.278552795689E+00  1.594964410902E+00  1.769596456046E+00
   15     1 H    -4.019566794640E+00 -3.778586759833E+00  1.733955449274E+00
   16     1 H     3.020138585721E+00  2.041151193915E+00 -1.769240854831E+00
   17     1 H     4.280662624533E+00 -1.406002453974E-01 -1.769731101506E+00
   18     1 H    -5.278830185701E+00 -1.595795639221E+00  1.730403882140E+00
   19     6 C    -2.406528200691E+00  5.779708994774E+00 -1.755645793382E+00
   20     6 C    -1.696123582593E+00  4.570981353351E+00 -1.765566717278E+00
   21     6 C     6.946482498162E-01 -6.302616895429E+00  1.733588228020E+00
   22     6 C    -6.967344343913E-01 -6.303108497114E+00  1.736160246807E+00
   23     6 C    -3.047250582459E-01  4.571031493944E+00 -1.770465789016E+00
   24     6 C     4.058192722581E-01  5.780227947474E+00 -1.763729351001E+00
   25     6 C     6.208930851678E+00 -4.268326151514E+00 -1.744377749883E+00
   26     6 C    -5.111153291851E+00  3.755053692755E+00  1.765554922238E+00
   27     6 C     5.110840289848E+00 -3.751605288777E+00  1.766412285167E+00
   28     6 C     5.806803647607E+00 -2.546701489682E+00  1.763840336380E+00
   29     6 C    -5.806753458895E+00  2.550050166640E+00  1.770453958976E+00
   30     6 C     5.802123947713E+00 -4.972027125469E+00  1.763717695961E+00
   31     6 C     6.209001749989E+00  8.053009868982E-01 -1.755645828382E+00
   32     6 C    -5.110732076495E+00 -3.756098022208E+00  1.734445450948E+00
   33     6 C     4.111291199638E+00  2.020686986952E+00 -1.766423940207E+00
   34     6 C     4.806929000344E+00  8.156159744369E-01 -1.763851991420E+00
   35     6 C    -5.806413769192E+00 -2.551149159678E+00  1.729546414210E+00
   36     6 C     4.802670547934E+00  3.240954772983E+00 -1.763729351001E+00
   37     8 O     6.296071268090E+00 -1.731477576891E+00 -1.752583842921E+00
   38     8 O    -4.647196121481E+00  4.585708651332E+00 -1.731395155527E+00
   39     8 O    -2.647484475102E+00 -4.586008479721E+00  5.236662101707E+00
   40     8 O     3.647398836215E+00 -6.317434198841E+00  1.747428220306E+00
   41     8 O     2.647781330623E+00  4.586099854595E+00 -1.731395155527E+00
   42     8 O    -7.295942484722E+00 -5.565933708264E-04  1.736650038481E+00

 *******************************************************************************
 STARTING BASIS SET HANDLING 
 *******************************************************************************

 Loading internal basis set: SOLDEF2MSVP         

 Please cite in your publication:
 L. Dona', J. G. Brandenburg and B. Civalleri, J. Chem. Phys., 151, 121101 (2019
 )                                                                              
                                                                                
                    

 *******************************************************************************
 LOCAL ATOMIC FUNCTIONS BASIS SET
 *******************************************************************************
   ATOM   X(AU)   Y(AU)   Z(AU)  N. TYPE  EXPONENT  S COEF   P COEF   D/F/G COEF
 *******************************************************************************
   1 B  -11.388   8.664  -3.298
                                  1 S  
                                         2.410E+03 1.755E-03 0.000E+00 0.000E+00
                                         3.619E+02 1.344E-02 0.000E+00 0.000E+00
                                         8.231E+01 6.637E-02 0.000E+00 0.000E+00
                                         2.311E+01 2.303E-01 0.000E+00 0.000E+00
                                         7.252E+00 5.150E-01 0.000E+00 0.000E+00
                                  2 S  
                                         2.367E+00 1.000E+00 0.000E+00 0.000E+00
                                  3 S  
                                         5.533E-01 1.000E+00 0.000E+00 0.000E+00
                                  4 S  
                                         1.716E-01 1.000E+00 0.000E+00 0.000E+00
                           5-     7 P  
                                         6.002E+00 0.000E+00-3.555E-02 0.000E+00
                                         1.240E+00 0.000E+00-1.983E-01 0.000E+00
                                         3.367E-01 0.000E+00-5.048E-01 0.000E+00
                           8-    10 P  
                                         1.256E-01 0.000E+00 1.000E+00 0.000E+00
                          11-    15 D  
                                         8.880E-01 0.000E+00 0.000E+00 1.000E+00
   2 B   -7.477  10.922  -3.298
   3 B   13.200  -1.014  -3.317
   4 B    3.698  10.923  -3.298
   5 B    7.610   8.664  -3.298
   6 B    7.610  13.182  -3.317
   7 H   -4.273   6.874  -3.337
                                 91 S  
                                         1.874E+01 1.968E-02 0.000E+00 0.000E+00
                                         2.826E+00 1.380E-01 0.000E+00 0.000E+00
                                         6.401E-01 4.783E-01 0.000E+00 0.000E+00
                                 92 S  
                                         1.756E-01 1.000E+00 0.000E+00 0.000E+00
   8 H    2.376 -10.143   3.271
   9 H   -2.386 -10.148   3.270
  10 H    0.489   6.872  -3.344
  11 H   -9.486   3.866  -3.277
  12 H    7.596  -7.126   3.343
  13 H    8.090  -6.279  -3.270
  14 H   -9.975   3.014   3.344
  15 H   -7.596  -7.140   3.277
  16 H    5.707   3.857  -3.343
  17 H    8.089  -0.266  -3.344
  18 H   -9.976  -3.016   3.270
  19 C   -4.548  10.922  -3.318
                                115 S  
                                         3.624E+03 1.634E-03 0.000E+00 0.000E+00
                                         5.440E+02 1.252E-02 0.000E+00 0.000E+00
                                         1.237E+02 6.211E-02 0.000E+00 0.000E+00
                                         3.476E+01 2.182E-01 0.000E+00 0.000E+00
                                         1.093E+01 4.980E-01 0.000E+00 0.000E+00
                                116 S  
                                         3.574E+00 1.000E+00 0.000E+00 0.000E+00
                                117 S  
                                         7.742E-01 1.000E+00 0.000E+00 0.000E+00
                                118 S  
                                         2.330E-01 1.000E+00 0.000E+00 0.000E+00
                         119-   121 P  
                                         9.443E+00 0.000E+00 3.790E-02 0.000E+00
                                         2.002E+00 0.000E+00 2.082E-01 0.000E+00
                                         5.463E-01 0.000E+00 5.047E-01 0.000E+00
                         122-   124 P  
                                         1.820E-01 0.000E+00 1.000E+00 0.000E+00
                         125-   129 D  
                                         8.880E-01 0.000E+00 0.000E+00 1.000E+00
  20 C   -3.205   8.638  -3.336
  21 C    1.313 -11.910   3.276
  22 C   -1.317 -11.911   3.281
  23 C   -0.576   8.638  -3.346
  24 C    0.767  10.923  -3.333
  25 C   11.733  -8.066  -3.296
  26 C   -9.659   7.096   3.336
  27 C    9.658  -7.090   3.338
  28 C   10.973  -4.813   3.333
  29 C  -10.973   4.819   3.346
  30 C   10.964  -9.396   3.333
  31 C   11.733   1.522  -3.318
  32 C   -9.658  -7.098   3.278
  33 C    7.769   3.819  -3.338
  34 C    9.084   1.541  -3.333
  35 C  -10.973  -4.821   3.268
  36 C    9.076   6.125  -3.333
  37 O   11.898  -3.272  -3.312
                                385 S  
                                         6.773E+03 1.727E-03 0.000E+00 0.000E+00
                                         1.017E+03 1.325E-02 0.000E+00 0.000E+00
                                         2.313E+02 6.603E-02 0.000E+00 0.000E+00
                                         6.501E+01 2.353E-01 0.000E+00 0.000E+00
                                         2.050E+01 5.498E-01 0.000E+00 0.000E+00
                                386 S  
                                         6.716E+00 1.000E+00 0.000E+00 0.000E+00
                                387 S  
                                         1.147E+00 1.000E+00 0.000E+00 0.000E+00
                                388 S  
                                         3.342E-01 1.000E+00 0.000E+00 0.000E+00
                         389-   391 P  
                                         1.769E+01 0.000E+00 4.359E-02 0.000E+00
                                         3.854E+00 0.000E+00 2.318E-01 0.000E+00
                                         1.047E+00 0.000E+00 5.146E-01 0.000E+00
                         392-   394 P  
                                         2.759E-01 0.000E+00 1.000E+00 0.000E+00
                         395-   399 D  
                                         8.000E-01 0.000E+00 0.000E+00 1.000E+00
  38 O   -8.782   8.666  -3.272
  39 O   -5.003  -8.666   9.896
  40 O    6.893 -11.938   3.302
  41 O    5.004   8.666  -3.272
  42 O  -13.787  -0.001   3.282

 *******************************************************************************
 FINISHED BASIS SET HANDLING 
 *******************************************************************************

 INFORMATION **** SET_MPP **** PCRYSTAL CALCULATION
 INFORMATION **** READM2 **** NEW DEFAULT: FOCK/KS MATRIX MIXING SET TO 30 %
 INFORMATION **** READM2 **** NEW DEFAULT: FULL DIRECT SCF MODE
 INFORMATION **** READM2 **** NEW DEFAULT: COULOMB BIPOLAR BUFFER SET TO 32 Mb
 INFORMATION **** READM2 **** NEW DEFAULT: EXCHANGE BIPOLAR BUFFER SET TO 32 Mb

 *******************************************************************************
 NEW DEFAULT: DFT INTEGRATION GRID INCREASED TO XLGRID
 NEW DEFAULT: DIIS ACCELERATOR ACTIVE
 USE KEYWORD NODIIS TO TURN IT OFF
 *******************************************************************************

 WARNING **** RDDFTP **** HSEsol-HJS ACTIVE
 RANGE SEPARATION - OMEGA:   0.110000000000000     
 WARNING **** RDDFTP **** HSEsol-3c has to be combined with sol-def2-mSVP basis set
 *******************************************************************************
 N. OF ATOMS PER CELL        42  COULOMB OVERLAP TOL         (T1) 10**   -6
 NUMBER OF SHELLS           234  COULOMB PENETRATION TOL     (T2) 10**   -6
 NUMBER OF AO               474  EXCHANGE OVERLAP TOL        (T3) 10**   -6
 N. OF ELECTRONS PER CELL   198  EXCHANGE PSEUDO OVP (F(G))  (T4) 10**   -6
 CORE ELECTRONS PER CELL     60  EXCHANGE PSEUDO OVP (P(G))  (T5) 10**  -12
 N. OF SYMMETRY OPERATORS     1  POLE ORDER IN MONO ZONE                  4
 *******************************************************************************
 TYPE OF CALCULATION :  RESTRICTED CLOSED SHELL
 KOHN-SHAM HAMILTONIAN

 (EXCHANGE)[CORRELATION] FUNCTIONAL:(HSEsol GGA)[PBEsol]

 RANGE-SEPARATED HYBRID FUNCTIONAL 
 OMEGA (SHORT-RANGE)[LONG-RANGE]:(    0.1100)[    0.0000]

 HYBRID EXCHANGE - PERCENTAGE OF FOCK EXCHANGE    25.0000

 CAPPA:IS1  2;IS2  2;IS3  8; K PTS MONK NET  20; SYMMOPS:K SPACE   2;G SPACE   1

 *******************************************************************************
 MAX NUMBER OF SCF CYCLES      50  CONVERGENCE ON DELTAP        10**-16
 WEIGHT OF F(I) IN F(I+1)      30% CONVERGENCE ON ENERGY        10**- 6
 SHRINK. FACT.(MONKH.)    2  2  8  NUMBER OF K POINTS IN THE IBZ     20
 SHRINKING FACTOR(GILAT NET)    8  NUMBER OF K POINTS(GILAT NET)   1028
 *******************************************************************************
 *** K POINTS COORDINATES (OBLIQUE COORDINATES IN UNITS OF IS =  2)
   1-R(  0  0  0)   2-R(  1  0  0)   3-R(  0  1  0)   4-R(  1  1  0)
   5-C(  0  0  1)   6-C(  1  0  1)   7-C(  0  1  1)   8-C(  1  1  1)
   9-C(  0  0  2)  10-C(  1  0  2)  11-C(  0  1  2)  12-C(  1  1  2)
  13-C(  0  0  3)  14-C(  1  0  3)  15-C(  0  1  3)  16-C(  1  1  3)
  17-R(  0  0  4)  18-R(  1  0  4)  19-R(  0  1  4)  20-R(  1  1  4)

 DIRECT LATTICE VECTORS COMPON. (A.U.)     RECIP. LATTICE VECTORS COMPON. (A.U.) 
        X            Y            Z              X            Y            Z
   24.5879030  -14.1935232    0.0000000      0.2555397    0.0000000   -0.0730016
    0.0000000   28.3910867    0.0000000      0.1277517    0.2213084   -0.1460177
    1.8894817    3.2731977    6.6140641      0.0000000    0.0000000    0.9499735

 DISK SPACE FOR EIGENVECTORS (FTN 10)     7189632 REALS

 SYMMETRY ADAPTION OF THE BLOCH FUNCTIONS DISABLED
 TTTTTTTTTTTTTTTTTTTTTTTTTTTTTT gordsh1     TELAPSE        0.04 TCPU        0.04

 MATRIX SIZE: P(G)  372672, F(G)   77613, P(G) IRR  188619, F(G) IRR   78309
 MAX G-VECTOR INDEX FOR 1- AND 2-ELECTRON INTEGRALS  75

 TTTTTTTTTTTTTTTTTTTTTTTTTTTTTT INPUT       TELAPSE        0.31 TCPU        0.31

 NEIGHBORS OF THE NON-EQUIVALENT ATOMS

 N = NUMBER OF NEIGHBORS AT DISTANCE R
    ATOM  N     R/ANG      R/AU   NEIGHBORS (ATOM LABELS AND CELL INDICES)
   1 B    1     1.3791     2.6061   37 O   -1 0 0
   1 B    1     1.3793     2.6065   38 O    0 0 0
   1 B    1     1.5503     2.9297   25 C   -1 0 0
   1 B    1     2.3895     4.5155    3 B   -1 0 0
   1 B    1     2.3898     4.5160    2 B    0 0 0
   1 B    1     2.5632     4.8437   26 C    0 0-1

   2 B    1     1.3793     2.6065   39 O    0 1-2
   2 B    1     1.3793     2.6065   38 O    0 0 0
   2 B    1     1.5504     2.9298   19 C    0 0 0
   2 B    1     2.3895     4.5156    3 B   -1 0 0
   2 B    1     2.3898     4.5160    1 B    0 0 0
   2 B    1     2.5634     4.8440   22 C    0 1-1

   3 B    1     1.3791     2.6061   37 O    0 0 0
   3 B    1     1.3793     2.6064   39 O    1 1-2
   3 B    1     1.5502     2.9294   31 C    0 0 0
   3 B    1     2.3895     4.5155    1 B    1 0 0
   3 B    1     2.3895     4.5156    2 B    1 0 0
   3 B    1     2.5629     4.8433   32 C    1 1-1

   4 B    1     1.3795     2.6068   40 O    0 1-1
   4 B    1     1.3795     2.6070   41 O    0 0 0
   4 B    1     1.5513     2.9316   24 C    0 0 0
   4 B    1     2.3905     4.5174    6 B    0 0 0
   4 B    1     2.3905     4.5175    5 B    0 0 0
   4 B    1     2.5648     4.8468   23 C    0 0 0

   5 B    1     1.3795     2.6069   41 O    0 0 0
   5 B    1     1.3797     2.6072   42 O    1 1-1
   5 B    1     1.5516     2.9322   36 C    0 0 0
   5 B    1     2.3905     4.5175    4 B    0 0 0
   5 B    1     2.3911     4.5185    6 B    0 0 0
   5 B    1     2.5651     4.8473   35 C    1 1-1

   6 B    1     1.3795     2.6068   40 O    0 1-1
   6 B    1     1.3796     2.6071   42 O    1 1-1
   6 B    1     1.5516     2.9322   30 C    0 1-1
   6 B    1     2.3905     4.5174    4 B    0 0 0
   6 B    1     2.3911     4.5185    5 B    0 0 0
   6 B    1     2.5651     4.8473   29 C    1 1-1

   7 H    1     1.0913     2.0623   20 C    0 0 0
   7 H    1     2.1472     4.0576   19 C    0 0 0
   7 H    1     2.1680     4.0969   23 C    0 0 0
   7 H    1     2.5202     4.7625   10 H    0 0 0
   7 H    1     2.5676     4.8520   38 O    0 0 0
   7 H    1     2.7321     5.1630    2 B    0 0 0

   8 H    1     1.0914     2.0625   21 C    0 0 0
   8 H    1     2.1493     4.0616   24 C    0-1 1
   8 H    1     2.1666     4.0942   22 C    0 0 0
   8 H    1     2.5198     4.7618    9 H    0 0 0
   8 H    1     2.5720     4.8604   40 O    0 0 0
   8 H    1     2.7362     5.1707    4 B    0-1 1

   9 H    1     1.0914     2.0624   22 C    0 0 0
   9 H    1     2.1471     4.0575   19 C    0-1 1
   9 H    1     2.1680     4.0970   21 C    0 0 0
   9 H    1     2.5198     4.7618    8 H    0 0 0
   9 H    1     2.5665     4.8500   39 O    0 0-1
   9 H    1     2.7315     5.1618    2 B    0-1 1

  10 H    1     1.0915     2.0626   23 C    0 0 0
  10 H    1     2.1490     4.0610   24 C    0 0 0
  10 H    1     2.1669     4.0948   20 C    0 0 0
  10 H    1     2.5202     4.7625    7 H    0 0 0
  10 H    1     2.5712     4.8588   41 O    0 0 0
  10 H    1     2.7351     5.1686    4 B    0 0 0

  11 H    1     1.0913     2.0623   26 C    0 0-1
  11 H    1     2.1469     4.0571   25 C   -1 0 0
  11 H    1     2.1680     4.0968   29 C    0 0-1
  11 H    1     2.5198     4.7617   14 H    0 0-1
  11 H    1     2.5670     4.8510   38 O    0 0 0
  11 H    1     2.7310     5.1609    1 B    0 0 0

  12 H    1     1.0914     2.0625   27 C    0 0 0
  12 H    1     2.1493     4.0617   30 C    0 0 0
  12 H    1     2.1664     4.0939   28 C    0 0 0
  12 H    1     2.5192     4.7606   13 H    0 0 1
  12 H    1     2.5735     4.8632   40 O    0 0 0
  12 H    1     2.7371     5.1723    6 B    0-1 1

  13 H    1     1.0914     2.0624   28 C    0 0-1
  13 H    1     2.1475     4.0581   25 C    0 0 0
  13 H    1     2.1679     4.0967   27 C    0 0-1
  13 H    1     2.5192     4.7606   12 H    0 0-1
  13 H    1     2.5675     4.8519   37 O    0 0 0
  13 H    1     2.7328     5.1643    1 B    1 0 0

  14 H    1     1.0914     2.0625   29 C    0 0 0
  14 H    1     2.1491     4.0612   30 C   -1 0 0
  14 H    1     2.1666     4.0942   26 C    0 0 0
  14 H    1     2.5198     4.7617   11 H    0 0 1
  14 H    1     2.5723     4.8609   42 O    0 0 0
  14 H    1     2.7355     5.1693    6 B   -1-1 1

  15 H    1     1.0914     2.0624   32 C    0 0 0
  15 H    1     2.1475     4.0582   31 C   -1-1 1
  15 H    1     2.1678     4.0966   35 C    0 0 0
  15 H    1     2.5200     4.7621   18 H    0 0 0
  15 H    1     2.5667     4.8503   39 O    0 0-1
  15 H    1     2.7315     5.1618    3 B   -1-1 1

  16 H    1     1.0913     2.0623   33 C    0 0 0
  16 H    1     2.1487     4.0605   36 C    0 0 0
  16 H    1     2.1667     4.0945   34 C    0 0 0
  16 H    1     2.5197     4.7616   17 H    0 0 0
  16 H    1     2.5723     4.8610   41 O    0 0 0
  16 H    1     2.7359     5.1701    5 B    0 0 0

  17 H    1     1.0915     2.0626   34 C    0 0 0
  17 H    1     2.1479     4.0589   31 C    0 0 0
  17 H    1     2.1679     4.0968   33 C    0 0 0
  17 H    1     2.5197     4.7616   16 H    0 0 0
  17 H    1     2.5677     4.8522   37 O    0 0 0
  17 H    1     2.7331     5.1648    3 B    0 0 0

  18 H    1     1.0914     2.0624   35 C    0 0 0
  18 H    1     2.1486     4.0602   36 C   -1-1 1
  18 H    1     2.1668     4.0947   32 C    0 0 0
  18 H    1     2.5200     4.7621   15 H    0 0 0
  18 H    1     2.5717     4.8598   42 O    0 0 0
  18 H    1     2.7349     5.1682    5 B   -1-1 1

  19 C    1     1.4020     2.6495   22 C    0 1-1
  19 C    1     1.4021     2.6495   20 C    0 0 0
  19 C    1     1.5504     2.9298    2 B    0 0 0
  19 C    1     2.1471     4.0575    9 H    0 1-1
  19 C    1     2.1472     4.0576    7 H    0 0 0
  19 C    1     2.4246     4.5817   21 C    0 1-1

  20 C    1     1.0913     2.0623    7 H    0 0 0
  20 C    1     1.3914     2.6294   23 C    0 0 0
  20 C    1     1.4021     2.6495   19 C    0 0 0
  20 C    1     2.1669     4.0948   10 H    0 0 0
  20 C    1     2.4177     4.5688   22 C    0 1-1
  20 C    1     2.4250     4.5825   24 C    0 0 0

  21 C    1     1.0914     2.0625    8 H    0 0 0
  21 C    1     1.3914     2.6293   22 C    0 0 0
  21 C    1     1.4026     2.6505   24 C    0-1 1
  21 C    1     2.1680     4.0970    9 H    0 0 0
  21 C    1     2.4182     4.5697   23 C    0-1 1
  21 C    1     2.4246     4.5817   19 C    0-1 1

  22 C    1     1.0914     2.0624    9 H    0 0 0
  22 C    1     1.3914     2.6293   21 C    0 0 0
  22 C    1     1.4020     2.6495   19 C    0-1 1
  22 C    1     2.1666     4.0942    8 H    0 0 0
  22 C    1     2.4177     4.5688   20 C    0-1 1
  22 C    1     2.4250     4.5826   24 C    0-1 1

  23 C    1     1.0915     2.0626   10 H    0 0 0
  23 C    1     1.3914     2.6294   20 C    0 0 0
  23 C    1     1.4025     2.6504   24 C    0 0 0
  23 C    1     2.1680     4.0969    7 H    0 0 0
  23 C    1     2.4182     4.5697   21 C    0 1-1
  23 C    1     2.4246     4.5818   19 C    0 0 0

  24 C    1     1.4025     2.6504   23 C    0 0 0
  24 C    1     1.4026     2.6505   21 C    0 1-1
  24 C    1     1.5513     2.9316    4 B    0 0 0
  24 C    1     2.1490     4.0610   10 H    0 0 0
  24 C    1     2.1493     4.0616    8 H    0 1-1
  24 C    1     2.4250     4.5825   20 C    0 0 0

  25 C    1     1.4020     2.6494   26 C    1 0-1
  25 C    1     1.4021     2.6495   28 C    0 0-1
  25 C    1     1.5503     2.9297    1 B    1 0 0
  25 C    1     2.1469     4.0571   11 H    1 0 0
  25 C    1     2.1475     4.0581   13 H    0 0 0
  25 C    1     2.4246     4.5818   27 C    0 0-1

  26 C    1     1.0913     2.0623   11 H    0 0 1
  26 C    1     1.3914     2.6293   29 C    0 0 0
  26 C    1     1.4020     2.6494   25 C   -1 0 1
  26 C    1     2.1666     4.0942   14 H    0 0 0
  26 C    1     2.4175     4.5684   28 C   -1 0 0
  26 C    1     2.4251     4.5828   30 C   -1 0 0

  27 C    1     1.0914     2.0625   12 H    0 0 0
  27 C    1     1.3915     2.6295   28 C    0 0 0
  27 C    1     1.4026     2.6505   30 C    0 0 0
  27 C    1     2.1679     4.0967   13 H    0 0 1
  27 C    1     2.4179     4.5691   29 C    1 0 0
  27 C    1     2.4246     4.5818   25 C    0 0 1

  28 C    1     1.0914     2.0624   13 H    0 0 1
  28 C    1     1.3915     2.6295   27 C    0 0 0
  28 C    1     1.4021     2.6495   25 C    0 0 1
  28 C    1     2.1664     4.0939   12 H    0 0 0
  28 C    1     2.4175     4.5684   26 C    1 0 0
  28 C    1     2.4253     4.5832   30 C    0 0 0

  29 C    1     1.0914     2.0625   14 H    0 0 0
  29 C    1     1.3914     2.6293   26 C    0 0 0
  29 C    1     1.4025     2.6504   30 C   -1 0 0
  29 C    1     2.1680     4.0968   11 H    0 0 1
  29 C    1     2.4179     4.5691   27 C   -1 0 0
  29 C    1     2.4247     4.5819   25 C   -1 0 1

  30 C    1     1.4025     2.6504   29 C    1 0 0
  30 C    1     1.4026     2.6505   27 C    0 0 0
  30 C    1     1.5516     2.9322    6 B    0-1 1
  30 C    1     2.1491     4.0612   14 H    1 0 0
  30 C    1     2.1493     4.0617   12 H    0 0 0
  30 C    1     2.4251     4.5828   26 C    1 0 0

  31 C    1     1.4021     2.6496   32 C    1 1-1
  31 C    1     1.4021     2.6497   34 C    0 0 0
  31 C    1     1.5502     2.9294    3 B    0 0 0
  31 C    1     2.1475     4.0582   15 H    1 1-1
  31 C    1     2.1479     4.0589   17 H    0 0 0
  31 C    1     2.4244     4.5814   33 C    0 0 0

  32 C    1     1.0914     2.0624   15 H    0 0 0
  32 C    1     1.3914     2.6293   35 C    0 0 0
  32 C    1     1.4021     2.6496   31 C   -1-1 1
  32 C    1     2.1668     4.0947   18 H    0 0 0
  32 C    1     2.4179     4.5692   34 C   -1-1 1
  32 C    1     2.4251     4.5827   36 C   -1-1 1

  33 C    1     1.0913     2.0623   16 H    0 0 0
  33 C    1     1.3914     2.6294   34 C    0 0 0
  33 C    1     1.4025     2.6504   36 C    0 0 0
  33 C    1     2.1679     4.0968   17 H    0 0 0
  33 C    1     2.4178     4.5690   35 C    1 1-1
  33 C    1     2.4244     4.5814   31 C    0 0 0

  34 C    1     1.0915     2.0626   17 H    0 0 0
  34 C    1     1.3914     2.6294   33 C    0 0 0
  34 C    1     1.4021     2.6497   31 C    0 0 0
  34 C    1     2.1667     4.0945   16 H    0 0 0
  34 C    1     2.4179     4.5692   32 C    1 1-1
  34 C    1     2.4253     4.5832   36 C    0 0 0

  35 C    1     1.0914     2.0624   18 H    0 0 0
  35 C    1     1.3914     2.6293   32 C    0 0 0
  35 C    1     1.4025     2.6503   36 C   -1-1 1
  35 C    1     2.1678     4.0966   15 H    0 0 0
  35 C    1     2.4178     4.5690   33 C   -1-1 1
  35 C    1     2.4245     4.5817   31 C   -1-1 1

  36 C    1     1.4025     2.6503   35 C    1 1-1
  36 C    1     1.4025     2.6504   33 C    0 0 0
  36 C    1     1.5516     2.9322    5 B    0 0 0
  36 C    1     2.1486     4.0602   18 H    1 1-1
  36 C    1     2.1487     4.0605   16 H    0 0 0
  36 C    1     2.4251     4.5827   32 C    1 1-1

  37 O    1     1.3791     2.6061    1 B    1 0 0
  37 O    1     1.3791     2.6061    3 B    0 0 0
  37 O    1     2.3880     4.5126   38 O    1 0 0
  37 O    1     2.3882     4.5130   39 O    1 1-2
  37 O    1     2.5383     4.7966   31 C    0 0 0
  37 O    1     2.5384     4.7968   25 C    0 0 0

  38 O    1     1.3793     2.6065    1 B    0 0 0
  38 O    1     1.3793     2.6065    2 B    0 0 0
  38 O    1     2.3880     4.5126   37 O   -1 0 0
  38 O    1     2.3882     4.5131   39 O    0 1-2
  38 O    1     2.5391     4.7981   19 C    0 0 0
  38 O    1     2.5395     4.7990   25 C   -1 0 0

  39 O    1     1.3793     2.6064    3 B   -1-1 2
  39 O    1     1.3793     2.6065    2 B    0-1 2
  39 O    1     2.3882     4.5130   37 O   -1-1 2
  39 O    1     2.3882     4.5131   38 O    0-1 2
  39 O    1     2.5390     4.7980   19 C    0-1 2
  39 O    1     2.5391     4.7982   31 C   -1-1 2

  40 O    1     1.3795     2.6068    6 B    0-1 1
  40 O    1     1.3795     2.6068    4 B    0-1 1
  40 O    1     2.3880     4.5126   42 O    1 0 0
  40 O    1     2.3884     4.5134   41 O    0-1 1
  40 O    1     2.5400     4.7998   24 C    0-1 1
  40 O    1     2.5403     4.8005   30 C    0 0 0

  41 O    1     1.3795     2.6069    5 B    0 0 0
  41 O    1     1.3795     2.6070    4 B    0 0 0
  41 O    1     2.3881     4.5128   42 O    1 1-1
  41 O    1     2.3884     4.5134   40 O    0 1-1
  41 O    1     2.5404     4.8006   24 C    0 0 0
  41 O    1     2.5405     4.8008   36 C    0 0 0

  42 O    1     1.3796     2.6071    6 B   -1-1 1
  42 O    1     1.3797     2.6072    5 B   -1-1 1
  42 O    1     2.3880     4.5126   40 O   -1 0 0
  42 O    1     2.3881     4.5128   41 O   -1-1 1
  42 O    1     2.5409     4.8016   36 C   -1-1 1
  42 O    1     2.5410     4.8019   30 C   -1 0 0


 SYMMETRY ALLOWED INTERNAL DEGREE(S) OF FREEDOM: 123
 TTTTTTTTTTTTTTTTTTTTTTTTTTTTTT SYMM        TELAPSE        0.32 TCPU        0.31
 TTTTTTTTTTTTTTTTTTTTTTTTTTTTTT INT_SCREEN  TELAPSE        0.34 TCPU        0.34

 DFT PARAMETERS

     ATOM       ELECTRONS   NET CHARGE   R(ANGSTROM)
   1   5  B       5.0000      0.0000     0.89000000
   7   1  H       1.0000      0.0000     1.11000000
  19   6  C       6.0000      0.0000     0.77000000
  37   8  O       8.0000      0.0000     0.74000000

 SIZE OF GRID=    1263465
 TTTTTTTTTTTTTTTTTTTTTTTTTTTTTT MAKE_GRID2  TELAPSE       11.44 TCPU       11.43
 BECKE WEIGHT FUNCTION
 RADSAFE =     2.00
 TOLERANCES - DENSITY:10**- 6; POTENTIAL:10**- 9; GRID WGT:10**-14

 RADIAL INTEGRATION  - INTERVALS (POINTS,UPPER LIMIT):            1( 75,  4.0*R)

 ANGULAR INTEGRATION - INTERVALS (ACCURACY LEVEL [N. POINTS] UPPER LIMIT):
  1(  4[  86]   0.2)  2(  8[ 194]   0.5)  3( 12[ 350]   0.9)  4( 16[ 974]   3.5)
  5( 12[ 350]9999.0)
 TTTTTTTTTTTTTTTTTTTTTTTTTTTTTT INT_CALC    TELAPSE       11.54 TCPU       11.53
 EEEEEEEEEE INT_CALC TERMINATION  DATE 19 02 2026 TIME 18:24:59.1

 *******************************************************************************
 cof-1_z35_L020_incl                                                             
 CRYSTAL - SCF - TYPE OF CALCULATION :  RESTRICTED CLOSED SHELL
 *******************************************************************************

 CAPPA:IS1  2;IS2  2;IS3  8; K PTS MONK NET  20; SYMMOPS:K SPACE   2;G SPACE   1

 TTTTTTTTTTTTTTTTTTTTTTTTTTTTTT SDIK        TELAPSE       12.20 TCPU       19.69

 AAAAAAAAAAAAAAAAAAAAAAAAAAAAAAAAAAAAAAAAAAAAAAAAAAAAAAAAAAAAAAAAAAAAAAAAAAAAAAA
         ATOMIC WAVEFUNCTION(S)


 NUCLEAR CHARGE  5.0  SYMMETRY SPECIES            S    P
 N. ELECTRONS    5.0  NUMBER OF PRIMITIVE GTOS    8    4
                      NUMBER OF CONTRACTED GTOS   4    2
                      NUMBER OF CLOSED SHELLS     2    0
                      OPEN SHELL OCCUPATION       0    1

  ZNUC  SCFIT    TOTAL HF ENERGY   KINETIC ENERGY   VIRIAL THEOREM ACCURACY
   5.0    11    -2.451164084E+01  2.462155050E+01 -1.995536038E+00  1.5E-06

 NUCLEAR CHARGE  1.0  SYMMETRY SPECIES            S
 N. ELECTRONS    1.0  NUMBER OF PRIMITIVE GTOS    4
                      NUMBER OF CONTRACTED GTOS   2
                      NUMBER OF CLOSED SHELLS     0
                      OPEN SHELL OCCUPATION       1

  ZNUC  SCFIT    TOTAL HF ENERGY   KINETIC ENERGY   VIRIAL THEOREM ACCURACY
   1.0     1    -4.977266687E-01  5.190767460E-01 -1.958869132E+00  0.0E+00

 NUCLEAR CHARGE  6.0  SYMMETRY SPECIES            S    P
 N. ELECTRONS    6.0  NUMBER OF PRIMITIVE GTOS    8    4
                      NUMBER OF CONTRACTED GTOS   4    2
                      NUMBER OF CLOSED SHELLS     2    0
                      OPEN SHELL OCCUPATION       0    2

  ZNUC  SCFIT    TOTAL HF ENERGY   KINETIC ENERGY   VIRIAL THEOREM ACCURACY
   6.0     9    -3.766704647E+01  3.775180683E+01 -1.997754800E+00  1.1E-06

 NUCLEAR CHARGE  8.0  SYMMETRY SPECIES            S    P
 N. ELECTRONS    8.0  NUMBER OF PRIMITIVE GTOS    8    4
                      NUMBER OF CONTRACTED GTOS   4    2
                      NUMBER OF CLOSED SHELLS     2    0
                      OPEN SHELL OCCUPATION       0    4

  ZNUC  SCFIT    TOTAL HF ENERGY   KINETIC ENERGY   VIRIAL THEOREM ACCURACY
   8.0    12    -7.477373220E+01  7.477365593E+01 -2.000001020E+00  3.8E-06

 AAAAAAAAAAAAAAAAAAAAAAAAAAAAAAAAAAAAAAAAAAAAAAAAAAAAAAAAAAAAAAAAAAAAAAAAAAAAAAA

 CHARGE NORMALIZATION FACTOR   1.00000000
 TOTAL ATOMIC CHARGES:
   5.0000000   5.0000000   5.0000000   5.0000000   5.0000000   5.0000000
   1.0000000   1.0000000   1.0000000   1.0000000   1.0000000   1.0000000
   1.0000000   1.0000000   1.0000000   1.0000000   1.0000000   1.0000000
   6.0000000   6.0000000   6.0000000   6.0000000   6.0000000   6.0000000
   6.0000000   6.0000000   6.0000000   6.0000000   6.0000000   6.0000000
   6.0000000   6.0000000   6.0000000   6.0000000   6.0000000   6.0000000
   8.0000000   8.0000000   8.0000000   8.0000000   8.0000000   8.0000000
 TTTTTTTTTTTTTTTTTTTTTTTTTTTTTT MOQGAD      TELAPSE       12.25 TCPU       21.39
 TTTTTTTTTTTTTTTTTTTTTTTTTTTTTT SHELLXN     TELAPSE       22.43 TCPU      346.62
 TTTTTTTTTTTTTTTTTTTTTTTTTTTTTT MONMO3      TELAPSE       22.60 TCPU      352.10
 NUMERICALLY INTEGRATED DENSITY    198.0000417467
 TTTTTTTTTTTTTTTTTTTTTTTTTTTTTT NUMDFT      TELAPSE       23.23 TCPU      372.21
 CYC   0 ETOT(AU) -1.295977285588E+03 DETOT -1.30E+03 tst  0.00E+00 PX  1.00E+00
 TTTTTTTTTTTTTTTTTTTTTTTTTTTTTT DIIS        TELAPSE       23.27 TCPU      373.34
 TTTTTTTTTTTTTTTTTTTTTTTTTTTTTT FDIK        TELAPSE       23.73 TCPU      388.12
 INSULATING STATE
 TOP OF VALENCE BANDS -    BAND     99; K    1; EIG -3.0472576E-01 AU
 BOTTOM OF VIRTUAL BANDS - BAND    100; K    1; EIG -1.6006960E-01 AU
 DIRECT ENERGY BAND GAP:   3.9363 eV
 TTTTTTTTTTTTTTTTTTTTTTTTTTTTTT PDIG        TELAPSE       24.03 TCPU      394.27
 CHARGE NORMALIZATION FACTOR   1.00000000
 TOTAL ATOMIC CHARGES:
   4.1368649   4.1439233   4.1444854   4.1439959   4.1437450   4.1364514
   0.7860873   0.7861982   0.7853250   0.7853512   0.7860934   0.7862727
   0.7860962   0.7862514   0.7852812   0.7854036   0.7860370   0.7861974
   6.0491281   6.2694983   6.2696599   6.2669214   6.2667857   6.0484115
   6.0480591   6.2667738   6.2667705   6.2666386   6.2667720   6.0467872
   6.0494997   6.2666257   6.2671581   6.2690783   6.2698938   6.0479591
   8.7039019   8.7041501   8.6998902   8.7044879   8.7003632   8.7047253
 TTTTTTTTTTTTTTTTTTTTTTTTTTTTTT MOQGAD      TELAPSE       24.08 TCPU      394.32
 TTTTTTTTTTTTTTTTTTTTTTTTTTTTTT SHELLXN     TELAPSE       34.63 TCPU      730.80
 TTTTTTTTTTTTTTTTTTTTTTTTTTTTTT MONMO3      TELAPSE       34.80 TCPU      736.27
 NUMERICALLY INTEGRATED DENSITY    198.0000199292
 TTTTTTTTTTTTTTTTTTTTTTTTTTTTTT NUMDFT      TELAPSE       35.44 TCPU      756.77
 CYC   1 ETOT(AU) -1.288824912971E+03 DETOT  7.15E+00 tst  0.00E+00 PX  1.00E+00
 TTTTTTTTTTTTTTTTTTTTTTTTTTTTTT DIIS        TELAPSE       35.49 TCPU      758.22
 DIIS TEST: 0.10882E+01 AT SCF   CYCLE   1 - MIX   30 %
 TTTTTTTTTTTTTTTTTTTTTTTTTTTTTT FDIK        TELAPSE       35.96 TCPU      773.25
 INSULATING STATE
 TOP OF VALENCE BANDS -    BAND     99; K    1; EIG -2.1327099E-01 AU
 BOTTOM OF VIRTUAL BANDS - BAND    100; K    1; EIG -8.2390546E-02 AU
 DIRECT ENERGY BAND GAP:   3.5614 eV
 TTTTTTTTTTTTTTTTTTTTTTTTTTTTTT PDIG        TELAPSE       36.28 TCPU      779.43
 CHARGE NORMALIZATION FACTOR   1.00000000
 TOTAL ATOMIC CHARGES:
   4.6797379   4.6874647   4.6863513   4.6865734   4.6871305   4.6780598
   0.9147491   0.9149478   0.9188442   0.9188422   0.9127036   0.9125397
   0.9125906   0.9125072   0.9187757   0.9188143   0.9146204   0.9146601
   5.8668893   6.1155187   6.1159540   6.1453030   6.1475729   5.8692738
   5.8748548   6.1323805   6.1346486   6.1338094   6.1336668   5.8777886
   5.8664573   6.1454078   6.1478932   6.1157636   6.1161170   5.8697547
   8.3450115   8.3453233   8.3604585   8.3445827   8.3610178   8.3446399
 TTTTTTTTTTTTTTTTTTTTTTTTTTTTTT MOQGAD      TELAPSE       36.33 TCPU      779.48
 TTTTTTTTTTTTTTTTTTTTTTTTTTTTTT SHELLXN     TELAPSE       46.88 TCPU     1115.83
 TTTTTTTTTTTTTTTTTTTTTTTTTTTTTT MONMO3      TELAPSE       47.05 TCPU     1121.29
 NUMERICALLY INTEGRATED DENSITY    198.0000238932
 TTTTTTTTTTTTTTTTTTTTTTTTTTTTTT NUMDFT      TELAPSE       47.69 TCPU     1141.81
 CYC   2 ETOT(AU) -1.289017799554E+03 DETOT -1.93E-01 tst  3.77E-03 PX  1.57E-01
 TTTTTTTTTTTTTTTTTTTTTTTTTTTTTT DIIS        TELAPSE       47.73 TCPU     1143.28
 DIIS TEST: 0.46179E+00 AT SCF   CYCLE   2 - DIIS ACTIVE - HISTORY:     2 CYCLES
 TTTTTTTTTTTTTTTTTTTTTTTTTTTTTT FDIK        TELAPSE       48.21 TCPU     1158.36
 INSULATING STATE
 TOP OF VALENCE BANDS -    BAND     99; K    1; EIG -2.2598315E-01 AU
 BOTTOM OF VIRTUAL BANDS - BAND    100; K    1; EIG -7.8067423E-02 AU
 DIRECT ENERGY BAND GAP:   4.0250 eV
 TTTTTTTTTTTTTTTTTTTTTTTTTTTTTT PDIG        TELAPSE       48.51 TCPU     1164.52
 CHARGE NORMALIZATION FACTOR   1.00000000
 TOTAL ATOMIC CHARGES:
   4.4733574   4.4776084   4.4772277   4.4765392   4.4766360   4.4719566
   0.8893603   0.8895751   0.8924043   0.8924108   0.8888725   0.8891919
   0.8890208   0.8889820   0.8923176   0.8924611   0.8892720   0.8893913
   5.8929594   6.1659672   6.1662330   6.1635906   6.1621063   5.8920045
   5.9024437   6.1612723   6.1606312   6.1610545   6.1609485   5.9020806
   5.8937397   6.1637948   6.1621723   6.1658671   6.1663873   5.8913601
   8.5232565   8.5235395   8.5172995   8.5237274   8.5169733   8.5240056
 TTTTTTTTTTTTTTTTTTTTTTTTTTTTTT MOQGAD      TELAPSE       48.56 TCPU     1164.57
 TTTTTTTTTTTTTTTTTTTTTTTTTTTTTT SHELLXN     TELAPSE       59.11 TCPU     1500.91
 TTTTTTTTTTTTTTTTTTTTTTTTTTTTTT MONMO3      TELAPSE       59.28 TCPU     1506.38
 NUMERICALLY INTEGRATED DENSITY    198.0000230854
 TTTTTTTTTTTTTTTTTTTTTTTTTTTTTT NUMDFT      TELAPSE       59.92 TCPU     1526.86
 CYC   3 ETOT(AU) -1.289114702882E+03 DETOT -9.69E-02 tst  7.09E-04 PX  6.28E-02
 TTTTTTTTTTTTTTTTTTTTTTTTTTTTTT DIIS        TELAPSE       59.97 TCPU     1528.66
 DIIS TEST: 0.11527E-01 AT SCF   CYCLE   3 - DIIS ACTIVE - HISTORY:     3 CYCLES
 TTTTTTTTTTTTTTTTTTTTTTTTTTTTTT FDIK        TELAPSE       60.45 TCPU     1543.77
 INSULATING STATE
 TOP OF VALENCE BANDS -    BAND     99; K    1; EIG -2.3801610E-01 AU
 BOTTOM OF VIRTUAL BANDS - BAND    100; K    1; EIG -8.7413602E-02 AU
 DIRECT ENERGY BAND GAP:   4.0981 eV
 TTTTTTTTTTTTTTTTTTTTTTTTTTTTTT PDIG        TELAPSE       60.74 TCPU     1549.92
 CHARGE NORMALIZATION FACTOR   1.00000000
 TOTAL ATOMIC CHARGES:
   4.4815447   4.4826864   4.4819771   4.4822988   4.4826299   4.4808810
   0.8736944   0.8740181   0.8753812   0.8752013   0.8711553   0.8710489
   0.8710390   0.8710661   0.8753993   0.8751464   0.8736510   0.8737530
   5.9421980   6.1553934   6.1553260   6.1753925   6.1790804   5.9459656
   5.9508503   6.1653981   6.1678038   6.1667385   6.1666906   5.9536190
   5.9417661   6.1751139   6.1797018   6.1553255   6.1555925   5.9464013
   8.4873086   8.4874833   8.4996509   8.4869461   8.5007399   8.4869421
 TTTTTTTTTTTTTTTTTTTTTTTTTTTTTT MOQGAD      TELAPSE       60.79 TCPU     1549.97
 TTTTTTTTTTTTTTTTTTTTTTTTTTTTTT SHELLXN     TELAPSE       71.33 TCPU     1886.29
 TTTTTTTTTTTTTTTTTTTTTTTTTTTTTT MONMO3      TELAPSE       71.50 TCPU     1891.76
 NUMERICALLY INTEGRATED DENSITY    198.0000227839
 TTTTTTTTTTTTTTTTTTTTTTTTTTTTTT NUMDFT      TELAPSE       72.15 TCPU     1912.30
 CYC   4 ETOT(AU) -1.289117027894E+03 DETOT -2.33E-03 tst  3.28E-05 PX  1.20E-02
 TTTTTTTTTTTTTTTTTTTTTTTTTTTTTT DIIS        TELAPSE       72.20 TCPU     1914.14
 DIIS TEST: 0.40953E-02 AT SCF   CYCLE   4 - DIIS ACTIVE - HISTORY:     4 CYCLES
 TTTTTTTTTTTTTTTTTTTTTTTTTTTTTT FDIK        TELAPSE       72.67 TCPU     1929.16
 INSULATING STATE
 TOP OF VALENCE BANDS -    BAND     99; K    1; EIG -2.3549351E-01 AU
 BOTTOM OF VIRTUAL BANDS - BAND    100; K    1; EIG -8.6491932E-02 AU
 DIRECT ENERGY BAND GAP:   4.0545 eV
 TTTTTTTTTTTTTTTTTTTTTTTTTTTTTT PDIG        TELAPSE       72.97 TCPU     1935.31
 CHARGE NORMALIZATION FACTOR   1.00000000
 TOTAL ATOMIC CHARGES:
   4.4813830   4.4857750   4.4851644   4.4845976   4.4848194   4.4797641
   0.8762617   0.8764345   0.8788415   0.8789378   0.8749020   0.8751408
   0.8749740   0.8749740   0.8787549   0.8789858   0.8761532   0.8762308
   5.9242452   6.1630966   6.1633599   6.1745768   6.1726206   5.9217254
   5.9307825   6.1676522   6.1672920   6.1676978   6.1674595   5.9294647
   5.9247254   6.1748283   6.1726736   6.1630139   6.1636132   5.9213213
   8.5007317   8.5010263   8.5021084   8.5009921   8.5016679   8.5012301
 TTTTTTTTTTTTTTTTTTTTTTTTTTTTTT MOQGAD      TELAPSE       73.02 TCPU     1935.36
 TTTTTTTTTTTTTTTTTTTTTTTTTTTTTT SHELLXN     TELAPSE       83.57 TCPU     2271.73
 TTTTTTTTTTTTTTTTTTTTTTTTTTTTTT MONMO3      TELAPSE       83.74 TCPU     2277.20
 NUMERICALLY INTEGRATED DENSITY    198.0000227749
 TTTTTTTTTTTTTTTTTTTTTTTTTTTTTT NUMDFT      TELAPSE       84.38 TCPU     2297.66
 CYC   5 ETOT(AU) -1.289117961528E+03 DETOT -9.34E-04 tst  6.01E-06 PX  7.10E-03
 TTTTTTTTTTTTTTTTTTTTTTTTTTTTTT DIIS        TELAPSE       84.44 TCPU     2299.78
 DIIS TEST: 0.12709E-03 AT SCF   CYCLE   5 - DIIS ACTIVE - HISTORY:     5 CYCLES
 TTTTTTTTTTTTTTTTTTTTTTTTTTTTTT FDIK        TELAPSE       84.92 TCPU     2314.83
 INSULATING STATE
 TOP OF VALENCE BANDS -    BAND     99; K    1; EIG -2.3524697E-01 AU
 BOTTOM OF VIRTUAL BANDS - BAND    100; K    1; EIG -8.5958510E-02 AU
 DIRECT ENERGY BAND GAP:   4.0623 eV
 TTTTTTTTTTTTTTTTTTTTTTTTTTTTTT PDIG        TELAPSE       85.21 TCPU     2320.98
 CHARGE NORMALIZATION FACTOR   1.00000000
 TOTAL ATOMIC CHARGES:
   4.4814709   4.4843552   4.4837362   4.4841605   4.4844361   4.4809696
   0.8773065   0.8776330   0.8800112   0.8797572   0.8759854   0.8759158
   0.8759215   0.8758904   0.8800190   0.8797116   0.8772438   0.8773885
   5.9194589   6.1616882   6.1619596   6.1712902   6.1761659   5.9258284
   5.9288213   6.1654034   6.1679396   6.1665066   6.1670154   5.9333087
   5.9194241   6.1710209   6.1767545   6.1617006   6.1620992   5.9259232
   8.4990313   8.4991736   8.5042784   8.4988465   8.5055825   8.4988667
 TTTTTTTTTTTTTTTTTTTTTTTTTTTTTT MOQGAD      TELAPSE       85.26 TCPU     2321.03
 TTTTTTTTTTTTTTTTTTTTTTTTTTTTTT SHELLXN     TELAPSE       95.81 TCPU     2657.62
 TTTTTTTTTTTTTTTTTTTTTTTTTTTTTT MONMO3      TELAPSE       95.98 TCPU     2663.08
 NUMERICALLY INTEGRATED DENSITY    198.0000228083
 TTTTTTTTTTTTTTTTTTTTTTTTTTTTTT NUMDFT      TELAPSE       96.62 TCPU     2683.57
 CYC   6 ETOT(AU) -1.289117963465E+03 DETOT -1.94E-06 tst  1.44E-06 PX  1.40E-03
 TTTTTTTTTTTTTTTTTTTTTTTTTTTTTT DIIS        TELAPSE       96.69 TCPU     2685.78
 DIIS TEST: 0.12633E-03 AT SCF   CYCLE   6 - DIIS ACTIVE - HISTORY:     6 CYCLES
 TTTTTTTTTTTTTTTTTTTTTTTTTTTTTT FDIK        TELAPSE       97.16 TCPU     2700.74
 INSULATING STATE
 TOP OF VALENCE BANDS -    BAND     99; K    1; EIG -2.3527148E-01 AU
 BOTTOM OF VIRTUAL BANDS - BAND    100; K    1; EIG -8.5981934E-02 AU
 DIRECT ENERGY BAND GAP:   4.0624 eV
 TTTTTTTTTTTTTTTTTTTTTTTTTTTTTT PDIG        TELAPSE       97.45 TCPU     2706.89
 CHARGE NORMALIZATION FACTOR   1.00000000
 TOTAL ATOMIC CHARGES:
   4.4816696   4.4849627   4.4843562   4.4840275   4.4842730   4.4803760
   0.8773352   0.8775883   0.8798374   0.8798372   0.8758596   0.8759934
   0.8758701   0.8758927   0.8797940   0.8798413   0.8772551   0.8773589
   5.9234752   6.1617800   6.1617925   6.1734666   6.1733044   5.9229875
   5.9313094   6.1663343   6.1667974   6.1668319   6.1664898   5.9312497
   5.9236418   6.1734831   6.1736033   6.1616829   6.1620522   5.9228819
   8.4992516   8.4995010   8.5035288   8.4993211   8.5036268   8.4994787
 TTTTTTTTTTTTTTTTTTTTTTTTTTTTTT MOQGAD      TELAPSE       97.51 TCPU     2706.95
 TTTTTTTTTTTTTTTTTTTTTTTTTTTTTT SHELLXN     TELAPSE      108.05 TCPU     3043.36
 TTTTTTTTTTTTTTTTTTTTTTTTTTTTTT MONMO3      TELAPSE      108.22 TCPU     3048.82
 NUMERICALLY INTEGRATED DENSITY    198.0000228114
 TTTTTTTTTTTTTTTTTTTTTTTTTTTTTT NUMDFT      TELAPSE      108.86 TCPU     3069.28
 CYC   7 ETOT(AU) -1.289117994271E+03 DETOT -3.08E-05 tst  8.04E-07 PX  1.01E-03
 TTTTTTTTTTTTTTTTTTTTTTTTTTTTTT DIIS        TELAPSE      108.94 TCPU     3071.76
 DIIS TEST: 0.52943E-05 AT SCF   CYCLE   7 - DIIS ACTIVE - HISTORY:     7 CYCLES
 TTTTTTTTTTTTTTTTTTTTTTTTTTTTTT FDIK        TELAPSE      109.41 TCPU     3086.84
 INSULATING STATE
 TOP OF VALENCE BANDS -    BAND     99; K    1; EIG -2.3529251E-01 AU
 BOTTOM OF VIRTUAL BANDS - BAND    100; K    1; EIG -8.6029716E-02 AU
 DIRECT ENERGY BAND GAP:   4.0616 eV
 TTTTTTTTTTTTTTTTTTTTTTTTTTTTTT PDIG        TELAPSE      109.70 TCPU     3092.99
 CHARGE NORMALIZATION FACTOR   1.00000000
 TOTAL ATOMIC CHARGES:
   4.4815507   4.4850936   4.4844857   4.4843029   4.4845433   4.4803865
   0.8772765   0.8775106   0.8797946   0.8797483   0.8758168   0.8759329
   0.8758381   0.8758205   0.8797421   0.8797614   0.8771885   0.8772884
   5.9228936   6.1617026   6.1619798   6.1729087   6.1735970   5.9238090
   5.9306493   6.1661946   6.1669692   6.1666412   6.1667209   5.9316148
   5.9231578   6.1729724   6.1738464   6.1616454   6.1622025   5.9236089
   8.4995545   8.4997969   8.5029001   8.4996359   8.5031247   8.4997923
 TTTTTTTTTTTTTTTTTTTTTTTTTTTTTT MOQGAD      TELAPSE      109.76 TCPU     3093.04
 TTTTTTTTTTTTTTTTTTTTTTTTTTTTTT SHELLXN     TELAPSE      120.31 TCPU     3429.44
 TTTTTTTTTTTTTTTTTTTTTTTTTTTTTT MONMO3      TELAPSE      120.48 TCPU     3434.91
 NUMERICALLY INTEGRATED DENSITY    198.0000228028
 TTTTTTTTTTTTTTTTTTTTTTTTTTTTTT NUMDFT      TELAPSE      121.12 TCPU     3455.36
 CYC   8 ETOT(AU) -1.289117995221E+03 DETOT -9.50E-07 tst  2.56E-08 PX  2.26E-04
 TTTTTTTTTTTTTTTTTTTTTTTTTTTTTT DIIS        TELAPSE      121.20 TCPU     3457.94
 DIIS TEST: 0.61640E-06 AT SCF   CYCLE   8 - DIIS ACTIVE - HISTORY:     8 CYCLES
 TTTTTTTTTTTTTTTTTTTTTTTTTTTTTT FDIK        TELAPSE      121.67 TCPU     3473.00
 INSULATING STATE
 TOP OF VALENCE BANDS -    BAND     99; K    1; EIG -2.3530129E-01 AU
 BOTTOM OF VIRTUAL BANDS - BAND    100; K    1; EIG -8.6037218E-02 AU
 DIRECT ENERGY BAND GAP:   4.0617 eV
 TTTTTTTTTTTTTTTTTTTTTTTTTTTTTT PDIG        TELAPSE      121.98 TCPU     3479.16
 CHARGE NORMALIZATION FACTOR   1.00000000
 TOTAL ATOMIC CHARGES:
   4.4816424   4.4850942   4.4844805   4.4842743   4.4845219   4.4804568
   0.8772476   0.8774985   0.8797816   0.8797423   0.8758054   0.8759154
   0.8758132   0.8758165   0.8797399   0.8797448   0.8771640   0.8772721
   5.9229155   6.1617699   6.1619056   6.1730353   6.1736446   5.9235628
   5.9307476   6.1662262   6.1669862   6.1667630   6.1666444   5.9314429
   5.9231152   6.1730410   6.1739530   6.1617101   6.1621287   5.9234275
   8.4994608   8.4996934   8.5031954   8.4995126   8.5034518   8.4996552
 TTTTTTTTTTTTTTTTTTTTTTTTTTTTTT MOQGAD      TELAPSE      122.03 TCPU     3479.22
 TTTTTTTTTTTTTTTTTTTTTTTTTTTTTT SHELLXN     TELAPSE      132.58 TCPU     3815.54
 +++ ENERGIES IN A.U. +++
 ::: EXT EL-POLE                                  -1.4691966422434E+03
 ::: EXT EL-SPHEROPOLE                             1.6386436375224E+01
 ::: BIELET ZONE E-E                               2.3492933855858E+03
 ::: TOTAL E-E                                     8.9648317971765E+02
 ::: TOTAL E-N + N-E                              -3.6181963804262E+03
 ::: TOTAL N-N                                     2.8638975320551E+02
 ::: KINETIC ENERGY                                1.2799220469115E+03
 ::: PSEUDO TOTAL   ENERGY                        -1.1554014005915E+03
 ::: VIRIAL COEFFICIENT                            1.0511310505583E+00
 TTTTTTTTTTTTTTTTTTTTTTTTTTTTTT MONMO3      TELAPSE      132.75 TCPU     3821.01
 NUMERICALLY INTEGRATED DENSITY    198.0000228062
 EXCHANGE ENERGY: -0.126015985775E+03  CORRELATION ENERGY: -0.770060897832E+01
 TTTTTTTTTTTTTTTTTTTTTTTTTTTTTT NUMDFT      TELAPSE      133.39 TCPU     3841.48
 CYC   9 ETOT(AU) -1.289117995345E+03 DETOT -1.24E-07 tst  1.60E-09 PX  2.26E-04

 == SCF ENDED - CONVERGENCE ON ENERGY      E(AU) -1.2891179953451E+03 CYCLES   9


 ENERGY EXPRESSION=HARTREE+FOCK EXCH*0.00000+(HSESOL     EXCH)*1.00000+PBESOL     CORR


 TOTAL ENERGY(DFT)(AU)(  9) -1.2891179953451E+03 DE-1.2E-07 tester 1.6E-09
 TTTTTTTTTTTTTTTTTTTTTTTTTTTTTT EDFT        TELAPSE      133.39 TCPU     3841.48
 
 INFORMATION **** DFTD3 ENERGY **** CALCULATE DFTD3 ENERGY

           DFT-D V3(BJ)
 DF                                         hsesol3c  
 parameters
 s6       :    1.0000
 s8       :    0.0000
 a1       :    0.5196
 a2       :    4.9385
 k1 k3    :   16.0000   -4.0000
 Cutoff   :   50.2022
 CN-Cutoff:   21.1671
 ABC-Cutoff:   21.1671
 
 Edisp /kcal,au:   -29.8007 -0.04749043

 E6    /kcal :   -31.8304
 E8    /kcal :     0.0000
 E6(ABC) "   :   2.029735
 
 INFORMATION **** DFTD3 ENERGY **** NORMAL TERMINATION OF DFTD3 MODULE

 GCP ENERGY CALCULATION
  level        hsesol3c            basis:hsesol3c
  Nbf            474
  Atoms           42

  Parameters: 
  sigma     1.0000
  eta       1.4281
  alpha     0.2936
  beta      1.9467

  dmp_scal      4.0000
  dmp_exp       6.0000
 cutoffs: 
   distance [bohr] 60.0
   noise    [a.u.] 2.2E-16
 SR-damping   T
 ** gCP correction **
  Egcp:        0.0835266096 / (a.u.) ||      52.4137 / (kcal/mol)
 INFORMATION **** GCP **** NORMAL TERMINATION OF GCP MODULE

 *******************************************************************************

 DFT-D3-GCP DISPERSION AND COUNTERPOISE CORRECTION

 D3 DISPERSION ENERGY (AU)      -4.7490433346687E-02
 GCP ENERGY (AU)                 8.3526609604753E-02
 TOTAL ENERGY + DISP + GCP (AU) -1.2890819591689E+03

 *******************************************************************************

 EIGENVECTORS IN FORTRAN UNIT 10
 TTTTTTTTTTTTTTTTTTTTTTTTTTTTTT END         TELAPSE      134.79 TCPU     3848.85
 EEEEEEEEEE TERMINATION  DATE 19 02 2026 TIME 18:27:02.3
