 Default number of threads is:           32

         
 *******************************************************************************
 *                                                                             *
 *                               CRYSTAL23                                     *
 *                      public : 1.0.1 - October 2022                          *
 *                       HTTP://WWW.CRYSTAL.UNITO.IT                           *
 *                                                                             *
 *                              MAIN AUTHORS                                   *
 *                                                                             *
 *  R. DOVESI(1,11), V.R. SAUNDERS(2), C. ROETTI(1,11), R. ORLANDO(1,11),      *
 *  C.M. ZICOVICH-WILSON(1,3), F. PASCALE(4), B. CIVALLERI(1,11),              *
 *  K. DOLL(5), N.M. HARRISON(6), I.J. BUSH(7), Ph. D'ARCO(8),                 *
 *  M. LLUNELL(9), M. CAUSA'(10), Y. NOEL(8), L. MASCHIO(1,11), A. ERBA(1,11)  *
 *  M. RE'RAT(14), S. CASASSA(1,11), B.G. SEARLE(2), J.K. DESMARAIS(1)         *
 *                                                                             *
 *        CONTRIBUTIONS TO THE CODE HAVE ALSO BEEN GIVEN BY                    *
 *                                                                             *
 *  M. FERRABONE(1,11), M. DE LA PIERRE(1,11), M. FERRERO(1,11),               *
 *  J. BAIMA(1,11), E. ALBANESE(1,11), M.F. PEINTINGER(12), R. BAST(13),       *
 *  B. KIRTMAN(15), V. LACIVITA(1,11), R. DEMICHELIS(1,16)                     *
 *  G. BRANDEBURG(17), S. SALUSTRO(1,11), G. SANSONE(1,11)                     *
 *  M.T. RUGGIERO(18), L.E. DAGA(1), L. DONA'(1), A. COSSARD(1)                *
 *                                                                             *
 * (1) THEORETICAL CHEMISTRY GROUP - UNIVERSITA' DI TORINO - TORINO (ITALY)    *
 * (2) SCIENTIFIC COMPUTING DEPARTMENT - STFC DARESBURY (UK)                   *
 * (3) UNIVERSIDAD AUTONOMA DEL ESTADO DE MORELOS - CUERNAVACA (MEXICO)        *
 * (4) UNIVERSITE' DE LORRAINE - NANCY (FRANCE)                                *
 * (5) UNIVERSITAET STUTTGART- STUTTGART (GERMANY)                             *
 * (6) IMPERIAL COLLEGE - LONDON (UK)                                          *
 * (7) SCIENTIFIC COMPUTING DEPARTMENT - STFC RAL (UK)                         *
 * (8) UPMC - SORBONNE UNIVERSITES - PARIS (FRANCE)                            *
 * (9) UNIVERSIDAD DE BARCELONA - BARCELONA (SPAIN)                            *
 *(10) UNIVERSITA' DI NAPOLI "FEDERICO II" - NAPOLI (ITALY)                    *
 *(11) NIS - NANOSTRUCTURED INTERFACES AND SURFACES - TORINO (ITALY)           *
 *(12) MPI FUER CHEMISCHE ENERGIEKONVERSION - MUELHEIM AN DER RUHR (GERMANY)   *
 *(13) UNIVERSITY OF TROMSO - TROMSO (NORWAY)                                  *
 *(14) UNIVERSITE' DE PAU ET DES PAYS DE L'ADOUR - PAU (FRANCE)                *
 *(15) UNIVERSITY OF CALIFORNIA SANTA BARBARA - SANTA BARBARA (USA)            *
 *(16) CURTIN UNIVERSITY - PERTH (AUSTRALIA)                                   *
 *(17) UNIVERSITY COLLEGE LONDON - LONDON (UK)                                 *
 *(18) UNIVERSITY OF VERMONT - BURLINGTON (USA)                                *
 *                                                                             *
 *******************************************************************************
 EEEEEEEEEE STARTING  DATE 19 02 2026 TIME 18:36:03.7
 cof-1_z36_L010_incl                                                             

 CRYSTAL CALCULATION
 (INPUT ACCORDING TO THE INTERNATIONAL TABLES FOR X-RAY CRYSTALLOGRAPHY)
 CRYSTAL FAMILY                       :  TRICLINIC   
 CRYSTAL CLASS  (GROTH - 1921)        :  TRICLINIC PEDIAL                     

 SPACE GROUP (NONCENTROSYMMETRIC)     :  P 1             

 LATTICE PARAMETERS  (ANGSTROMS AND DEGREES) - CONVENTIONAL CELL
        A           B           C        ALPHA        BETA       GAMMA
    15.02361    15.02392     3.73631    76.59750    89.99995   119.99596


 NUMBER OF IRREDUCIBLE ATOMS IN THE CONVENTIONAL CELL:   42

 INPUT COORDINATES

 ATOM AT. N.              COORDINATES
   1   5     5.944179500000E-01  1.887891200000E-01  5.013260400000E-01
   2   5     7.534736100000E-01  3.478487800000E-01  5.013260600000E-01
   3   5     5.945208700000E-01  3.480459800000E-01  4.985362900000E-01
   4   5     2.079926600000E-01  5.751041200000E-01  5.013260500000E-01
   5   5     3.671006300000E-01  5.750833500000E-01  5.013260400000E-01
   6   5     3.671881000000E-01  7.344369600000E-01  4.985362900000E-01
   7   1     8.840032600000E-01  2.708454600000E-01  4.955423000000E-01
   8   1     7.762815000000E-02  6.530368200000E-01  4.946578700000E-01
   9   1     8.839702700000E-01  5.560662700000E-01  4.945217500000E-01
  10   1     7.773373000000E-02  3.676761800000E-01  4.945557000000E-01
  11   1     6.716495400000E-01  5.823447000000E-02  5.044560900000E-01
  12   1     2.895128800000E-01  8.645996800000E-01  5.053405900000E-01
  13   1     3.864479200000E-01  5.820188000000E-02  5.054767900000E-01
  14   1     5.748914500000E-01  8.645018500000E-01  5.054426100000E-01
  15   1     6.720323800000E-01  5.559696200000E-01  4.955423500000E-01
  16   1     2.899554600000E-01  3.675927200000E-01  4.946578200000E-01
  17   1     3.868394300000E-01  2.708171000000E-01  4.945216400000E-01
  18   1     5.752884300000E-01  6.529491600000E-01  4.945558100000E-01
  19   6     8.727388300000E-01  4.076368400000E-01  4.984342100000E-01
  20   6     9.274435200000E-01  3.546905800000E-01  4.956784000000E-01
  21   6     3.435168000000E-02  5.691085500000E-01  4.954403400000E-01
  22   6     9.273882200000E-01  5.155605300000E-01  4.961547900000E-01
  23   6     3.443304000000E-02  4.082595100000E-01  4.943175500000E-01
  24   6     8.897069000000E-02  5.159013600000E-01  4.961887800000E-01
  25   6     5.347676800000E-01  6.962106000000E-02  5.015642100000E-01
  26   6     5.878002200000E-01  1.479675000000E-02  5.043199700000E-01
  27   6     3.734118900000E-01  9.078856700000E-01  5.045581200000E-01
  28   6     4.269282500000E-01  1.488027000000E-02  5.038436900000E-01
  29   6     5.342869400000E-01  9.077597800000E-01  5.056808100000E-01
  30   6     4.265698900000E-01  8.532720900000E-01  5.038096300000E-01
  31   6     5.348933900000E-01  4.075677000000E-01  4.984342100000E-01
  32   6     5.881646300000E-01  5.155307300000E-01  4.956784600000E-01
  33   6     3.737869300000E-01  4.080952800000E-01  4.954402800000E-01
  34   6     4.272233700000E-01  3.545583300000E-01  4.961547100000E-01
  35   6     5.347496600000E-01  5.691075300000E-01  4.943176200000E-01
  36   6     4.268947800000E-01  5.158239600000E-01  4.961887800000E-01
  37   8     5.415525200000E-01  2.419984200000E-01  4.992847500000E-01
  38   8     7.002713900000E-01  2.415537700000E-01  5.051704900000E-01
  39   8     7.006103000000E-01  4.011813400000E-01  4.962908700000E-01
  40   8     2.611403500000E-01  6.812788900000E-01  4.992847800000E-01
  41   8     2.609336600000E-01  5.218710500000E-01  5.051704800000E-01
  42   8     4.201947200000E-01  6.814933000000E-01  4.962908500000E-01

 *******************************************************************************

 << INFORMATION >>: FROM NOW ON, ALL COORDINATES REFER TO THE PRIMITIVE CELL

 *******************************************************************************

 LATTICE PARAMETERS  (ANGSTROMS AND DEGREES) - PRIMITIVE CELL
       A          B          C        ALPHA      BETA     GAMMA        VOLUME
   15.02361   15.02392    3.73631    76.59750  89.99995 119.99596    703.734670

 COORDINATES OF THE EQUIVALENT ATOMS (FRACTIONAL UNITS)

 N. ATOM EQUIV AT. N.          X                  Y                  Z

   1   1   1    5 B    -4.05582050000E-01  1.88789120000E-01 -4.98673960000E-01

   2   2   1    5 B    -2.46526390000E-01  3.47848780000E-01 -4.98673940000E-01

   3   3   1    5 B    -4.05479130000E-01  3.48045980000E-01  4.98536290000E-01

   4   4   1    5 B     2.07992660000E-01 -4.24895880000E-01 -4.98673950000E-01

   5   5   1    5 B     3.67100630000E-01 -4.24916650000E-01 -4.98673960000E-01

   6   6   1    5 B     3.67188100000E-01 -2.65563040000E-01  4.98536290000E-01

   7   7   1    1 H    -1.15996740000E-01  2.70845460000E-01  4.95542300000E-01

   8   8   1    1 H     7.76281500000E-02 -3.46963180000E-01  4.94657870000E-01

   9   9   1    1 H    -1.16029730000E-01 -4.43933730000E-01  4.94521750000E-01

  10  10   1    1 H     7.77337300000E-02  3.67676180000E-01  4.94555700000E-01

  11  11   1    1 H    -3.28350460000E-01  5.82344700000E-02 -4.95543910000E-01

  12  12   1    1 H     2.89512880000E-01 -1.35400320000E-01 -4.94659410000E-01

  13  13   1    1 H     3.86447920000E-01  5.82018800000E-02 -4.94523210000E-01

  14  14   1    1 H    -4.25108550000E-01 -1.35498150000E-01 -4.94557390000E-01

  15  15   1    1 H    -3.27967620000E-01 -4.44030380000E-01  4.95542350000E-01

  16  16   1    1 H     2.89955460000E-01  3.67592720000E-01  4.94657820000E-01

  17  17   1    1 H     3.86839430000E-01  2.70817100000E-01  4.94521640000E-01

  18  18   1    1 H    -4.24711570000E-01 -3.47050840000E-01  4.94555810000E-01

  19  19   1    6 C    -1.27261170000E-01  4.07636840000E-01  4.98434210000E-01

  20  20   1    6 C    -7.25564800000E-02  3.54690580000E-01  4.95678400000E-01

  21  21   1    6 C     3.43516800000E-02 -4.30891450000E-01  4.95440340000E-01

  22  22   1    6 C    -7.26117800000E-02 -4.84439470000E-01  4.96154790000E-01

  23  23   1    6 C     3.44330400000E-02  4.08259510000E-01  4.94317550000E-01

  24  24   1    6 C     8.89706900000E-02 -4.84098640000E-01  4.96188780000E-01

  25  25   1    6 C    -4.65232320000E-01  6.96210600000E-02 -4.98435790000E-01

  26  26   1    6 C    -4.12199780000E-01  1.47967500000E-02 -4.95680030000E-01

  27  27   1    6 C     3.73411890000E-01 -9.21143300000E-02 -4.95441880000E-01

  28  28   1    6 C     4.26928250000E-01  1.48802700000E-02 -4.96156310000E-01

  29  29   1    6 C    -4.65713060000E-01 -9.22402200000E-02 -4.94319190000E-01

  30  30   1    6 C     4.26569890000E-01 -1.46727910000E-01 -4.96190370000E-01

  31  31   1    6 C    -4.65106610000E-01  4.07567700000E-01  4.98434210000E-01

  32  32   1    6 C    -4.11835370000E-01 -4.84469270000E-01  4.95678460000E-01

  33  33   1    6 C     3.73786930000E-01  4.08095280000E-01  4.95440280000E-01

  34  34   1    6 C     4.27223370000E-01  3.54558330000E-01  4.96154710000E-01

  35  35   1    6 C    -4.65250340000E-01 -4.30892470000E-01  4.94317620000E-01

  36  36   1    6 C     4.26894780000E-01 -4.84176040000E-01  4.96188780000E-01

  37  37   1    8 O    -4.58447480000E-01  2.41998420000E-01  4.99284750000E-01

  38  38   1    8 O    -2.99728610000E-01  2.41553770000E-01 -4.94829510000E-01

  39  39   1    8 O    -2.99389700000E-01  4.01181340000E-01  4.96290870000E-01

  40  40   1    8 O     2.61140350000E-01 -3.18721110000E-01  4.99284780000E-01

  41  41   1    8 O     2.60933660000E-01 -4.78128950000E-01 -4.94829520000E-01

  42  42   1    8 O     4.20194720000E-01 -3.18506700000E-01  4.96290850000E-01

 NUMBER OF SYMMETRY OPERATORS         :    1
 *******************************************************************************
 * GEOMETRY EDITING - INPUT COORDINATES ARE GIVEN IN ANGSTROM         
 *******************************************************************************

 GCALCO - MAX INDICES DIRECT LATTICE VECTOR     9    10    34
 NO.OF VECTORS CREATED 6999 STARS 3500 RMAX   199.13466 BOHR

 GEOMETRY FOR WAVE FUNCTION - DIMENSIONALITY OF THE SYSTEM    3
 (NON PERIODIC DIRECTION: LATTICE PARAMETER FORMALLY SET TO 500)
 *******************************************************************************
 LATTICE PARAMETERS (ANGSTROMS AND DEGREES) - BOHR = 0.5291772083 ANGSTROM
 PRIMITIVE CELL - CENTRING CODE 1/0 VOLUME=   703.734670 - DENSITY  0.921 g/cm^3
         A              B              C           ALPHA      BETA       GAMMA 
    15.02361100    15.02391600     3.73630800    76.597498  89.999946 119.995964
 *******************************************************************************
 ATOMS IN THE ASYMMETRIC UNIT   42 - ATOMS IN THE UNIT CELL:   42
     ATOM                 X/A                 Y/B                 Z/C    
 *******************************************************************************
      1 T   5 B    -4.055820500000E-01  1.887891200000E-01 -4.986739600000E-01
      2 T   5 B    -2.465263900000E-01  3.478487800000E-01 -4.986739400000E-01
      3 T   5 B    -4.054791300000E-01  3.480459800000E-01  4.985362900000E-01
      4 T   5 B     2.079926600000E-01 -4.248958800000E-01 -4.986739500000E-01
      5 T   5 B     3.671006300000E-01 -4.249166500000E-01 -4.986739600000E-01
      6 T   5 B     3.671881000000E-01 -2.655630400000E-01  4.985362900000E-01
      7 T   1 H    -1.159967400000E-01  2.708454600000E-01  4.955423000000E-01
      8 T   1 H     7.762815000000E-02 -3.469631800000E-01  4.946578700000E-01
      9 T   1 H    -1.160297300000E-01 -4.439337300000E-01  4.945217500000E-01
     10 T   1 H     7.773373000000E-02  3.676761800000E-01  4.945557000000E-01
     11 T   1 H    -3.283504600000E-01  5.823447000000E-02 -4.955439100000E-01
     12 T   1 H     2.895128800000E-01 -1.354003200000E-01 -4.946594100000E-01
     13 T   1 H     3.864479200000E-01  5.820188000000E-02 -4.945232100000E-01
     14 T   1 H    -4.251085500000E-01 -1.354981500000E-01 -4.945573900000E-01
     15 T   1 H    -3.279676200000E-01 -4.440303800000E-01  4.955423500000E-01
     16 T   1 H     2.899554600000E-01  3.675927200000E-01  4.946578200000E-01
     17 T   1 H     3.868394300000E-01  2.708171000000E-01  4.945216400000E-01
     18 T   1 H    -4.247115700000E-01 -3.470508400000E-01  4.945558100000E-01
     19 T   6 C    -1.272611700000E-01  4.076368400000E-01  4.984342100000E-01
     20 T   6 C    -7.255648000000E-02  3.546905800000E-01  4.956784000000E-01
     21 T   6 C     3.435168000000E-02 -4.308914500000E-01  4.954403400000E-01
     22 T   6 C    -7.261178000000E-02 -4.844394700000E-01  4.961547900000E-01
     23 T   6 C     3.443304000000E-02  4.082595100000E-01  4.943175500000E-01
     24 T   6 C     8.897069000000E-02 -4.840986400000E-01  4.961887800000E-01
     25 T   6 C    -4.652323200000E-01  6.962106000000E-02 -4.984357900000E-01
     26 T   6 C    -4.121997800000E-01  1.479675000000E-02 -4.956800300000E-01
     27 T   6 C     3.734118900000E-01 -9.211433000000E-02 -4.954418800000E-01
     28 T   6 C     4.269282500000E-01  1.488027000000E-02 -4.961563100000E-01
     29 T   6 C    -4.657130600000E-01 -9.224022000000E-02 -4.943191900000E-01
     30 T   6 C     4.265698900000E-01 -1.467279100000E-01 -4.961903700000E-01
     31 T   6 C    -4.651066100000E-01  4.075677000000E-01  4.984342100000E-01
     32 T   6 C    -4.118353700000E-01 -4.844692700000E-01  4.956784600000E-01
     33 T   6 C     3.737869300000E-01  4.080952800000E-01  4.954402800000E-01
     34 T   6 C     4.272233700000E-01  3.545583300000E-01  4.961547100000E-01
     35 T   6 C    -4.652503400000E-01 -4.308924700000E-01  4.943176200000E-01
     36 T   6 C     4.268947800000E-01 -4.841760400000E-01  4.961887800000E-01
     37 T   8 O    -4.584474800000E-01  2.419984200000E-01  4.992847500000E-01
     38 T   8 O    -2.997286100000E-01  2.415537700000E-01 -4.948295100000E-01
     39 T   8 O    -2.993897000000E-01  4.011813400000E-01  4.962908700000E-01
     40 T   8 O     2.611403500000E-01 -3.187211100000E-01  4.992847800000E-01
     41 T   8 O     2.609336600000E-01 -4.781289500000E-01 -4.948295200000E-01
     42 T   8 O     4.201947200000E-01 -3.185067000000E-01  4.962908500000E-01

 T = ATOM BELONGING TO THE ASYMMETRIC UNIT

 ****    1 SYMMOPS - TRANSLATORS IN FRACTIONAL UNITS
 **** MATRICES AND TRANSLATORS IN THE CRYSTALLOGRAPHIC REFERENCE FRAME
   V INV                    ROTATION MATRICES                   TRANSLATORS
   1   1  1.00 -0.00  0.00  0.00  1.00  0.00  0.00  0.00  1.00  0.00  0.00  0.00

 DIRECT LATTICE VECTORS CARTESIAN COMPONENTS (ANGSTROM)
          X                    Y                    Z
   0.130113578931E+02  -0.751088897922E+01   0.000000000000E+00
   0.000000000000E+00   0.150239160000E+02   0.000000000000E+00
   0.499931306756E+00   0.866040260773E+00   0.360000561473E+01


 CARTESIAN COORDINATES - PRIMITIVE CELL
 *******************************************************************************
 *      ATOM          X(ANGSTROM)         Y(ANGSTROM)         Z(ANGSTROM)
 *******************************************************************************
    1     5 B    -5.526475932018E+00  5.450761903748E+00 -1.795229055921E+00
    2     5 B    -3.456945804843E+00  6.645811488121E+00 -1.795228983921E+00
    3     5 B     7.484826406630E+00  3.293455550839E-01 -1.805272171585E+00
    4     5 B     2.456964218920E+00  6.646234494683E+00 -1.795229019921E+00
    5     5 B     4.527174955228E+00  5.450880140909E+00 -1.795229055921E+00
    6     5 B     5.026849682097E+00 -6.315953360658E+00  1.794733443148E+00
    7     1 H    -1.761469295732E+00  4.503517398055E+00 -1.816050552395E+00
    8     1 H     1.257342597572E+00 -5.367408456997E+00  1.780771109372E+00
    9     1 H    -1.262477438568E+00 -5.369860903440E+00  1.780281076608E+00
   10     1 H     7.587339520006E-01  4.502351514172E+00 -1.819602317935E+00
   11     1 H    -4.520023263891E+00  2.911952659878E+00 -1.783960858347E+00
   12     1 H     4.019591277845E+00 -3.771096837444E+00  1.819228961352E+00
   13     1 H     4.780984559551E+00 -2.456424276954E+00 -1.780286332616E+00
   14     1 H    -5.278552902941E+00  1.594963949180E+00  1.819596233925E+00
   15     1 H    -4.019566946565E+00 -3.778587121952E+00  1.783955242338E+00
   16     1 H     3.520077886699E+00  2.907212205167E+00 -1.819234685361E+00
   17     1 H     4.780601813824E+00  7.254607395407E-01 -1.819724934126E+00
   18     1 H    -5.278830306235E+00 -1.595795974772E+00  1.780403692799E+00
   19     6 C    -1.906589069578E+00  6.645769994334E+00 -1.805639660158E+00
   20     6 C    -1.196184485254E+00  5.437042335937E+00 -1.815560591631E+00
   21     6 C     6.946481393038E-01 -6.302617323397E+00  1.783588005765E+00
   22     6 C    -6.967345443137E-01 -6.303108862486E+00  1.786160029777E+00
   23     6 C     1.952141187536E-01  5.437092482918E+00 -1.820459659272E+00
   24     6 C     9.057584880090E-01  6.646288921582E+00 -1.813723220765E+00
   25     6 C     6.708870018291E+00 -3.402265178432E+00 -1.794371642584E+00
   26     6 C    -5.611084826150E+00  2.889013051469E+00 -1.784450891111E+00
   27     6 C     5.110840142579E+00 -3.751605559806E+00  1.816412064959E+00
   28     6 C     5.306872182993E+00 -3.412742101400E+00 -1.786165501785E+00
   29     6 C    -5.806753630986E+00  2.550049713290E+00  1.820453755263E+00
   30     6 C     5.802123711874E+00 -4.972027457017E+00  1.813717496757E+00
   31     6 C     6.708940891101E+00  1.671361853540E+00 -1.805639660158E+00
   32     6 C    -5.110732211851E+00 -3.756098372519E+00  1.784445239102E+00
   33     6 C     4.611230321821E+00  2.886748042120E+00 -1.816417824968E+00
   34     6 C     5.306868133115E+00  1.681676959283E+00 -1.813845872957E+00
   35     6 C    -5.806413829887E+00 -2.551149662500E+00  1.779546207461E+00
   36     6 C     5.302609763685E+00  4.107015747091E+00 -1.813723220765E+00
   37     8 O     6.796010426361E+00 -8.654164856052E-01 -1.802577711382E+00
   38     8 O    -4.147256979054E+00  5.451769585690E+00 -1.781389014336E+00
   39     8 O    -3.647355193024E+00 -6.318110574378E+00  1.786649918541E+00
   40     8 O     3.647398646677E+00 -6.317434639839E+00  1.797428011351E+00
   41     8 O     3.147720468050E+00  5.452160780292E+00 -1.781389050336E+00
   42     8 O    -7.295942673192E+00 -5.569614404237E-04  1.786649846541E+00

 *******************************************************************************
 STARTING BASIS SET HANDLING 
 *******************************************************************************

 Loading internal basis set: SOLDEF2MSVP         

 Please cite in your publication:
 L. Dona', J. G. Brandenburg and B. Civalleri, J. Chem. Phys., 151, 121101 (2019
 )                                                                              
                                                                                
                    

 *******************************************************************************
 LOCAL ATOMIC FUNCTIONS BASIS SET
 *******************************************************************************
   ATOM   X(AU)   Y(AU)   Z(AU)  N. TYPE  EXPONENT  S COEF   P COEF   D/F/G COEF
 *******************************************************************************
   1 B  -10.444  10.300  -3.392
                                  1 S  
                                         2.410E+03 1.755E-03 0.000E+00 0.000E+00
                                         3.619E+02 1.344E-02 0.000E+00 0.000E+00
                                         8.231E+01 6.637E-02 0.000E+00 0.000E+00
                                         2.311E+01 2.303E-01 0.000E+00 0.000E+00
                                         7.252E+00 5.150E-01 0.000E+00 0.000E+00
                                  2 S  
                                         2.367E+00 1.000E+00 0.000E+00 0.000E+00
                                  3 S  
                                         5.533E-01 1.000E+00 0.000E+00 0.000E+00
                                  4 S  
                                         1.716E-01 1.000E+00 0.000E+00 0.000E+00
                           5-     7 P  
                                         6.002E+00 0.000E+00-3.555E-02 0.000E+00
                                         1.240E+00 0.000E+00-1.983E-01 0.000E+00
                                         3.367E-01 0.000E+00-5.048E-01 0.000E+00
                           8-    10 P  
                                         1.256E-01 0.000E+00 1.000E+00 0.000E+00
                          11-    15 D  
                                         8.880E-01 0.000E+00 0.000E+00 1.000E+00
   2 B   -6.533  12.559  -3.392
   3 B   14.144   0.622  -3.411
   4 B    4.643  12.560  -3.392
   5 B    8.555  10.301  -3.392
   6 B    9.499 -11.935   3.392
   7 H   -3.329   8.510  -3.432
                                 91 S  
                                         1.874E+01 1.968E-02 0.000E+00 0.000E+00
                                         2.826E+00 1.380E-01 0.000E+00 0.000E+00
                                         6.401E-01 4.783E-01 0.000E+00 0.000E+00
                                 92 S  
                                         1.756E-01 1.000E+00 0.000E+00 0.000E+00
   8 H    2.376 -10.143   3.365
   9 H   -2.386 -10.148   3.364
  10 H    1.434   8.508  -3.439
  11 H   -8.542   5.503  -3.371
  12 H    7.596  -7.126   3.438
  13 H    9.035  -4.642  -3.364
  14 H   -9.975   3.014   3.439
  15 H   -7.596  -7.140   3.371
  16 H    6.652   5.494  -3.438
  17 H    9.034   1.371  -3.439
  18 H   -9.976  -3.016   3.364
  19 C   -3.603  12.559  -3.412
                                115 S  
                                         3.624E+03 1.634E-03 0.000E+00 0.000E+00
                                         5.440E+02 1.252E-02 0.000E+00 0.000E+00
                                         1.237E+02 6.211E-02 0.000E+00 0.000E+00
                                         3.476E+01 2.182E-01 0.000E+00 0.000E+00
                                         1.093E+01 4.980E-01 0.000E+00 0.000E+00
                                116 S  
                                         3.574E+00 1.000E+00 0.000E+00 0.000E+00
                                117 S  
                                         7.742E-01 1.000E+00 0.000E+00 0.000E+00
                                118 S  
                                         2.330E-01 1.000E+00 0.000E+00 0.000E+00
                         119-   121 P  
                                         9.443E+00 0.000E+00 3.790E-02 0.000E+00
                                         2.002E+00 0.000E+00 2.082E-01 0.000E+00
                                         5.463E-01 0.000E+00 5.047E-01 0.000E+00
                         122-   124 P  
                                         1.820E-01 0.000E+00 1.000E+00 0.000E+00
                         125-   129 D  
                                         8.880E-01 0.000E+00 0.000E+00 1.000E+00
  20 C   -2.260  10.275  -3.431
  21 C    1.313 -11.910   3.370
  22 C   -1.317 -11.911   3.375
  23 C    0.369  10.275  -3.440
  24 C    1.712  12.560  -3.427
  25 C   12.678  -6.429  -3.391
  26 C  -10.603   5.459  -3.372
  27 C    9.658  -7.090   3.433
  28 C   10.029  -6.449  -3.375
  29 C  -10.973   4.819   3.440
  30 C   10.964  -9.396   3.427
  31 C   12.678   3.158  -3.412
  32 C   -9.658  -7.098   3.372
  33 C    8.714   5.455  -3.433
  34 C   10.029   3.178  -3.428
  35 C  -10.973  -4.821   3.363
  36 C   10.020   7.761  -3.427
  37 O   12.843  -1.635  -3.406
                                385 S  
                                         6.773E+03 1.727E-03 0.000E+00 0.000E+00
                                         1.017E+03 1.325E-02 0.000E+00 0.000E+00
                                         2.313E+02 6.603E-02 0.000E+00 0.000E+00
                                         6.501E+01 2.353E-01 0.000E+00 0.000E+00
                                         2.050E+01 5.498E-01 0.000E+00 0.000E+00
                                386 S  
                                         6.716E+00 1.000E+00 0.000E+00 0.000E+00
                                387 S  
                                         1.147E+00 1.000E+00 0.000E+00 0.000E+00
                                388 S  
                                         3.342E-01 1.000E+00 0.000E+00 0.000E+00
                         389-   391 P  
                                         1.769E+01 0.000E+00 4.359E-02 0.000E+00
                                         3.854E+00 0.000E+00 2.318E-01 0.000E+00
                                         1.047E+00 0.000E+00 5.146E-01 0.000E+00
                         392-   394 P  
                                         2.759E-01 0.000E+00 1.000E+00 0.000E+00
                         395-   399 D  
                                         8.000E-01 0.000E+00 0.000E+00 1.000E+00
  38 O   -7.837  10.302  -3.366
  39 O   -6.893 -11.939   3.376
  40 O    6.893 -11.938   3.397
  41 O    5.948  10.303  -3.366
  42 O  -13.787  -0.001   3.376

 *******************************************************************************
 FINISHED BASIS SET HANDLING 
 *******************************************************************************

 INFORMATION **** SET_MPP **** PCRYSTAL CALCULATION
 INFORMATION **** READM2 **** NEW DEFAULT: FOCK/KS MATRIX MIXING SET TO 30 %
 INFORMATION **** READM2 **** NEW DEFAULT: FULL DIRECT SCF MODE
 INFORMATION **** READM2 **** NEW DEFAULT: COULOMB BIPOLAR BUFFER SET TO 32 Mb
 INFORMATION **** READM2 **** NEW DEFAULT: EXCHANGE BIPOLAR BUFFER SET TO 32 Mb

 *******************************************************************************
 NEW DEFAULT: DFT INTEGRATION GRID INCREASED TO XLGRID
 NEW DEFAULT: DIIS ACCELERATOR ACTIVE
 USE KEYWORD NODIIS TO TURN IT OFF
 *******************************************************************************

 WARNING **** RDDFTP **** HSEsol-HJS ACTIVE
 RANGE SEPARATION - OMEGA:   0.110000000000000     
 WARNING **** RDDFTP **** HSEsol-3c has to be combined with sol-def2-mSVP basis set
 *******************************************************************************
 N. OF ATOMS PER CELL        42  COULOMB OVERLAP TOL         (T1) 10**   -6
 NUMBER OF SHELLS           234  COULOMB PENETRATION TOL     (T2) 10**   -6
 NUMBER OF AO               474  EXCHANGE OVERLAP TOL        (T3) 10**   -6
 N. OF ELECTRONS PER CELL   198  EXCHANGE PSEUDO OVP (F(G))  (T4) 10**   -6
 CORE ELECTRONS PER CELL     60  EXCHANGE PSEUDO OVP (P(G))  (T5) 10**  -12
 N. OF SYMMETRY OPERATORS     1  POLE ORDER IN MONO ZONE                  4
 *******************************************************************************
 TYPE OF CALCULATION :  RESTRICTED CLOSED SHELL
 KOHN-SHAM HAMILTONIAN

 (EXCHANGE)[CORRELATION] FUNCTIONAL:(HSEsol GGA)[PBEsol]

 RANGE-SEPARATED HYBRID FUNCTIONAL 
 OMEGA (SHORT-RANGE)[LONG-RANGE]:(    0.1100)[    0.0000]

 HYBRID EXCHANGE - PERCENTAGE OF FOCK EXCHANGE    25.0000

 CAPPA:IS1  2;IS2  2;IS3  8; K PTS MONK NET  20; SYMMOPS:K SPACE   2;G SPACE   1

 *******************************************************************************
 MAX NUMBER OF SCF CYCLES      50  CONVERGENCE ON DELTAP        10**-16
 WEIGHT OF F(I) IN F(I+1)      30% CONVERGENCE ON ENERGY        10**- 6
 SHRINK. FACT.(MONKH.)    2  2  8  NUMBER OF K POINTS IN THE IBZ     20
 SHRINKING FACTOR(GILAT NET)    8  NUMBER OF K POINTS(GILAT NET)   1028
 *******************************************************************************
 *** K POINTS COORDINATES (OBLIQUE COORDINATES IN UNITS OF IS =  2)
   1-R(  0  0  0)   2-R(  1  0  0)   3-R(  0  1  0)   4-R(  1  1  0)
   5-C(  0  0  1)   6-C(  1  0  1)   7-C(  0  1  1)   8-C(  1  1  1)
   9-C(  0  0  2)  10-C(  1  0  2)  11-C(  0  1  2)  12-C(  1  1  2)
  13-C(  0  0  3)  14-C(  1  0  3)  15-C(  0  1  3)  16-C(  1  1  3)
  17-R(  0  0  4)  18-R(  1  0  4)  19-R(  0  1  4)  20-R(  1  1  4)

 DIRECT LATTICE VECTORS COMPON. (A.U.)     RECIP. LATTICE VECTORS COMPON. (A.U.) 
        X            Y            Z              X            Y            Z
   24.5879030  -14.1935232    0.0000000      0.2555397    0.0000000   -0.0354867
    0.0000000   28.3910867    0.0000000      0.1277517    0.2213084   -0.0709802
    0.9447333    1.6365789    6.8030247      0.0000000    0.0000000    0.9235870

 DISK SPACE FOR EIGENVECTORS (FTN 10)     7189632 REALS

 SYMMETRY ADAPTION OF THE BLOCH FUNCTIONS DISABLED
 TTTTTTTTTTTTTTTTTTTTTTTTTTTTTT gordsh1     TELAPSE        0.04 TCPU        0.04

 MATRIX SIZE: P(G)  370494, F(G)   77483, P(G) IRR  187638, F(G) IRR   78323
 MAX G-VECTOR INDEX FOR 1- AND 2-ELECTRON INTEGRALS  97

 TTTTTTTTTTTTTTTTTTTTTTTTTTTTTT INPUT       TELAPSE        0.29 TCPU        0.29

 NEIGHBORS OF THE NON-EQUIVALENT ATOMS

 N = NUMBER OF NEIGHBORS AT DISTANCE R
    ATOM  N     R/ANG      R/AU   NEIGHBORS (ATOM LABELS AND CELL INDICES)
   1 B    1     1.3791     2.6061   37 O   -1 0 0
   1 B    1     1.3793     2.6065   38 O    0 0 0
   1 B    1     1.5503     2.9297   25 C   -1 0 0
   1 B    1     2.3895     4.5155    3 B   -1 0 0
   1 B    1     2.3898     4.5160    2 B    0 0 0
   1 B    1     2.5632     4.8437   26 C    0 0 0

   2 B    1     1.3793     2.6065   39 O    0 1-1
   2 B    1     1.3793     2.6065   38 O    0 0 0
   2 B    1     1.5504     2.9298   19 C    0 0 0
   2 B    1     2.3895     4.5156    3 B   -1 0 0
   2 B    1     2.3898     4.5160    1 B    0 0 0
   2 B    1     2.5634     4.8440   22 C    0 1-1

   3 B    1     1.3791     2.6061   37 O    0 0 0
   3 B    1     1.3793     2.6064   39 O    1 1-1
   3 B    1     1.5502     2.9294   31 C    0 0 0
   3 B    1     2.3895     4.5155    1 B    1 0 0
   3 B    1     2.3895     4.5156    2 B    1 0 0
   3 B    1     2.5629     4.8433   32 C    1 1-1

   4 B    1     1.3795     2.6068   40 O    0 1-1
   4 B    1     1.3795     2.6070   41 O    0 0 0
   4 B    1     1.5513     2.9316   24 C    0 0 0
   4 B    1     2.3905     4.5174    6 B    0 1-1
   4 B    1     2.3905     4.5175    5 B    0 0 0
   4 B    1     2.5648     4.8468   23 C    0 0 0

   5 B    1     1.3795     2.6069   41 O    0 0 0
   5 B    1     1.3797     2.6072   42 O    1 1-1
   5 B    1     1.5516     2.9322   36 C    0 0 0
   5 B    1     2.3905     4.5175    4 B    0 0 0
   5 B    1     2.3911     4.5185    6 B    0 1-1
   5 B    1     2.5651     4.8473   35 C    1 1-1

   6 B    1     1.3795     2.6068   40 O    0 0 0
   6 B    1     1.3796     2.6071   42 O    1 0 0
   6 B    1     1.5516     2.9322   30 C    0 0 0
   6 B    1     2.3905     4.5174    4 B    0-1 1
   6 B    1     2.3911     4.5185    5 B    0-1 1
   6 B    1     2.5651     4.8473   29 C    1 0 0

   7 H    1     1.0913     2.0623   20 C    0 0 0
   7 H    1     2.1472     4.0576   19 C    0 0 0
   7 H    1     2.1680     4.0969   23 C    0 0 0
   7 H    1     2.5202     4.7625   10 H    0 0 0
   7 H    1     2.5676     4.8520   38 O    0 0 0
   7 H    1     2.7321     5.1630    2 B    0 0 0

   8 H    1     1.0914     2.0625   21 C    0 0 0
   8 H    1     2.1493     4.0616   24 C    0-1 1
   8 H    1     2.1666     4.0942   22 C    0 0 0
   8 H    1     2.5198     4.7618    9 H    0 0 0
   8 H    1     2.5720     4.8604   40 O    0 0 0
   8 H    1     2.7362     5.1707    4 B    0-1 1

   9 H    1     1.0914     2.0624   22 C    0 0 0
   9 H    1     2.1471     4.0575   19 C    0-1 1
   9 H    1     2.1680     4.0970   21 C    0 0 0
   9 H    1     2.5198     4.7618    8 H    0 0 0
   9 H    1     2.5665     4.8500   39 O    0 0 0
   9 H    1     2.7315     5.1618    2 B    0-1 1

  10 H    1     1.0915     2.0626   23 C    0 0 0
  10 H    1     2.1490     4.0610   24 C    0 0 0
  10 H    1     2.1669     4.0948   20 C    0 0 0
  10 H    1     2.5202     4.7625    7 H    0 0 0
  10 H    1     2.5712     4.8588   41 O    0 0 0
  10 H    1     2.7351     5.1686    4 B    0 0 0

  11 H    1     1.0913     2.0623   26 C    0 0 0
  11 H    1     2.1469     4.0571   25 C   -1 0 0
  11 H    1     2.1680     4.0968   29 C    0 0-1
  11 H    1     2.5198     4.7617   14 H    0 0-1
  11 H    1     2.5670     4.8510   38 O    0 0 0
  11 H    1     2.7310     5.1609    1 B    0 0 0

  12 H    1     1.0914     2.0625   27 C    0 0 0
  12 H    1     2.1493     4.0617   30 C    0 0 0
  12 H    1     2.1664     4.0939   28 C    0 0 1
  12 H    1     2.5192     4.7606   13 H    0 0 1
  12 H    1     2.5735     4.8632   40 O    0 0 0
  12 H    1     2.7371     5.1723    6 B    0 0 0

  13 H    1     1.0914     2.0624   28 C    0 0 0
  13 H    1     2.1475     4.0581   25 C    0 0 0
  13 H    1     2.1679     4.0967   27 C    0 0-1
  13 H    1     2.5192     4.7606   12 H    0 0-1
  13 H    1     2.5675     4.8519   37 O    0 0 0
  13 H    1     2.7328     5.1643    1 B    1 0 0

  14 H    1     1.0914     2.0625   29 C    0 0 0
  14 H    1     2.1491     4.0612   30 C   -1 0 0
  14 H    1     2.1666     4.0942   26 C    0 0 1
  14 H    1     2.5198     4.7617   11 H    0 0 1
  14 H    1     2.5723     4.8609   42 O    0 0 0
  14 H    1     2.7355     5.1693    6 B   -1 0 0

  15 H    1     1.0914     2.0624   32 C    0 0 0
  15 H    1     2.1475     4.0582   31 C   -1-1 1
  15 H    1     2.1678     4.0966   35 C    0 0 0
  15 H    1     2.5200     4.7621   18 H    0 0 0
  15 H    1     2.5667     4.8503   39 O    0 0 0
  15 H    1     2.7315     5.1618    3 B   -1-1 1

  16 H    1     1.0913     2.0623   33 C    0 0 0
  16 H    1     2.1487     4.0605   36 C    0 0 0
  16 H    1     2.1667     4.0945   34 C    0 0 0
  16 H    1     2.5197     4.7616   17 H    0 0 0
  16 H    1     2.5723     4.8610   41 O    0 0 0
  16 H    1     2.7359     5.1701    5 B    0 0 0

  17 H    1     1.0915     2.0626   34 C    0 0 0
  17 H    1     2.1479     4.0589   31 C    0 0 0
  17 H    1     2.1679     4.0968   33 C    0 0 0
  17 H    1     2.5197     4.7616   16 H    0 0 0
  17 H    1     2.5677     4.8522   37 O    0 0 0
  17 H    1     2.7331     5.1648    3 B    0 0 0

  18 H    1     1.0914     2.0624   35 C    0 0 0
  18 H    1     2.1486     4.0602   36 C   -1-1 1
  18 H    1     2.1668     4.0947   32 C    0 0 0
  18 H    1     2.5200     4.7621   15 H    0 0 0
  18 H    1     2.5717     4.8598   42 O    0 0 0
  18 H    1     2.7349     5.1682    5 B   -1-1 1

  19 C    1     1.4020     2.6495   22 C    0 1-1
  19 C    1     1.4021     2.6495   20 C    0 0 0
  19 C    1     1.5504     2.9298    2 B    0 0 0
  19 C    1     2.1471     4.0575    9 H    0 1-1
  19 C    1     2.1472     4.0576    7 H    0 0 0
  19 C    1     2.4246     4.5817   21 C    0 1-1

  20 C    1     1.0913     2.0623    7 H    0 0 0
  20 C    1     1.3914     2.6294   23 C    0 0 0
  20 C    1     1.4021     2.6495   19 C    0 0 0
  20 C    1     2.1669     4.0948   10 H    0 0 0
  20 C    1     2.4177     4.5688   22 C    0 1-1
  20 C    1     2.4250     4.5825   24 C    0 0 0

  21 C    1     1.0914     2.0625    8 H    0 0 0
  21 C    1     1.3914     2.6293   22 C    0 0 0
  21 C    1     1.4026     2.6505   24 C    0-1 1
  21 C    1     2.1680     4.0970    9 H    0 0 0
  21 C    1     2.4182     4.5697   23 C    0-1 1
  21 C    1     2.4246     4.5817   19 C    0-1 1

  22 C    1     1.0914     2.0624    9 H    0 0 0
  22 C    1     1.3914     2.6293   21 C    0 0 0
  22 C    1     1.4020     2.6495   19 C    0-1 1
  22 C    1     2.1666     4.0942    8 H    0 0 0
  22 C    1     2.4177     4.5688   20 C    0-1 1
  22 C    1     2.4250     4.5826   24 C    0-1 1

  23 C    1     1.0915     2.0626   10 H    0 0 0
  23 C    1     1.3914     2.6294   20 C    0 0 0
  23 C    1     1.4025     2.6504   24 C    0 0 0
  23 C    1     2.1680     4.0969    7 H    0 0 0
  23 C    1     2.4182     4.5697   21 C    0 1-1
  23 C    1     2.4246     4.5818   19 C    0 0 0

  24 C    1     1.4025     2.6504   23 C    0 0 0
  24 C    1     1.4026     2.6505   21 C    0 1-1
  24 C    1     1.5513     2.9316    4 B    0 0 0
  24 C    1     2.1490     4.0610   10 H    0 0 0
  24 C    1     2.1493     4.0616    8 H    0 1-1
  24 C    1     2.4250     4.5825   20 C    0 0 0

  25 C    1     1.4020     2.6494   26 C    1 0 0
  25 C    1     1.4021     2.6495   28 C    0 0 0
  25 C    1     1.5503     2.9297    1 B    1 0 0
  25 C    1     2.1469     4.0571   11 H    1 0 0
  25 C    1     2.1475     4.0581   13 H    0 0 0
  25 C    1     2.4246     4.5818   27 C    0 0-1

  26 C    1     1.0913     2.0623   11 H    0 0 0
  26 C    1     1.3914     2.6293   29 C    0 0-1
  26 C    1     1.4020     2.6494   25 C   -1 0 0
  26 C    1     2.1666     4.0942   14 H    0 0-1
  26 C    1     2.4175     4.5684   28 C   -1 0 0
  26 C    1     2.4251     4.5828   30 C   -1 0-1

  27 C    1     1.0914     2.0625   12 H    0 0 0
  27 C    1     1.3915     2.6295   28 C    0 0 1
  27 C    1     1.4026     2.6505   30 C    0 0 0
  27 C    1     2.1679     4.0967   13 H    0 0 1
  27 C    1     2.4179     4.5691   29 C    1 0 0
  27 C    1     2.4246     4.5818   25 C    0 0 1

  28 C    1     1.0914     2.0624   13 H    0 0 0
  28 C    1     1.3915     2.6295   27 C    0 0-1
  28 C    1     1.4021     2.6495   25 C    0 0 0
  28 C    1     2.1664     4.0939   12 H    0 0-1
  28 C    1     2.4175     4.5684   26 C    1 0 0
  28 C    1     2.4253     4.5832   30 C    0 0-1

  29 C    1     1.0914     2.0625   14 H    0 0 0
  29 C    1     1.3914     2.6293   26 C    0 0 1
  29 C    1     1.4025     2.6504   30 C   -1 0 0
  29 C    1     2.1680     4.0968   11 H    0 0 1
  29 C    1     2.4179     4.5691   27 C   -1 0 0
  29 C    1     2.4247     4.5819   25 C   -1 0 1

  30 C    1     1.4025     2.6504   29 C    1 0 0
  30 C    1     1.4026     2.6505   27 C    0 0 0
  30 C    1     1.5516     2.9322    6 B    0 0 0
  30 C    1     2.1491     4.0612   14 H    1 0 0
  30 C    1     2.1493     4.0617   12 H    0 0 0
  30 C    1     2.4251     4.5828   26 C    1 0 1

  31 C    1     1.4021     2.6496   32 C    1 1-1
  31 C    1     1.4021     2.6497   34 C    0 0 0
  31 C    1     1.5502     2.9294    3 B    0 0 0
  31 C    1     2.1475     4.0582   15 H    1 1-1
  31 C    1     2.1479     4.0589   17 H    0 0 0
  31 C    1     2.4244     4.5814   33 C    0 0 0

  32 C    1     1.0914     2.0624   15 H    0 0 0
  32 C    1     1.3914     2.6293   35 C    0 0 0
  32 C    1     1.4021     2.6496   31 C   -1-1 1
  32 C    1     2.1668     4.0947   18 H    0 0 0
  32 C    1     2.4179     4.5692   34 C   -1-1 1
  32 C    1     2.4251     4.5827   36 C   -1-1 1

  33 C    1     1.0913     2.0623   16 H    0 0 0
  33 C    1     1.3914     2.6294   34 C    0 0 0
  33 C    1     1.4025     2.6504   36 C    0 0 0
  33 C    1     2.1679     4.0968   17 H    0 0 0
  33 C    1     2.4178     4.5690   35 C    1 1-1
  33 C    1     2.4244     4.5814   31 C    0 0 0

  34 C    1     1.0915     2.0626   17 H    0 0 0
  34 C    1     1.3914     2.6294   33 C    0 0 0
  34 C    1     1.4021     2.6497   31 C    0 0 0
  34 C    1     2.1667     4.0945   16 H    0 0 0
  34 C    1     2.4179     4.5692   32 C    1 1-1
  34 C    1     2.4253     4.5832   36 C    0 0 0

  35 C    1     1.0914     2.0624   18 H    0 0 0
  35 C    1     1.3914     2.6293   32 C    0 0 0
  35 C    1     1.4025     2.6503   36 C   -1-1 1
  35 C    1     2.1678     4.0966   15 H    0 0 0
  35 C    1     2.4178     4.5690   33 C   -1-1 1
  35 C    1     2.4245     4.5817   31 C   -1-1 1

  36 C    1     1.4025     2.6503   35 C    1 1-1
  36 C    1     1.4025     2.6504   33 C    0 0 0
  36 C    1     1.5516     2.9322    5 B    0 0 0
  36 C    1     2.1486     4.0602   18 H    1 1-1
  36 C    1     2.1487     4.0605   16 H    0 0 0
  36 C    1     2.4251     4.5827   32 C    1 1-1

  37 O    1     1.3791     2.6061    3 B    0 0 0
  37 O    1     1.3791     2.6061    1 B    1 0 0
  37 O    1     2.3880     4.5126   38 O    1 0 0
  37 O    1     2.3882     4.5130   39 O    1 1-1
  37 O    1     2.5383     4.7966   31 C    0 0 0
  37 O    1     2.5384     4.7968   25 C    0 0 0

  38 O    1     1.3793     2.6065    1 B    0 0 0
  38 O    1     1.3793     2.6065    2 B    0 0 0
  38 O    1     2.3880     4.5126   37 O   -1 0 0
  38 O    1     2.3882     4.5131   39 O    0 1-1
  38 O    1     2.5391     4.7981   19 C    0 0 0
  38 O    1     2.5395     4.7990   25 C   -1 0 0

  39 O    1     1.3793     2.6064    3 B   -1-1 1
  39 O    1     1.3793     2.6065    2 B    0-1 1
  39 O    1     2.3882     4.5130   37 O   -1-1 1
  39 O    1     2.3882     4.5131   38 O    0-1 1
  39 O    1     2.5390     4.7980   19 C    0-1 1
  39 O    1     2.5391     4.7982   31 C   -1-1 1

  40 O    1     1.3795     2.6068    6 B    0 0 0
  40 O    1     1.3795     2.6068    4 B    0-1 1
  40 O    1     2.3880     4.5126   42 O    1 0 0
  40 O    1     2.3884     4.5134   41 O    0-1 1
  40 O    1     2.5400     4.7998   24 C    0-1 1
  40 O    1     2.5403     4.8005   30 C    0 0 0

  41 O    1     1.3795     2.6069    5 B    0 0 0
  41 O    1     1.3795     2.6070    4 B    0 0 0
  41 O    1     2.3881     4.5128   42 O    1 1-1
  41 O    1     2.3884     4.5134   40 O    0 1-1
  41 O    1     2.5404     4.8006   24 C    0 0 0
  41 O    1     2.5405     4.8008   36 C    0 0 0

  42 O    1     1.3796     2.6071    6 B   -1 0 0
  42 O    1     1.3797     2.6072    5 B   -1-1 1
  42 O    1     2.3880     4.5126   40 O   -1 0 0
  42 O    1     2.3881     4.5128   41 O   -1-1 1
  42 O    1     2.5409     4.8016   36 C   -1-1 1
  42 O    1     2.5410     4.8019   30 C   -1 0 0


 SYMMETRY ALLOWED INTERNAL DEGREE(S) OF FREEDOM: 123
 TTTTTTTTTTTTTTTTTTTTTTTTTTTTTT SYMM        TELAPSE        0.29 TCPU        0.29
 TTTTTTTTTTTTTTTTTTTTTTTTTTTTTT INT_SCREEN  TELAPSE        0.32 TCPU        0.32

 DFT PARAMETERS

     ATOM       ELECTRONS   NET CHARGE   R(ANGSTROM)
   1   5  B       5.0000      0.0000     0.89000000
   7   1  H       1.0000      0.0000     1.11000000
  19   6  C       6.0000      0.0000     0.77000000
  37   8  O       8.0000      0.0000     0.74000000

 SIZE OF GRID=    1269897
 TTTTTTTTTTTTTTTTTTTTTTTTTTTTTT MAKE_GRID2  TELAPSE       11.39 TCPU       11.38
 BECKE WEIGHT FUNCTION
 RADSAFE =     2.00
 TOLERANCES - DENSITY:10**- 6; POTENTIAL:10**- 9; GRID WGT:10**-14

 RADIAL INTEGRATION  - INTERVALS (POINTS,UPPER LIMIT):            1( 75,  4.0*R)

 ANGULAR INTEGRATION - INTERVALS (ACCURACY LEVEL [N. POINTS] UPPER LIMIT):
  1(  4[  86]   0.2)  2(  8[ 194]   0.5)  3( 12[ 350]   0.9)  4( 16[ 974]   3.5)
  5( 12[ 350]9999.0)
 TTTTTTTTTTTTTTTTTTTTTTTTTTTTTT INT_CALC    TELAPSE       11.50 TCPU       11.49
 EEEEEEEEEE INT_CALC TERMINATION  DATE 19 02 2026 TIME 18:36:15.2

 *******************************************************************************
 cof-1_z36_L010_incl                                                             
 CRYSTAL - SCF - TYPE OF CALCULATION :  RESTRICTED CLOSED SHELL
 *******************************************************************************

 CAPPA:IS1  2;IS2  2;IS3  8; K PTS MONK NET  20; SYMMOPS:K SPACE   2;G SPACE   1

 TTTTTTTTTTTTTTTTTTTTTTTTTTTTTT SDIK        TELAPSE       12.08 TCPU       19.47

 AAAAAAAAAAAAAAAAAAAAAAAAAAAAAAAAAAAAAAAAAAAAAAAAAAAAAAAAAAAAAAAAAAAAAAAAAAAAAAA
         ATOMIC WAVEFUNCTION(S)


 NUCLEAR CHARGE  5.0  SYMMETRY SPECIES            S    P
 N. ELECTRONS    5.0  NUMBER OF PRIMITIVE GTOS    8    4
                      NUMBER OF CONTRACTED GTOS   4    2
                      NUMBER OF CLOSED SHELLS     2    0
                      OPEN SHELL OCCUPATION       0    1

  ZNUC  SCFIT    TOTAL HF ENERGY   KINETIC ENERGY   VIRIAL THEOREM ACCURACY
   5.0    11    -2.451164084E+01  2.462155050E+01 -1.995536038E+00  1.5E-06

 NUCLEAR CHARGE  1.0  SYMMETRY SPECIES            S
 N. ELECTRONS    1.0  NUMBER OF PRIMITIVE GTOS    4
                      NUMBER OF CONTRACTED GTOS   2
                      NUMBER OF CLOSED SHELLS     0
                      OPEN SHELL OCCUPATION       1

  ZNUC  SCFIT    TOTAL HF ENERGY   KINETIC ENERGY   VIRIAL THEOREM ACCURACY
   1.0     1    -4.977266687E-01  5.190767460E-01 -1.958869132E+00  0.0E+00

 NUCLEAR CHARGE  6.0  SYMMETRY SPECIES            S    P
 N. ELECTRONS    6.0  NUMBER OF PRIMITIVE GTOS    8    4
                      NUMBER OF CONTRACTED GTOS   4    2
                      NUMBER OF CLOSED SHELLS     2    0
                      OPEN SHELL OCCUPATION       0    2

  ZNUC  SCFIT    TOTAL HF ENERGY   KINETIC ENERGY   VIRIAL THEOREM ACCURACY
   6.0     9    -3.766704647E+01  3.775180683E+01 -1.997754800E+00  1.1E-06

 NUCLEAR CHARGE  8.0  SYMMETRY SPECIES            S    P
 N. ELECTRONS    8.0  NUMBER OF PRIMITIVE GTOS    8    4
                      NUMBER OF CONTRACTED GTOS   4    2
                      NUMBER OF CLOSED SHELLS     2    0
                      OPEN SHELL OCCUPATION       0    4

  ZNUC  SCFIT    TOTAL HF ENERGY   KINETIC ENERGY   VIRIAL THEOREM ACCURACY
   8.0    12    -7.477373220E+01  7.477365593E+01 -2.000001020E+00  3.8E-06

 AAAAAAAAAAAAAAAAAAAAAAAAAAAAAAAAAAAAAAAAAAAAAAAAAAAAAAAAAAAAAAAAAAAAAAAAAAAAAAA

 CHARGE NORMALIZATION FACTOR   1.00000000
 TOTAL ATOMIC CHARGES:
   5.0000000   5.0000000   5.0000000   5.0000000   5.0000000   5.0000000
   1.0000000   1.0000000   1.0000000   1.0000000   1.0000000   1.0000000
   1.0000000   1.0000000   1.0000000   1.0000000   1.0000000   1.0000000
   6.0000000   6.0000000   6.0000000   6.0000000   6.0000000   6.0000000
   6.0000000   6.0000000   6.0000000   6.0000000   6.0000000   6.0000000
   6.0000000   6.0000000   6.0000000   6.0000000   6.0000000   6.0000000
   8.0000000   8.0000000   8.0000000   8.0000000   8.0000000   8.0000000
 TTTTTTTTTTTTTTTTTTTTTTTTTTTTTT MOQGAD      TELAPSE       12.13 TCPU       21.16
 TTTTTTTTTTTTTTTTTTTTTTTTTTTTTT SHELLXN     TELAPSE       21.98 TCPU      336.05
 TTTTTTTTTTTTTTTTTTTTTTTTTTTTTT MONMO3      TELAPSE       22.15 TCPU      341.61
 NUMERICALLY INTEGRATED DENSITY    197.9999196221
 TTTTTTTTTTTTTTTTTTTTTTTTTTTTTT NUMDFT      TELAPSE       22.76 TCPU      360.83
 CYC   0 ETOT(AU) -1.295973531795E+03 DETOT -1.30E+03 tst  0.00E+00 PX  1.00E+00
 TTTTTTTTTTTTTTTTTTTTTTTTTTTTTT DIIS        TELAPSE       22.79 TCPU      361.92
 TTTTTTTTTTTTTTTTTTTTTTTTTTTTTT FDIK        TELAPSE       23.28 TCPU      377.41
 INSULATING STATE
 TOP OF VALENCE BANDS -    BAND     99; K    1; EIG -2.9914950E-01 AU
 BOTTOM OF VIRTUAL BANDS - BAND    100; K   17; EIG -1.6987404E-01 AU
 INDIRECT ENERGY BAND GAP:   3.5178 eV
 BOTTOM OF VIRTUAL BANDS - BAND    100; K    1; EIG -1.4277755E-01 AU
 TTTTTTTTTTTTTTTTTTTTTTTTTTTTTT PDIG        TELAPSE       23.56 TCPU      383.55
 CHARGE NORMALIZATION FACTOR   1.00000000
 TOTAL ATOMIC CHARGES:
   4.1346204   4.1329055   4.1333191   4.1331314   4.1328618   4.1346837
   0.7861931   0.7862925   0.7860005   0.7861167   0.7859560   0.7861295
   0.7859459   0.7860950   0.7859961   0.7861765   0.7861399   0.7862860
   6.0533103   6.2700419   6.2700355   6.2694243   6.2692722   6.0524923
   6.0522051   6.2691285   6.2690945   6.2690224   6.2691077   6.0509417
   6.0535995   6.2691883   6.2696726   6.2696501   6.2702978   6.0520331
   8.7031625   8.7033342   8.7012626   8.7035597   8.7015944   8.7037193
 TTTTTTTTTTTTTTTTTTTTTTTTTTTTTT MOQGAD      TELAPSE       23.61 TCPU      383.60
 TTTTTTTTTTTTTTTTTTTTTTTTTTTTTT SHELLXN     TELAPSE       33.83 TCPU      709.42
 TTTTTTTTTTTTTTTTTTTTTTTTTTTTTT MONMO3      TELAPSE       34.00 TCPU      714.97
 NUMERICALLY INTEGRATED DENSITY    197.9999474542
 TTTTTTTTTTTTTTTTTTTTTTTTTTTTTT NUMDFT      TELAPSE       34.61 TCPU      734.55
 CYC   1 ETOT(AU) -1.288813605124E+03 DETOT  7.16E+00 tst  0.00E+00 PX  1.00E+00
 TTTTTTTTTTTTTTTTTTTTTTTTTTTTTT DIIS        TELAPSE       34.66 TCPU      735.99
 DIIS TEST: 0.11067E+01 AT SCF   CYCLE   1 - MIX   30 %
 TTTTTTTTTTTTTTTTTTTTTTTTTTTTTT FDIK        TELAPSE       35.15 TCPU      751.64
 INSULATING STATE
 TOP OF VALENCE BANDS -    BAND     99; K    1; EIG -2.0090390E-01 AU
 BOTTOM OF VIRTUAL BANDS - BAND    100; K   17; EIG -9.2591058E-02 AU
 INDIRECT ENERGY BAND GAP:   2.9473 eV
 BOTTOM OF VIRTUAL BANDS - BAND    100; K    1; EIG -6.1512073E-02 AU
 TTTTTTTTTTTTTTTTTTTTTTTTTTTTTT PDIG        TELAPSE       35.43 TCPU      757.78
 CHARGE NORMALIZATION FACTOR   1.00000000
 TOTAL ATOMIC CHARGES:
   4.6956479   4.6924945   4.6915171   4.6918634   4.6923103   4.6951840
   0.9209328   0.9210377   0.9217178   0.9216882   0.9198259   0.9197902
   0.9197730   0.9197181   0.9216400   0.9216896   0.9208243   0.9208534
   5.8662921   6.1187186   6.1190025   6.1284969   6.1301593   5.8693107
   5.8675571   6.1234496   6.1253022   6.1243020   6.1249097   5.8707382
   5.8661132   6.1287044   6.1301761   6.1188963   6.1190422   5.8697424
   8.3473949   8.3476710   8.3505362   8.3470256   8.3508304   8.3471201
 TTTTTTTTTTTTTTTTTTTTTTTTTTTTTT MOQGAD      TELAPSE       35.48 TCPU      757.83
 TTTTTTTTTTTTTTTTTTTTTTTTTTTTTT SHELLXN     TELAPSE       45.70 TCPU     1083.64
 TTTTTTTTTTTTTTTTTTTTTTTTTTTTTT MONMO3      TELAPSE       45.87 TCPU     1089.19
 NUMERICALLY INTEGRATED DENSITY    197.9999361239
 TTTTTTTTTTTTTTTTTTTTTTTTTTTTTT NUMDFT      TELAPSE       46.49 TCPU     1108.79
 CYC   2 ETOT(AU) -1.289006895284E+03 DETOT -1.93E-01 tst  4.42E-03 PX  1.57E-01
 TTTTTTTTTTTTTTTTTTTTTTTTTTTTTT DIIS        TELAPSE       46.53 TCPU     1110.23
 DIIS TEST: 0.48449E+00 AT SCF   CYCLE   2 - DIIS ACTIVE - HISTORY:     2 CYCLES
 TTTTTTTTTTTTTTTTTTTTTTTTTTTTTT FDIK        TELAPSE       47.02 TCPU     1125.77
 INSULATING STATE
 TOP OF VALENCE BANDS -    BAND     99; K    1; EIG -2.1800859E-01 AU
 BOTTOM OF VIRTUAL BANDS - BAND    100; K   17; EIG -8.8129321E-02 AU
 INDIRECT ENERGY BAND GAP:   3.5342 eV
 BOTTOM OF VIRTUAL BANDS - BAND    100; K    1; EIG -5.5244158E-02 AU
 TTTTTTTTTTTTTTTTTTTTTTTTTTTTTT PDIG        TELAPSE       47.30 TCPU     1131.90
 CHARGE NORMALIZATION FACTOR   1.00000000
 TOTAL ATOMIC CHARGES:
   4.4789378   4.4755795   4.4752789   4.4745554   4.4746297   4.4780308
   0.8923729   0.8924816   0.8929618   0.8929808   0.8916105   0.8919485
   0.8917414   0.8917700   0.8929049   0.8930159   0.8923034   0.8923615
   5.8956862   6.1651491   6.1648920   6.1637587   6.1621584   5.8946773
   5.8988021   6.1628096   6.1619108   6.1626682   6.1620877   5.8974932
   5.8963818   6.1637950   6.1622360   6.1651575   6.1648719   5.8941524
   8.5168904   8.5170112   8.5138697   8.5171933   8.5135995   8.5172825
 TTTTTTTTTTTTTTTTTTTTTTTTTTTTTT MOQGAD      TELAPSE       47.35 TCPU     1131.96
 TTTTTTTTTTTTTTTTTTTTTTTTTTTTTT SHELLXN     TELAPSE       57.57 TCPU     1457.91
 TTTTTTTTTTTTTTTTTTTTTTTTTTTTTT MONMO3      TELAPSE       57.75 TCPU     1463.46
 NUMERICALLY INTEGRATED DENSITY    197.9999370899
 TTTTTTTTTTTTTTTTTTTTTTTTTTTTTT NUMDFT      TELAPSE       58.36 TCPU     1482.95
 CYC   3 ETOT(AU) -1.289109137200E+03 DETOT -1.02E-01 tst  7.28E-04 PX  5.91E-02
 TTTTTTTTTTTTTTTTTTTTTTTTTTTTTT DIIS        TELAPSE       58.41 TCPU     1484.75
 DIIS TEST: 0.99595E-02 AT SCF   CYCLE   3 - DIIS ACTIVE - HISTORY:     3 CYCLES
 TTTTTTTTTTTTTTTTTTTTTTTTTTTTTT FDIK        TELAPSE       58.90 TCPU     1500.44
 INSULATING STATE
 TOP OF VALENCE BANDS -    BAND     99; K    1; EIG -2.2715202E-01 AU
 BOTTOM OF VIRTUAL BANDS - BAND    100; K   17; EIG -9.8139737E-02 AU
 INDIRECT ENERGY BAND GAP:   3.5106 eV
 BOTTOM OF VIRTUAL BANDS - BAND    100; K    1; EIG -6.6037475E-02 AU
 TTTTTTTTTTTTTTTTTTTTTTTTTTTTTT PDIG        TELAPSE       59.19 TCPU     1506.58
 CHARGE NORMALIZATION FACTOR   1.00000000
 TOTAL ATOMIC CHARGES:
   4.4871574   4.4828488   4.4822226   4.4828016   4.4830709   4.4873884
   0.8768308   0.8770068   0.8770014   0.8768327   0.8755338   0.8755049
   0.8754950   0.8754582   0.8769807   0.8768187   0.8767933   0.8768167
   5.9474804   6.1569791   6.1573041   6.1633583   6.1667273   5.9527319
   5.9494005   6.1597966   6.1621675   6.1604516   6.1617467   5.9537973
   5.9471888   6.1632603   6.1669801   6.1567407   6.1576285   5.9531987
   8.4891211   8.4893302   8.4916864   8.4888899   8.4925058   8.4889657
 TTTTTTTTTTTTTTTTTTTTTTTTTTTTTT MOQGAD      TELAPSE       59.24 TCPU     1506.63
 TTTTTTTTTTTTTTTTTTTTTTTTTTTTTT SHELLXN     TELAPSE       69.46 TCPU     1832.60
 TTTTTTTTTTTTTTTTTTTTTTTTTTTTTT MONMO3      TELAPSE       69.63 TCPU     1838.15
 NUMERICALLY INTEGRATED DENSITY    197.9999377403
 TTTTTTTTTTTTTTTTTTTTTTTTTTTTTT NUMDFT      TELAPSE       70.24 TCPU     1857.66
 CYC   4 ETOT(AU) -1.289111139522E+03 DETOT -2.00E-03 tst  3.13E-05 PX  1.26E-02
 TTTTTTTTTTTTTTTTTTTTTTTTTTTTTT DIIS        TELAPSE       70.30 TCPU     1859.46
 DIIS TEST: 0.36613E-02 AT SCF   CYCLE   4 - DIIS ACTIVE - HISTORY:     4 CYCLES
 TTTTTTTTTTTTTTTTTTTTTTTTTTTTTT FDIK        TELAPSE       70.78 TCPU     1875.01
 INSULATING STATE
 TOP OF VALENCE BANDS -    BAND     99; K    1; EIG -2.2566485E-01 AU
 BOTTOM OF VIRTUAL BANDS - BAND    100; K   17; EIG -9.6812593E-02 AU
 INDIRECT ENERGY BAND GAP:   3.5062 eV
 BOTTOM OF VIRTUAL BANDS - BAND    100; K    1; EIG -6.4504922E-02 AU
 TTTTTTTTTTTTTTTTTTTTTTTTTTTTTT PDIG        TELAPSE       71.07 TCPU     1881.15
 CHARGE NORMALIZATION FACTOR   1.00000000
 TOTAL ATOMIC CHARGES:
   4.4881929   4.4848044   4.4843056   4.4834993   4.4836603   4.4870543
   0.8797460   0.8798410   0.8801142   0.8802404   0.8787379   0.8790494
   0.8788162   0.8788972   0.8800456   0.8802772   0.8796452   0.8797208
   5.9257593   6.1650500   6.1644658   6.1687608   6.1661117   5.9224015
   5.9273627   6.1658666   6.1647710   6.1659322   6.1648658   5.9242321
   5.9263615   6.1688697   6.1661394   6.1651469   6.1644299   5.9219874
   8.4994630   8.4995890   8.4984979   8.4996004   8.4980213   8.4996665
 TTTTTTTTTTTTTTTTTTTTTTTTTTTTTT MOQGAD      TELAPSE       71.12 TCPU     1881.20
 TTTTTTTTTTTTTTTTTTTTTTTTTTTTTT SHELLXN     TELAPSE       81.34 TCPU     2207.24
 TTTTTTTTTTTTTTTTTTTTTTTTTTTTTT MONMO3      TELAPSE       81.51 TCPU     2212.78
 NUMERICALLY INTEGRATED DENSITY    197.9999378704
 TTTTTTTTTTTTTTTTTTTTTTTTTTTTTT NUMDFT      TELAPSE       82.12 TCPU     2232.29
 CYC   5 ETOT(AU) -1.289111948008E+03 DETOT -8.08E-04 tst  6.54E-06 PX  7.58E-03
 TTTTTTTTTTTTTTTTTTTTTTTTTTTTTT DIIS        TELAPSE       82.19 TCPU     2234.37
 DIIS TEST: 0.16725E-03 AT SCF   CYCLE   5 - DIIS ACTIVE - HISTORY:     5 CYCLES
 TTTTTTTTTTTTTTTTTTTTTTTTTTTTTT FDIK        TELAPSE       82.68 TCPU     2249.96
 INSULATING STATE
 TOP OF VALENCE BANDS -    BAND     99; K    1; EIG -2.2540563E-01 AU
 BOTTOM OF VIRTUAL BANDS - BAND    100; K   17; EIG -9.6287511E-02 AU
 INDIRECT ENERGY BAND GAP:   3.5135 eV
 BOTTOM OF VIRTUAL BANDS - BAND    100; K    1; EIG -6.3967491E-02 AU
 TTTTTTTTTTTTTTTTTTTTTTTTTTTTTT PDIG        TELAPSE       82.96 TCPU     2256.10
 CHARGE NORMALIZATION FACTOR   1.00000000
 TOTAL ATOMIC CHARGES:
   4.4870908   4.4832807   4.4827460   4.4836537   4.4838776   4.4876771
   0.8807744   0.8809235   0.8813002   0.8810377   0.8798556   0.8798465
   0.8798637   0.8797664   0.8812776   0.8810295   0.8807329   0.8807474
   5.9212559   6.1623919   6.1635342   6.1642543   6.1691744   5.9300713
   5.9240059   6.1626921   6.1656020   6.1630927   6.1653524   5.9312028
   5.9211963   6.1641361   6.1694361   6.1621552   6.1638205   5.9303095
   8.4982187   8.4984162   8.4983419   8.4981747   8.4994090   8.4982746
 TTTTTTTTTTTTTTTTTTTTTTTTTTTTTT MOQGAD      TELAPSE       83.01 TCPU     2256.15
 TTTTTTTTTTTTTTTTTTTTTTTTTTTTTT SHELLXN     TELAPSE       93.24 TCPU     2582.26
 TTTTTTTTTTTTTTTTTTTTTTTTTTTTTT MONMO3      TELAPSE       93.41 TCPU     2587.81
 NUMERICALLY INTEGRATED DENSITY    197.9999377887
 TTTTTTTTTTTTTTTTTTTTTTTTTTTTTT NUMDFT      TELAPSE       94.02 TCPU     2607.36
 CYC   6 ETOT(AU) -1.289111934622E+03 DETOT  1.34E-05 tst  2.69E-06 PX  1.92E-03
 TTTTTTTTTTTTTTTTTTTTTTTTTTTTTT DIIS        TELAPSE       94.09 TCPU     2609.56
 DIIS TEST: 0.20951E-03 AT SCF   CYCLE   6 - DIIS ACTIVE - HISTORY:     6 CYCLES
 TTTTTTTTTTTTTTTTTTTTTTTTTTTTTT FDIK        TELAPSE       94.58 TCPU     2625.18
 INSULATING STATE
 TOP OF VALENCE BANDS -    BAND     99; K    1; EIG -2.2542343E-01 AU
 BOTTOM OF VIRTUAL BANDS - BAND    100; K   17; EIG -9.6316930E-02 AU
 INDIRECT ENERGY BAND GAP:   3.5132 eV
 BOTTOM OF VIRTUAL BANDS - BAND    100; K    1; EIG -6.3993707E-02 AU
 TTTTTTTTTTTTTTTTTTTTTTTTTTTTTT PDIG        TELAPSE       94.86 TCPU     2631.31
 CHARGE NORMALIZATION FACTOR   1.00000000
 TOTAL ATOMIC CHARGES:
   4.4877093   4.4840012   4.4834859   4.4832099   4.4834051   4.4871273
   0.8807736   0.8809231   0.8811636   0.8811547   0.8797581   0.8799381
   0.8797935   0.8798301   0.8811203   0.8811659   0.8807075   0.8807696
   5.9259767   6.1630164   6.1626911   6.1664986   6.1663945   5.9262934
   5.9280128   6.1638261   6.1640790   6.1641162   6.1639457   5.9280410
   5.9262037   6.1664836   6.1665509   6.1629363   6.1628280   5.9262465
   8.4982113   8.4983715   8.4983065   8.4982232   8.4984105   8.4982999
 TTTTTTTTTTTTTTTTTTTTTTTTTTTTTT MOQGAD      TELAPSE       94.91 TCPU     2631.36
 TTTTTTTTTTTTTTTTTTTTTTTTTTTTTT SHELLXN     TELAPSE      105.12 TCPU     2957.08
 TTTTTTTTTTTTTTTTTTTTTTTTTTTTTT MONMO3      TELAPSE      105.30 TCPU     2962.62
 NUMERICALLY INTEGRATED DENSITY    197.9999377918
 TTTTTTTTTTTTTTTTTTTTTTTTTTTTTT NUMDFT      TELAPSE      105.91 TCPU     2982.13
 CYC   7 ETOT(AU) -1.289111989351E+03 DETOT -5.47E-05 tst  1.25E-06 PX  1.22E-03
 TTTTTTTTTTTTTTTTTTTTTTTTTTTTTT DIIS        TELAPSE      105.99 TCPU     2984.63
 DIIS TEST: 0.32543E-05 AT SCF   CYCLE   7 - DIIS ACTIVE - HISTORY:     7 CYCLES
 TTTTTTTTTTTTTTTTTTTTTTTTTTTTTT FDIK        TELAPSE      106.48 TCPU     3000.26
 INSULATING STATE
 TOP OF VALENCE BANDS -    BAND     99; K    1; EIG -2.2545304E-01 AU
 BOTTOM OF VIRTUAL BANDS - BAND    100; K   17; EIG -9.6393966E-02 AU
 INDIRECT ENERGY BAND GAP:   3.5119 eV
 BOTTOM OF VIRTUAL BANDS - BAND    100; K    1; EIG -6.4069524E-02 AU
 TTTTTTTTTTTTTTTTTTTTTTTTTTTTTT PDIG        TELAPSE      106.76 TCPU     3006.39
 CHARGE NORMALIZATION FACTOR   1.00000000
 TOTAL ATOMIC CHARGES:
   4.4877840   4.4841777   4.4836681   4.4835068   4.4836896   4.4873039
   0.8806915   0.8807992   0.8810733   0.8810513   0.8796672   0.8798550
   0.8797209   0.8797283   0.8810193   0.8810729   0.8806124   0.8806580
   5.9253599   6.1629634   6.1631015   6.1663220   6.1664703   5.9265851
   5.9273833   6.1637817   6.1642289   6.1639729   6.1641993   5.9281989
   5.9257203   6.1663605   6.1665720   6.1629465   6.1631781   5.9264066
   8.4984107   8.4985640   8.4980383   8.4984830   8.4981144   8.4985591
 TTTTTTTTTTTTTTTTTTTTTTTTTTTTTT MOQGAD      TELAPSE      106.81 TCPU     3006.45
 TTTTTTTTTTTTTTTTTTTTTTTTTTTTTT SHELLXN     TELAPSE      117.02 TCPU     3332.21
 TTTTTTTTTTTTTTTTTTTTTTTTTTTTTT MONMO3      TELAPSE      117.20 TCPU     3337.77
 NUMERICALLY INTEGRATED DENSITY    197.9999377867
 TTTTTTTTTTTTTTTTTTTTTTTTTTTTTT NUMDFT      TELAPSE      117.81 TCPU     3357.23
 CYC   8 ETOT(AU) -1.289111989977E+03 DETOT -6.26E-07 tst  1.06E-08 PX  1.60E-04
 TTTTTTTTTTTTTTTTTTTTTTTTTTTTTT DIIS        TELAPSE      117.89 TCPU     3359.79
 DIIS TEST: 0.27795E-06 AT SCF   CYCLE   8 - DIIS ACTIVE - HISTORY:     8 CYCLES
 TTTTTTTTTTTTTTTTTTTTTTTTTTTTTT FDIK        TELAPSE      118.37 TCPU     3375.36
 INSULATING STATE
 TOP OF VALENCE BANDS -    BAND     99; K    1; EIG -2.2545451E-01 AU
 BOTTOM OF VIRTUAL BANDS - BAND    100; K   17; EIG -9.6390075E-02 AU
 INDIRECT ENERGY BAND GAP:   3.5120 eV
 BOTTOM OF VIRTUAL BANDS - BAND    100; K    1; EIG -6.4065575E-02 AU
 TTTTTTTTTTTTTTTTTTTTTTTTTTTTTT PDIG        TELAPSE      118.65 TCPU     3381.50
 CHARGE NORMALIZATION FACTOR   1.00000000
 TOTAL ATOMIC CHARGES:
   4.4878177   4.4841515   4.4836310   4.4834590   4.4836549   4.4873255
   0.8806638   0.8808071   0.8810684   0.8810382   0.8796626   0.8798339
   0.8797004   0.8797233   0.8810247   0.8810498   0.8805956   0.8806553
   5.9254025   6.1630854   6.1629120   6.1663303   6.1666514   5.9264661
   5.9274769   6.1638241   6.1642610   6.1640944   6.1641492   5.9280813
   5.9256403   6.1663171   6.1668056   6.1630082   6.1630466   5.9264104
   8.4983328   8.4984945   8.4981975   8.4983463   8.4983765   8.4984267
 TTTTTTTTTTTTTTTTTTTTTTTTTTTTTT MOQGAD      TELAPSE      118.71 TCPU     3381.55
 TTTTTTTTTTTTTTTTTTTTTTTTTTTTTT SHELLXN     TELAPSE      128.92 TCPU     3707.50
 +++ ENERGIES IN A.U. +++
 ::: EXT EL-POLE                                  -1.4072246819913E+03
 ::: EXT EL-SPHEROPOLE                             1.5911373077480E+01
 ::: BIELET ZONE E-E                               2.3390970481621E+03
 ::: TOTAL E-E                                     9.4778373924822E+02
 ::: TOTAL E-N + N-E                              -3.7215927703943E+03
 ::: TOTAL N-N                                     3.3848268916283E+02
 ::: KINETIC ENERGY                                1.2799296494574E+03
 ::: PSEUDO TOTAL   ENERGY                        -1.1553966925259E+03
 ::: VIRIAL COEFFICIENT                            1.0511360448021E+00
 TTTTTTTTTTTTTTTTTTTTTTTTTTTTTT MONMO3      TELAPSE      129.10 TCPU     3713.05
 NUMERICALLY INTEGRATED DENSITY    197.9999377872
 EXCHANGE ENERGY: -0.126016247098E+03  CORRELATION ENERGY: -0.769905043012E+01
 TTTTTTTTTTTTTTTTTTTTTTTTTTTTTT NUMDFT      TELAPSE      129.71 TCPU     3732.58
 CYC   9 ETOT(AU) -1.289111990054E+03 DETOT -7.71E-08 tst  8.40E-10 PX  1.60E-04

 == SCF ENDED - CONVERGENCE ON ENERGY      E(AU) -1.2891119900537E+03 CYCLES   9


 ENERGY EXPRESSION=HARTREE+FOCK EXCH*0.00000+(HSESOL     EXCH)*1.00000+PBESOL     CORR


 TOTAL ENERGY(DFT)(AU)(  9) -1.2891119900537E+03 DE-7.7E-08 tester 8.4E-10
 TTTTTTTTTTTTTTTTTTTTTTTTTTTTTT EDFT        TELAPSE      129.71 TCPU     3732.59
 
 INFORMATION **** DFTD3 ENERGY **** CALCULATE DFTD3 ENERGY

           DFT-D V3(BJ)
 DF                                         hsesol3c  
 parameters
 s6       :    1.0000
 s8       :    0.0000
 a1       :    0.5196
 a2       :    4.9385
 k1 k3    :   16.0000   -4.0000
 Cutoff   :   50.2022
 CN-Cutoff:   21.1671
 ABC-Cutoff:   21.1671
 
 Edisp /kcal,au:   -29.4860 -0.04698887

 E6    /kcal :   -31.5421
 E8    /kcal :     0.0000
 E6(ABC) "   :   2.056098
 
 INFORMATION **** DFTD3 ENERGY **** NORMAL TERMINATION OF DFTD3 MODULE

 GCP ENERGY CALCULATION
  level        hsesol3c            basis:hsesol3c
  Nbf            474
  Atoms           42

  Parameters: 
  sigma     1.0000
  eta       1.4281
  alpha     0.2936
  beta      1.9467

  dmp_scal      4.0000
  dmp_exp       6.0000
 cutoffs: 
   distance [bohr] 60.0
   noise    [a.u.] 2.2E-16
 SR-damping   T
 ** gCP correction **
  Egcp:        0.0833634273 / (a.u.) ||      52.3113 / (kcal/mol)
 INFORMATION **** GCP **** NORMAL TERMINATION OF GCP MODULE

 *******************************************************************************

 DFT-D3-GCP DISPERSION AND COUNTERPOISE CORRECTION

 D3 DISPERSION ENERGY (AU)      -4.6988871623586E-02
 GCP ENERGY (AU)                 8.3363427301129E-02
 TOTAL ENERGY + DISP + GCP (AU) -1.2890756154981E+03

 *******************************************************************************

 EIGENVECTORS IN FORTRAN UNIT 10
 TTTTTTTTTTTTTTTTTTTTTTTTTTTTTT END         TELAPSE      131.06 TCPU     3739.91
 EEEEEEEEEE TERMINATION  DATE 19 02 2026 TIME 18:38:14.8
