 Default number of threads is:           32

         
 *******************************************************************************
 *                                                                             *
 *                               CRYSTAL23                                     *
 *                      public : 1.0.1 - October 2022                          *
 *                       HTTP://WWW.CRYSTAL.UNITO.IT                           *
 *                                                                             *
 *                              MAIN AUTHORS                                   *
 *                                                                             *
 *  R. DOVESI(1,11), V.R. SAUNDERS(2), C. ROETTI(1,11), R. ORLANDO(1,11),      *
 *  C.M. ZICOVICH-WILSON(1,3), F. PASCALE(4), B. CIVALLERI(1,11),              *
 *  K. DOLL(5), N.M. HARRISON(6), I.J. BUSH(7), Ph. D'ARCO(8),                 *
 *  M. LLUNELL(9), M. CAUSA'(10), Y. NOEL(8), L. MASCHIO(1,11), A. ERBA(1,11)  *
 *  M. RE'RAT(14), S. CASASSA(1,11), B.G. SEARLE(2), J.K. DESMARAIS(1)         *
 *                                                                             *
 *        CONTRIBUTIONS TO THE CODE HAVE ALSO BEEN GIVEN BY                    *
 *                                                                             *
 *  M. FERRABONE(1,11), M. DE LA PIERRE(1,11), M. FERRERO(1,11),               *
 *  J. BAIMA(1,11), E. ALBANESE(1,11), M.F. PEINTINGER(12), R. BAST(13),       *
 *  B. KIRTMAN(15), V. LACIVITA(1,11), R. DEMICHELIS(1,16)                     *
 *  G. BRANDEBURG(17), S. SALUSTRO(1,11), G. SANSONE(1,11)                     *
 *  M.T. RUGGIERO(18), L.E. DAGA(1), L. DONA'(1), A. COSSARD(1)                *
 *                                                                             *
 * (1) THEORETICAL CHEMISTRY GROUP - UNIVERSITA' DI TORINO - TORINO (ITALY)    *
 * (2) SCIENTIFIC COMPUTING DEPARTMENT - STFC DARESBURY (UK)                   *
 * (3) UNIVERSIDAD AUTONOMA DEL ESTADO DE MORELOS - CUERNAVACA (MEXICO)        *
 * (4) UNIVERSITE' DE LORRAINE - NANCY (FRANCE)                                *
 * (5) UNIVERSITAET STUTTGART- STUTTGART (GERMANY)                             *
 * (6) IMPERIAL COLLEGE - LONDON (UK)                                          *
 * (7) SCIENTIFIC COMPUTING DEPARTMENT - STFC RAL (UK)                         *
 * (8) UPMC - SORBONNE UNIVERSITES - PARIS (FRANCE)                            *
 * (9) UNIVERSIDAD DE BARCELONA - BARCELONA (SPAIN)                            *
 *(10) UNIVERSITA' DI NAPOLI "FEDERICO II" - NAPOLI (ITALY)                    *
 *(11) NIS - NANOSTRUCTURED INTERFACES AND SURFACES - TORINO (ITALY)           *
 *(12) MPI FUER CHEMISCHE ENERGIEKONVERSION - MUELHEIM AN DER RUHR (GERMANY)   *
 *(13) UNIVERSITY OF TROMSO - TROMSO (NORWAY)                                  *
 *(14) UNIVERSITE' DE PAU ET DES PAYS DE L'ADOUR - PAU (FRANCE)                *
 *(15) UNIVERSITY OF CALIFORNIA SANTA BARBARA - SANTA BARBARA (USA)            *
 *(16) CURTIN UNIVERSITY - PERTH (AUSTRALIA)                                   *
 *(17) UNIVERSITY COLLEGE LONDON - LONDON (UK)                                 *
 *(18) UNIVERSITY OF VERMONT - BURLINGTON (USA)                                *
 *                                                                             *
 *******************************************************************************
 EEEEEEEEEE STARTING  DATE 19 02 2026 TIME 17:33:35.3
 cof-1_z30_L010_incl                                                             

 CRYSTAL CALCULATION
 (INPUT ACCORDING TO THE INTERNATIONAL TABLES FOR X-RAY CRYSTALLOGRAPHY)
 CRYSTAL FAMILY                       :  TRICLINIC   
 CRYSTAL CLASS  (GROTH - 1921)        :  TRICLINIC PEDIAL                     

 SPACE GROUP (NONCENTROSYMMETRIC)     :  P 1             

 LATTICE PARAMETERS  (ANGSTROMS AND DEGREES) - CONVENTIONAL CELL
        A           B           C        ALPHA        BETA       GAMMA
    15.02361    15.02392     3.16228    74.10549    89.99995   119.99596


 NUMBER OF IRREDUCIBLE ATOMS IN THE CONVENTIONAL CELL:   42

 INPUT COORDINATES

 ATOM AT. N.              COORDINATES
   1   5     5.944077600000E-01  1.887687400000E-01  5.015912500000E-01
   2   5     7.534634200000E-01  3.478284000000E-01  5.015912700000E-01
   3   5     5.945321200000E-01  3.480684800000E-01  4.982435400000E-01
   4   5     2.079824700000E-01  5.750837400000E-01  5.015912700000E-01
   5   5     3.670904400000E-01  5.750629700000E-01  5.015912600000E-01
   6   5     3.671993500000E-01  7.344594600000E-01  4.982435400000E-01
   7   1     8.840375200000E-01  2.709139800000E-01  4.946507600000E-01
   8   1     7.766921000000E-02  6.531189400000E-01  4.935894400000E-01
   9   1     8.840123700000E-01  5.561504800000E-01  4.934261000000E-01
  10   1     7.777557000000E-02  3.677598600000E-01  4.934668400000E-01
  11   1     6.716153000000E-01  5.816597000000E-02  5.053473100000E-01
  12   1     2.894718400000E-01  8.645175900000E-01  5.064087000000E-01
  13   1     3.864058300000E-01  5.811770000000E-02  5.065721400000E-01
  14   1     5.748496200000E-01  8.644181900000E-01  5.065311300000E-01
  15   1     6.720666300000E-01  5.560381300000E-01  4.946508200000E-01
  16   1     2.899965100000E-01  3.676748300000E-01  4.935893700000E-01
  17   1     3.868815300000E-01  2.709013100000E-01  4.934259600000E-01
  18   1     5.753302600000E-01  6.530328400000E-01  4.934669600000E-01
  19   6     8.727508700000E-01  4.076609100000E-01  4.981210500000E-01
  20   6     9.274767300000E-01  3.547570100000E-01  4.948140900000E-01
  21   6     3.438672000000E-02  5.691786300000E-01  4.945284100000E-01
  22   6     9.274177700000E-01  5.156196300000E-01  4.953857500000E-01
  23   6     3.447671000000E-02  4.083468500000E-01  4.931810500000E-01
  24   6     8.899998000000E-02  5.159599400000E-01  4.954265400000E-01
  25   6     5.347556600000E-01  6.959702000000E-02  5.018770600000E-01
  26   6     5.877670300000E-01  1.473035000000E-02  5.051839600000E-01
  27   6     3.733768700000E-01  9.078156000000E-01  5.054697400000E-01
  28   6     4.268987200000E-01  1.482119000000E-02  5.046124300000E-01
  29   6     5.342432800000E-01  9.076724600000E-01  5.068169700000E-01
  30   6     4.265406200000E-01  8.532135300000E-01  5.045715500000E-01
  31   6     5.349054300000E-01  4.075917700000E-01  4.981210500000E-01
  32   6     5.881978400000E-01  5.155971500000E-01  4.948141600000E-01
  33   6     3.738219700000E-01  4.081653700000E-01  4.945283400000E-01
  34   6     4.272529200000E-01  3.546174400000E-01  4.953856600000E-01
  35   6     5.347933200000E-01  5.691948800000E-01  4.931811400000E-01
  36   6     4.269240700000E-01  5.158825400000E-01  4.954265400000E-01
  37   8     5.415580200000E-01  2.420094100000E-01  4.991416900000E-01
  38   8     7.002316600000E-01  2.414743000000E-01  5.062045800000E-01
  39   8     7.006388000000E-01  4.012383500000E-01  4.955490500000E-01
  40   8     2.611458500000E-01  6.812898900000E-01  4.991417300000E-01
  41   8     2.608939300000E-01  5.217915800000E-01  5.062045800000E-01
  42   8     4.202232200000E-01  6.815503100000E-01  4.955490200000E-01

 *******************************************************************************

 << INFORMATION >>: FROM NOW ON, ALL COORDINATES REFER TO THE PRIMITIVE CELL

 *******************************************************************************

 LATTICE PARAMETERS  (ANGSTROMS AND DEGREES) - PRIMITIVE CELL
       A          B          C        ALPHA      BETA     GAMMA        VOLUME
   15.02361   15.02392    3.16228    74.10549  89.99995 119.99596    586.445864

 COORDINATES OF THE EQUIVALENT ATOMS (FRACTIONAL UNITS)

 N. ATOM EQUIV AT. N.          X                  Y                  Z

   1   1   1    5 B    -4.05592240000E-01  1.88768740000E-01 -4.98408750000E-01

   2   2   1    5 B    -2.46536580000E-01  3.47828400000E-01 -4.98408730000E-01

   3   3   1    5 B    -4.05467880000E-01  3.48068480000E-01  4.98243540000E-01

   4   4   1    5 B     2.07982470000E-01 -4.24916260000E-01 -4.98408730000E-01

   5   5   1    5 B     3.67090440000E-01 -4.24937030000E-01 -4.98408740000E-01

   6   6   1    5 B     3.67199350000E-01 -2.65540540000E-01  4.98243540000E-01

   7   7   1    1 H    -1.15962480000E-01  2.70913980000E-01  4.94650760000E-01

   8   8   1    1 H     7.76692100000E-02 -3.46881060000E-01  4.93589440000E-01

   9   9   1    1 H    -1.15987630000E-01 -4.43849520000E-01  4.93426100000E-01

  10  10   1    1 H     7.77755700000E-02  3.67759860000E-01  4.93466840000E-01

  11  11   1    1 H    -3.28384700000E-01  5.81659700000E-02 -4.94652690000E-01

  12  12   1    1 H     2.89471840000E-01 -1.35482410000E-01 -4.93591300000E-01

  13  13   1    1 H     3.86405830000E-01  5.81177000000E-02 -4.93427860000E-01

  14  14   1    1 H    -4.25150380000E-01 -1.35581810000E-01 -4.93468870000E-01

  15  15   1    1 H    -3.27933370000E-01 -4.43961870000E-01  4.94650820000E-01

  16  16   1    1 H     2.89996510000E-01  3.67674830000E-01  4.93589370000E-01

  17  17   1    1 H     3.86881530000E-01  2.70901310000E-01  4.93425960000E-01

  18  18   1    1 H    -4.24669740000E-01 -3.46967160000E-01  4.93466960000E-01

  19  19   1    6 C    -1.27249130000E-01  4.07660910000E-01  4.98121050000E-01

  20  20   1    6 C    -7.25232700000E-02  3.54757010000E-01  4.94814090000E-01

  21  21   1    6 C     3.43867200000E-02 -4.30821370000E-01  4.94528410000E-01

  22  22   1    6 C    -7.25822300000E-02 -4.84380370000E-01  4.95385750000E-01

  23  23   1    6 C     3.44767100000E-02  4.08346850000E-01  4.93181050000E-01

  24  24   1    6 C     8.89999800000E-02 -4.84040060000E-01  4.95426540000E-01

  25  25   1    6 C    -4.65244340000E-01  6.95970200000E-02 -4.98122940000E-01

  26  26   1    6 C    -4.12232970000E-01  1.47303500000E-02 -4.94816040000E-01

  27  27   1    6 C     3.73376870000E-01 -9.21844000000E-02 -4.94530260000E-01

  28  28   1    6 C     4.26898720000E-01  1.48211900000E-02 -4.95387570000E-01

  29  29   1    6 C    -4.65756720000E-01 -9.23275400000E-02 -4.93183030000E-01

  30  30   1    6 C     4.26540620000E-01 -1.46786470000E-01 -4.95428450000E-01

  31  31   1    6 C    -4.65094570000E-01  4.07591770000E-01  4.98121050000E-01

  32  32   1    6 C    -4.11802160000E-01 -4.84402850000E-01  4.94814160000E-01

  33  33   1    6 C     3.73821970000E-01  4.08165370000E-01  4.94528340000E-01

  34  34   1    6 C     4.27252920000E-01  3.54617440000E-01  4.95385660000E-01

  35  35   1    6 C    -4.65206680000E-01 -4.30805120000E-01  4.93181140000E-01

  36  36   1    6 C     4.26924070000E-01 -4.84117460000E-01  4.95426540000E-01

  37  37   1    8 O    -4.58441980000E-01  2.42009410000E-01  4.99141690000E-01

  38  38   1    8 O    -2.99768340000E-01  2.41474300000E-01 -4.93795420000E-01

  39  39   1    8 O    -2.99361200000E-01  4.01238350000E-01  4.95549050000E-01

  40  40   1    8 O     2.61145850000E-01 -3.18710110000E-01  4.99141730000E-01

  41  41   1    8 O     2.60893930000E-01 -4.78208420000E-01 -4.93795420000E-01

  42  42   1    8 O     4.20223220000E-01 -3.18449690000E-01  4.95549020000E-01

 NUMBER OF SYMMETRY OPERATORS         :    1
 *******************************************************************************
 * GEOMETRY EDITING - INPUT COORDINATES ARE GIVEN IN ANGSTROM         
 *******************************************************************************

 GCALCO - MAX INDICES DIRECT LATTICE VECTOR     9     9    38
 NO.OF VECTORS CREATED 6999 STARS 3500 RMAX   187.68713 BOHR

 GEOMETRY FOR WAVE FUNCTION - DIMENSIONALITY OF THE SYSTEM    3
 (NON PERIODIC DIRECTION: LATTICE PARAMETER FORMALLY SET TO 500)
 *******************************************************************************
 LATTICE PARAMETERS (ANGSTROMS AND DEGREES) - BOHR = 0.5291772083 ANGSTROM
 PRIMITIVE CELL - CENTRING CODE 1/0 VOLUME=   586.445864 - DENSITY  1.105 g/cm^3
         A              B              C           ALPHA      BETA       GAMMA 
    15.02361100    15.02391600     3.16227800    74.105489  89.999946 119.995964
 *******************************************************************************
 ATOMS IN THE ASYMMETRIC UNIT   42 - ATOMS IN THE UNIT CELL:   42
     ATOM                 X/A                 Y/B                 Z/C    
 *******************************************************************************
      1 T   5 B    -4.055922400000E-01  1.887687400000E-01 -4.984087500000E-01
      2 T   5 B    -2.465365800000E-01  3.478284000000E-01 -4.984087300000E-01
      3 T   5 B    -4.054678800000E-01  3.480684800000E-01  4.982435400000E-01
      4 T   5 B     2.079824700000E-01 -4.249162600000E-01 -4.984087300000E-01
      5 T   5 B     3.670904400000E-01 -4.249370300000E-01 -4.984087400000E-01
      6 T   5 B     3.671993500000E-01 -2.655405400000E-01  4.982435400000E-01
      7 T   1 H    -1.159624800000E-01  2.709139800000E-01  4.946507600000E-01
      8 T   1 H     7.766921000000E-02 -3.468810600000E-01  4.935894400000E-01
      9 T   1 H    -1.159876300000E-01 -4.438495200000E-01  4.934261000000E-01
     10 T   1 H     7.777557000000E-02  3.677598600000E-01  4.934668400000E-01
     11 T   1 H    -3.283847000000E-01  5.816597000000E-02 -4.946526900000E-01
     12 T   1 H     2.894718400000E-01 -1.354824100000E-01 -4.935913000000E-01
     13 T   1 H     3.864058300000E-01  5.811770000000E-02 -4.934278600000E-01
     14 T   1 H    -4.251503800000E-01 -1.355818100000E-01 -4.934688700000E-01
     15 T   1 H    -3.279333700000E-01 -4.439618700000E-01  4.946508200000E-01
     16 T   1 H     2.899965100000E-01  3.676748300000E-01  4.935893700000E-01
     17 T   1 H     3.868815300000E-01  2.709013100000E-01  4.934259600000E-01
     18 T   1 H    -4.246697400000E-01 -3.469671600000E-01  4.934669600000E-01
     19 T   6 C    -1.272491300000E-01  4.076609100000E-01  4.981210500000E-01
     20 T   6 C    -7.252327000000E-02  3.547570100000E-01  4.948140900000E-01
     21 T   6 C     3.438672000000E-02 -4.308213700000E-01  4.945284100000E-01
     22 T   6 C    -7.258223000000E-02 -4.843803700000E-01  4.953857500000E-01
     23 T   6 C     3.447671000000E-02  4.083468500000E-01  4.931810500000E-01
     24 T   6 C     8.899998000000E-02 -4.840400600000E-01  4.954265400000E-01
     25 T   6 C    -4.652443400000E-01  6.959702000000E-02 -4.981229400000E-01
     26 T   6 C    -4.122329700000E-01  1.473035000000E-02 -4.948160400000E-01
     27 T   6 C     3.733768700000E-01 -9.218440000000E-02 -4.945302600000E-01
     28 T   6 C     4.268987200000E-01  1.482119000000E-02 -4.953875700000E-01
     29 T   6 C    -4.657567200000E-01 -9.232754000000E-02 -4.931830300000E-01
     30 T   6 C     4.265406200000E-01 -1.467864700000E-01 -4.954284500000E-01
     31 T   6 C    -4.650945700000E-01  4.075917700000E-01  4.981210500000E-01
     32 T   6 C    -4.118021600000E-01 -4.844028500000E-01  4.948141600000E-01
     33 T   6 C     3.738219700000E-01  4.081653700000E-01  4.945283400000E-01
     34 T   6 C     4.272529200000E-01  3.546174400000E-01  4.953856600000E-01
     35 T   6 C    -4.652066800000E-01 -4.308051200000E-01  4.931811400000E-01
     36 T   6 C     4.269240700000E-01 -4.841174600000E-01  4.954265400000E-01
     37 T   8 O    -4.584419800000E-01  2.420094100000E-01  4.991416900000E-01
     38 T   8 O    -2.997683400000E-01  2.414743000000E-01 -4.937954200000E-01
     39 T   8 O    -2.993612000000E-01  4.012383500000E-01  4.955490500000E-01
     40 T   8 O     2.611458500000E-01 -3.187101100000E-01  4.991417300000E-01
     41 T   8 O     2.608939300000E-01 -4.782084200000E-01 -4.937954200000E-01
     42 T   8 O     4.202232200000E-01 -3.184496900000E-01  4.955490200000E-01

 T = ATOM BELONGING TO THE ASYMMETRIC UNIT

 ****    1 SYMMOPS - TRANSLATORS IN FRACTIONAL UNITS
 **** MATRICES AND TRANSLATORS IN THE CRYSTALLOGRAPHIC REFERENCE FRAME
   V INV                    ROTATION MATRICES                   TRANSLATORS
   1   1  1.00  0.00  0.00  0.00  1.00  0.00  0.00 -0.00  1.00  0.00  0.00  0.00

 DIRECT LATTICE VECTORS CARTESIAN COMPONENTS (ANGSTROM)
          X                    Y                    Z
   0.130113578931E+02  -0.751088897922E+01   0.000000000000E+00
   0.000000000000E+00   0.150239160000E+02   0.000000000000E+00
   0.499932752175E+00   0.866043846873E+00   0.300000624131E+01


 CARTESIAN COORDINATES - PRIMITIVE CELL
 *******************************************************************************
 *      ATOM          X(ANGSTROM)         Y(ANGSTROM)         Z(ANGSTROM)
 *******************************************************************************
    1     5 B    -5.526476651382E+00  5.450760147493E+00 -1.495229360722E+00
    2     5 B    -3.456946524207E+00  6.645809731866E+00 -1.495229300722E+00
    3     5 B     7.484825704268E+00  3.293437630579E-01 -1.505272511616E+00
    4     5 B     2.456963504555E+00  6.646232747089E+00 -1.495229300722E+00
    5     5 B     4.527174240863E+00  5.450878393314E+00 -1.495229330722E+00
    6     5 B     5.026850425154E+00 -6.315951566584E+00  1.494733729691E+00
    7     1 H    -1.761469965809E+00  4.503515591957E+00 -1.516050874040E+00
    8     1 H     1.257343415765E+00 -5.367406623451E+00  1.480771400643E+00
    9     1 H    -1.262476696929E+00 -5.369859055437E+00  1.480281379624E+00
   10     1 H     7.587332598596E-01  4.502349646792E+00 -1.519602641429E+00
   11     1 H    -4.520023938987E+00  2.911950752998E+00 -1.483961157279E+00
   12     1 H     4.019592005318E+00 -3.771095061529E+00  1.519229260652E+00
   13     1 H     4.780983798044E+00 -2.456426009167E+00 -1.480286659635E+00
   14     1 H    -5.278552250666E+00  1.594965747470E+00  1.519596551416E+00
   15     1 H    -4.019566296338E+00 -3.778585408421E+00  1.483955547268E+00
   16     1 H     3.520077119361E+00  2.907210360162E+00 -1.519235050664E+00
   17     1 H     4.780601095045E+00  7.254589754632E-01 -1.519725281684E+00
   18     1 H    -5.278829678071E+00 -1.595794172283E+00  1.480403959879E+00
   19     6 C    -1.906589696743E+00  6.645768179933E+00 -1.505639982381E+00
   20     6 C    -1.196185203891E+00  5.437040599149E+00 -1.515560883020E+00
   21     6 C     6.946488697286E-01 -6.302615623580E+00  1.483588316504E+00
   22     6 C    -6.967338098202E-01 -6.303107138919E+00  1.486160341855E+00
   23     6 C     1.952134202570E-01  5.437090598960E+00 -1.520460013213E+00
   24     6 C     9.057577937224E-01  6.646287088664E+00 -1.513723529198E+00
   25     6 C     6.708869305282E+00 -3.402266918110E+00 -1.494371928938E+00
   26     6 C    -5.611085452685E+00  2.889011225517E+00 -1.484451208299E+00
   27     6 C     5.110840962819E+00 -3.751603941980E+00  1.516412374792E+00
   28     6 C     5.306871558744E+00 -3.412743934525E+00 -1.486165801866E+00
   29     6 C    -5.806752972355E+00  2.550051528156E+00  1.520454073200E+00
   30     6 C     5.802124506407E+00 -4.972025750978E+00  1.513717799186E+00
   31     6 C     6.708940263937E+00  1.671360039139E+00 -1.505639982381E+00
   32     6 C    -5.110731480070E+00 -3.756096664786E+00  1.484445568287E+00
   33     6 C     4.611229601827E+00  2.886746297415E+00 -1.516418134804E+00
   34     6 C     5.306867417190E+00  1.681675238328E+00 -1.513846169453E+00
   35     6 C    -5.806413203079E+00 -2.551147717689E+00  1.479546498095E+00
   36     6 C     5.302609069398E+00  4.107013914173E+00 -1.513723529198E+00
   37     8 O     6.796009744707E+00 -8.654183745052E-01 -1.502578056010E+00
   38     8 O    -4.147257660080E+00  5.451767835478E+00 -1.481389341929E+00
   39     8 O    -3.647354512090E+00 -6.318108790160E+00  1.486650242874E+00
   40     8 O     3.647399415441E+00 -6.317432783740E+00  1.497428305297E+00
   41     8 O     3.147719792024E+00  5.452159038741E+00 -1.481389341929E+00
   42     8 O    -7.295941997257E+00 -5.551858836839E-04  1.486650152874E+00

 *******************************************************************************
 STARTING BASIS SET HANDLING 
 *******************************************************************************

 Loading internal basis set: SOLDEF2MSVP         

 Please cite in your publication:
 L. Dona', J. G. Brandenburg and B. Civalleri, J. Chem. Phys., 151, 121101 (2019
 )                                                                              
                                                                                
                    

 *******************************************************************************
 LOCAL ATOMIC FUNCTIONS BASIS SET
 *******************************************************************************
   ATOM   X(AU)   Y(AU)   Z(AU)  N. TYPE  EXPONENT  S COEF   P COEF   D/F/G COEF
 *******************************************************************************
   1 B  -10.444  10.300  -2.826
                                  1 S  
                                         2.410E+03 1.755E-03 0.000E+00 0.000E+00
                                         3.619E+02 1.344E-02 0.000E+00 0.000E+00
                                         8.231E+01 6.637E-02 0.000E+00 0.000E+00
                                         2.311E+01 2.303E-01 0.000E+00 0.000E+00
                                         7.252E+00 5.150E-01 0.000E+00 0.000E+00
                                  2 S  
                                         2.367E+00 1.000E+00 0.000E+00 0.000E+00
                                  3 S  
                                         5.533E-01 1.000E+00 0.000E+00 0.000E+00
                                  4 S  
                                         1.716E-01 1.000E+00 0.000E+00 0.000E+00
                           5-     7 P  
                                         6.002E+00 0.000E+00-3.555E-02 0.000E+00
                                         1.240E+00 0.000E+00-1.983E-01 0.000E+00
                                         3.367E-01 0.000E+00-5.048E-01 0.000E+00
                           8-    10 P  
                                         1.256E-01 0.000E+00 1.000E+00 0.000E+00
                          11-    15 D  
                                         8.880E-01 0.000E+00 0.000E+00 1.000E+00
   2 B   -6.533  12.559  -2.826
   3 B   14.144   0.622  -2.845
   4 B    4.643  12.560  -2.826
   5 B    8.555  10.301  -2.826
   6 B    9.499 -11.935   2.825
   7 H   -3.329   8.510  -2.865
                                 91 S  
                                         1.874E+01 1.968E-02 0.000E+00 0.000E+00
                                         2.826E+00 1.380E-01 0.000E+00 0.000E+00
                                         6.401E-01 4.783E-01 0.000E+00 0.000E+00
                                 92 S  
                                         1.756E-01 1.000E+00 0.000E+00 0.000E+00
   8 H    2.376 -10.143   2.798
   9 H   -2.386 -10.148   2.797
  10 H    1.434   8.508  -2.872
  11 H   -8.542   5.503  -2.804
  12 H    7.596  -7.126   2.871
  13 H    9.035  -4.642  -2.797
  14 H   -9.975   3.014   2.872
  15 H   -7.596  -7.140   2.804
  16 H    6.652   5.494  -2.871
  17 H    9.034   1.371  -2.872
  18 H   -9.976  -3.016   2.798
  19 C   -3.603  12.559  -2.845
                                115 S  
                                         3.624E+03 1.634E-03 0.000E+00 0.000E+00
                                         5.440E+02 1.252E-02 0.000E+00 0.000E+00
                                         1.237E+02 6.211E-02 0.000E+00 0.000E+00
                                         3.476E+01 2.182E-01 0.000E+00 0.000E+00
                                         1.093E+01 4.980E-01 0.000E+00 0.000E+00
                                116 S  
                                         3.574E+00 1.000E+00 0.000E+00 0.000E+00
                                117 S  
                                         7.742E-01 1.000E+00 0.000E+00 0.000E+00
                                118 S  
                                         2.330E-01 1.000E+00 0.000E+00 0.000E+00
                         119-   121 P  
                                         9.443E+00 0.000E+00 3.790E-02 0.000E+00
                                         2.002E+00 0.000E+00 2.082E-01 0.000E+00
                                         5.463E-01 0.000E+00 5.047E-01 0.000E+00
                         122-   124 P  
                                         1.820E-01 0.000E+00 1.000E+00 0.000E+00
                         125-   129 D  
                                         8.880E-01 0.000E+00 0.000E+00 1.000E+00
  20 C   -2.260  10.275  -2.864
  21 C    1.313 -11.910   2.804
  22 C   -1.317 -11.911   2.808
  23 C    0.369  10.275  -2.873
  24 C    1.712  12.560  -2.861
  25 C   12.678  -6.429  -2.824
  26 C  -10.603   5.459  -2.805
  27 C    9.658  -7.090   2.866
  28 C   10.029  -6.449  -2.808
  29 C  -10.973   4.819   2.873
  30 C   10.964  -9.396   2.861
  31 C   12.678   3.158  -2.845
  32 C   -9.658  -7.098   2.805
  33 C    8.714   5.455  -2.866
  34 C   10.029   3.178  -2.861
  35 C  -10.973  -4.821   2.796
  36 C   10.020   7.761  -2.861
  37 O   12.843  -1.635  -2.839
                                385 S  
                                         6.773E+03 1.727E-03 0.000E+00 0.000E+00
                                         1.017E+03 1.325E-02 0.000E+00 0.000E+00
                                         2.313E+02 6.603E-02 0.000E+00 0.000E+00
                                         6.501E+01 2.353E-01 0.000E+00 0.000E+00
                                         2.050E+01 5.498E-01 0.000E+00 0.000E+00
                                386 S  
                                         6.716E+00 1.000E+00 0.000E+00 0.000E+00
                                387 S  
                                         1.147E+00 1.000E+00 0.000E+00 0.000E+00
                                388 S  
                                         3.342E-01 1.000E+00 0.000E+00 0.000E+00
                         389-   391 P  
                                         1.769E+01 0.000E+00 4.359E-02 0.000E+00
                                         3.854E+00 0.000E+00 2.318E-01 0.000E+00
                                         1.047E+00 0.000E+00 5.146E-01 0.000E+00
                         392-   394 P  
                                         2.759E-01 0.000E+00 1.000E+00 0.000E+00
                         395-   399 D  
                                         8.000E-01 0.000E+00 0.000E+00 1.000E+00
  38 O   -7.837  10.302  -2.799
  39 O   -6.893 -11.939   2.809
  40 O    6.893 -11.938   2.830
  41 O    5.948  10.303  -2.799
  42 O  -13.787  -0.001   2.809

 *******************************************************************************
 FINISHED BASIS SET HANDLING 
 *******************************************************************************

 INFORMATION **** SET_MPP **** PCRYSTAL CALCULATION
 INFORMATION **** READM2 **** NEW DEFAULT: FOCK/KS MATRIX MIXING SET TO 30 %
 INFORMATION **** READM2 **** NEW DEFAULT: FULL DIRECT SCF MODE
 INFORMATION **** READM2 **** NEW DEFAULT: COULOMB BIPOLAR BUFFER SET TO 32 Mb
 INFORMATION **** READM2 **** NEW DEFAULT: EXCHANGE BIPOLAR BUFFER SET TO 32 Mb

 *******************************************************************************
 NEW DEFAULT: DFT INTEGRATION GRID INCREASED TO XLGRID
 NEW DEFAULT: DIIS ACCELERATOR ACTIVE
 USE KEYWORD NODIIS TO TURN IT OFF
 *******************************************************************************

 WARNING **** RDDFTP **** HSEsol-HJS ACTIVE
 RANGE SEPARATION - OMEGA:   0.110000000000000     
 WARNING **** RDDFTP **** HSEsol-3c has to be combined with sol-def2-mSVP basis set
 *******************************************************************************
 N. OF ATOMS PER CELL        42  COULOMB OVERLAP TOL         (T1) 10**   -6
 NUMBER OF SHELLS           234  COULOMB PENETRATION TOL     (T2) 10**   -6
 NUMBER OF AO               474  EXCHANGE OVERLAP TOL        (T3) 10**   -6
 N. OF ELECTRONS PER CELL   198  EXCHANGE PSEUDO OVP (F(G))  (T4) 10**   -6
 CORE ELECTRONS PER CELL     60  EXCHANGE PSEUDO OVP (P(G))  (T5) 10**  -12
 N. OF SYMMETRY OPERATORS     1  POLE ORDER IN MONO ZONE                  4
 *******************************************************************************
 TYPE OF CALCULATION :  RESTRICTED CLOSED SHELL
 KOHN-SHAM HAMILTONIAN

 (EXCHANGE)[CORRELATION] FUNCTIONAL:(HSEsol GGA)[PBEsol]

 RANGE-SEPARATED HYBRID FUNCTIONAL 
 OMEGA (SHORT-RANGE)[LONG-RANGE]:(    0.1100)[    0.0000]

 HYBRID EXCHANGE - PERCENTAGE OF FOCK EXCHANGE    25.0000

 CAPPA:IS1  2;IS2  2;IS3  8; K PTS MONK NET  20; SYMMOPS:K SPACE   2;G SPACE   1

 *******************************************************************************
 MAX NUMBER OF SCF CYCLES      50  CONVERGENCE ON DELTAP        10**-16
 WEIGHT OF F(I) IN F(I+1)      30% CONVERGENCE ON ENERGY        10**- 6
 SHRINK. FACT.(MONKH.)    2  2  8  NUMBER OF K POINTS IN THE IBZ     20
 SHRINKING FACTOR(GILAT NET)    8  NUMBER OF K POINTS(GILAT NET)   1028
 *******************************************************************************
 *** K POINTS COORDINATES (OBLIQUE COORDINATES IN UNITS OF IS =  2)
   1-R(  0  0  0)   2-R(  1  0  0)   3-R(  0  1  0)   4-R(  1  1  0)
   5-C(  0  0  1)   6-C(  1  0  1)   7-C(  0  1  1)   8-C(  1  1  1)
   9-C(  0  0  2)  10-C(  1  0  2)  11-C(  0  1  2)  12-C(  1  1  2)
  13-C(  0  0  3)  14-C(  1  0  3)  15-C(  0  1  3)  16-C(  1  1  3)
  17-R(  0  0  4)  18-R(  1  0  4)  19-R(  0  1  4)  20-R(  1  1  4)

 DIRECT LATTICE VECTORS COMPON. (A.U.)     RECIP. LATTICE VECTORS COMPON. (A.U.) 
        X            Y            Z              X            Y            Z
   24.5879030  -14.1935232    0.0000000      0.2555397    0.0000000   -0.0425841
    0.0000000   28.3910867    0.0000000      0.1277517    0.2213084   -0.0851765
    0.9447360    1.6365857    5.6691902      0.0000000    0.0000000    1.1083038

 DISK SPACE FOR EIGENVECTORS (FTN 10)     7189632 REALS

 SYMMETRY ADAPTION OF THE BLOCH FUNCTIONS DISABLED
 TTTTTTTTTTTTTTTTTTTTTTTTTTTTTT gordsh1     TELAPSE        0.04 TCPU        0.04

 MATRIX SIZE: P(G)  449238, F(G)   91522, P(G) IRR  227136, F(G) IRR   92470
 MAX G-VECTOR INDEX FOR 1- AND 2-ELECTRON INTEGRALS 125

 TTTTTTTTTTTTTTTTTTTTTTTTTTTTTT INPUT       TELAPSE        0.30 TCPU        0.30

 NEIGHBORS OF THE NON-EQUIVALENT ATOMS

 N = NUMBER OF NEIGHBORS AT DISTANCE R
    ATOM  N     R/ANG      R/AU   NEIGHBORS (ATOM LABELS AND CELL INDICES)
   1 B    1     1.3791     2.6061   37 O   -1 0 0
   1 B    1     1.3793     2.6065   38 O    0 0 0
   1 B    1     1.5503     2.9297   25 C   -1 0 0
   1 B    1     2.3895     4.5155    3 B   -1 0 0
   1 B    1     2.3898     4.5160    2 B    0 0 0
   1 B    1     2.5632     4.8437   26 C    0 0 0

   2 B    1     1.3793     2.6065   39 O    0 1-1
   2 B    1     1.3793     2.6065   38 O    0 0 0
   2 B    1     1.5504     2.9298   19 C    0 0 0
   2 B    1     2.3895     4.5156    3 B   -1 0 0
   2 B    1     2.3898     4.5160    1 B    0 0 0
   2 B    1     2.5634     4.8440   22 C    0 1-1

   3 B    1     1.3791     2.6061   37 O    0 0 0
   3 B    1     1.3793     2.6064   39 O    1 1-1
   3 B    1     1.5502     2.9294   31 C    0 0 0
   3 B    1     2.3895     4.5155    1 B    1 0 0
   3 B    1     2.3895     4.5156    2 B    1 0 0
   3 B    1     2.5629     4.8433   32 C    1 1-1

   4 B    1     1.3795     2.6068   40 O    0 1-1
   4 B    1     1.3795     2.6070   41 O    0 0 0
   4 B    1     1.5513     2.9316   24 C    0 0 0
   4 B    1     2.3905     4.5174    6 B    0 1-1
   4 B    1     2.3905     4.5175    5 B    0 0 0
   4 B    1     2.5648     4.8468   23 C    0 0 0

   5 B    1     1.3795     2.6069   41 O    0 0 0
   5 B    1     1.3797     2.6072   42 O    1 1-1
   5 B    1     1.5516     2.9322   36 C    0 0 0
   5 B    1     2.3905     4.5175    4 B    0 0 0
   5 B    1     2.3911     4.5185    6 B    0 1-1
   5 B    1     2.5651     4.8473   35 C    1 1-1

   6 B    1     1.3795     2.6068   40 O    0 0 0
   6 B    1     1.3796     2.6071   42 O    1 0 0
   6 B    1     1.5516     2.9322   30 C    0 0 0
   6 B    1     2.3905     4.5174    4 B    0-1 1
   6 B    1     2.3911     4.5185    5 B    0-1 1
   6 B    1     2.5651     4.8473   29 C    1 0 0

   7 H    1     1.0913     2.0623   20 C    0 0 0
   7 H    1     2.1472     4.0576   19 C    0 0 0
   7 H    1     2.1680     4.0969   23 C    0 0 0
   7 H    1     2.5202     4.7625   10 H    0 0 0
   7 H    1     2.5676     4.8520   38 O    0 0 0
   7 H    1     2.7321     5.1630    2 B    0 0 0

   8 H    1     1.0914     2.0625   21 C    0 0 0
   8 H    1     2.1493     4.0616   24 C    0-1 1
   8 H    1     2.1666     4.0942   22 C    0 0 0
   8 H    1     2.5198     4.7618    9 H    0 0 0
   8 H    1     2.5720     4.8604   40 O    0 0 0
   8 H    1     2.7362     5.1707    4 B    0-1 1

   9 H    1     1.0914     2.0624   22 C    0 0 0
   9 H    1     2.1471     4.0575   19 C    0-1 1
   9 H    1     2.1680     4.0970   21 C    0 0 0
   9 H    1     2.5198     4.7618    8 H    0 0 0
   9 H    1     2.5665     4.8500   39 O    0 0 0
   9 H    1     2.7315     5.1618    2 B    0-1 1

  10 H    1     1.0915     2.0626   23 C    0 0 0
  10 H    1     2.1490     4.0610   24 C    0 0 0
  10 H    1     2.1669     4.0948   20 C    0 0 0
  10 H    1     2.5202     4.7625    7 H    0 0 0
  10 H    1     2.5712     4.8588   41 O    0 0 0
  10 H    1     2.7351     5.1686    4 B    0 0 0

  11 H    1     1.0913     2.0623   26 C    0 0 0
  11 H    1     2.1469     4.0571   25 C   -1 0 0
  11 H    1     2.1680     4.0968   29 C    0 0-1
  11 H    1     2.5198     4.7617   14 H    0 0-1
  11 H    1     2.5670     4.8510   38 O    0 0 0
  11 H    1     2.7310     5.1609    1 B    0 0 0

  12 H    1     1.0914     2.0625   27 C    0 0 0
  12 H    1     2.1493     4.0617   30 C    0 0 0
  12 H    1     2.1664     4.0939   28 C    0 0 1
  12 H    1     2.5192     4.7606   13 H    0 0 1
  12 H    1     2.5735     4.8632   40 O    0 0 0
  12 H    1     2.7371     5.1723    6 B    0 0 0

  13 H    1     1.0914     2.0624   28 C    0 0 0
  13 H    1     2.1475     4.0581   25 C    0 0 0
  13 H    1     2.1679     4.0967   27 C    0 0-1
  13 H    1     2.5192     4.7606   12 H    0 0-1
  13 H    1     2.5675     4.8519   37 O    0 0 0
  13 H    1     2.7328     5.1643    1 B    1 0 0

  14 H    1     1.0914     2.0625   29 C    0 0 0
  14 H    1     2.1491     4.0612   30 C   -1 0 0
  14 H    1     2.1666     4.0942   26 C    0 0 1
  14 H    1     2.5198     4.7617   11 H    0 0 1
  14 H    1     2.5723     4.8609   42 O    0 0 0
  14 H    1     2.7355     5.1693    6 B   -1 0 0

  15 H    1     1.0914     2.0624   32 C    0 0 0
  15 H    1     2.1475     4.0582   31 C   -1-1 1
  15 H    1     2.1678     4.0966   35 C    0 0 0
  15 H    1     2.5200     4.7621   18 H    0 0 0
  15 H    1     2.5667     4.8503   39 O    0 0 0
  15 H    1     2.7315     5.1618    3 B   -1-1 1

  16 H    1     1.0913     2.0623   33 C    0 0 0
  16 H    1     2.1487     4.0605   36 C    0 0 0
  16 H    1     2.1667     4.0945   34 C    0 0 0
  16 H    1     2.5197     4.7616   17 H    0 0 0
  16 H    1     2.5723     4.8610   41 O    0 0 0
  16 H    1     2.7359     5.1701    5 B    0 0 0

  17 H    1     1.0915     2.0626   34 C    0 0 0
  17 H    1     2.1479     4.0589   31 C    0 0 0
  17 H    1     2.1679     4.0968   33 C    0 0 0
  17 H    1     2.5197     4.7616   16 H    0 0 0
  17 H    1     2.5677     4.8522   37 O    0 0 0
  17 H    1     2.7331     5.1648    3 B    0 0 0

  18 H    1     1.0914     2.0624   35 C    0 0 0
  18 H    1     2.1486     4.0602   36 C   -1-1 1
  18 H    1     2.1668     4.0947   32 C    0 0 0
  18 H    1     2.5200     4.7621   15 H    0 0 0
  18 H    1     2.5717     4.8598   42 O    0 0 0
  18 H    1     2.7349     5.1682    5 B   -1-1 1

  19 C    1     1.4020     2.6495   22 C    0 1-1
  19 C    1     1.4021     2.6495   20 C    0 0 0
  19 C    1     1.5504     2.9298    2 B    0 0 0
  19 C    1     2.1471     4.0575    9 H    0 1-1
  19 C    1     2.1472     4.0576    7 H    0 0 0
  19 C    1     2.4246     4.5817   21 C    0 1-1

  20 C    1     1.0913     2.0623    7 H    0 0 0
  20 C    1     1.3914     2.6294   23 C    0 0 0
  20 C    1     1.4021     2.6495   19 C    0 0 0
  20 C    1     2.1669     4.0948   10 H    0 0 0
  20 C    1     2.4177     4.5688   22 C    0 1-1
  20 C    1     2.4250     4.5825   24 C    0 0 0

  21 C    1     1.0914     2.0625    8 H    0 0 0
  21 C    1     1.3914     2.6293   22 C    0 0 0
  21 C    1     1.4026     2.6505   24 C    0-1 1
  21 C    1     2.1680     4.0970    9 H    0 0 0
  21 C    1     2.4182     4.5697   23 C    0-1 1
  21 C    1     2.4246     4.5817   19 C    0-1 1

  22 C    1     1.0914     2.0624    9 H    0 0 0
  22 C    1     1.3914     2.6293   21 C    0 0 0
  22 C    1     1.4020     2.6495   19 C    0-1 1
  22 C    1     2.1666     4.0942    8 H    0 0 0
  22 C    1     2.4177     4.5688   20 C    0-1 1
  22 C    1     2.4250     4.5826   24 C    0-1 1

  23 C    1     1.0915     2.0626   10 H    0 0 0
  23 C    1     1.3914     2.6294   20 C    0 0 0
  23 C    1     1.4025     2.6504   24 C    0 0 0
  23 C    1     2.1680     4.0969    7 H    0 0 0
  23 C    1     2.4182     4.5697   21 C    0 1-1
  23 C    1     2.4246     4.5818   19 C    0 0 0

  24 C    1     1.4025     2.6504   23 C    0 0 0
  24 C    1     1.4026     2.6505   21 C    0 1-1
  24 C    1     1.5513     2.9316    4 B    0 0 0
  24 C    1     2.1490     4.0610   10 H    0 0 0
  24 C    1     2.1493     4.0616    8 H    0 1-1
  24 C    1     2.4250     4.5825   20 C    0 0 0

  25 C    1     1.4020     2.6494   26 C    1 0 0
  25 C    1     1.4021     2.6495   28 C    0 0 0
  25 C    1     1.5503     2.9297    1 B    1 0 0
  25 C    1     2.1469     4.0571   11 H    1 0 0
  25 C    1     2.1475     4.0581   13 H    0 0 0
  25 C    1     2.4246     4.5818   27 C    0 0-1

  26 C    1     1.0913     2.0623   11 H    0 0 0
  26 C    1     1.3914     2.6293   29 C    0 0-1
  26 C    1     1.4020     2.6494   25 C   -1 0 0
  26 C    1     2.1666     4.0942   14 H    0 0-1
  26 C    1     2.4175     4.5684   28 C   -1 0 0
  26 C    1     2.4251     4.5828   30 C   -1 0-1

  27 C    1     1.0914     2.0625   12 H    0 0 0
  27 C    1     1.3915     2.6295   28 C    0 0 1
  27 C    1     1.4026     2.6505   30 C    0 0 0
  27 C    1     2.1679     4.0967   13 H    0 0 1
  27 C    1     2.4179     4.5691   29 C    1 0 0
  27 C    1     2.4246     4.5818   25 C    0 0 1

  28 C    1     1.0914     2.0624   13 H    0 0 0
  28 C    1     1.3915     2.6295   27 C    0 0-1
  28 C    1     1.4021     2.6495   25 C    0 0 0
  28 C    1     2.1664     4.0939   12 H    0 0-1
  28 C    1     2.4175     4.5684   26 C    1 0 0
  28 C    1     2.4253     4.5832   30 C    0 0-1

  29 C    1     1.0914     2.0625   14 H    0 0 0
  29 C    1     1.3914     2.6293   26 C    0 0 1
  29 C    1     1.4025     2.6504   30 C   -1 0 0
  29 C    1     2.1680     4.0968   11 H    0 0 1
  29 C    1     2.4179     4.5691   27 C   -1 0 0
  29 C    1     2.4247     4.5819   25 C   -1 0 1

  30 C    1     1.4025     2.6504   29 C    1 0 0
  30 C    1     1.4026     2.6505   27 C    0 0 0
  30 C    1     1.5516     2.9322    6 B    0 0 0
  30 C    1     2.1491     4.0612   14 H    1 0 0
  30 C    1     2.1493     4.0617   12 H    0 0 0
  30 C    1     2.4251     4.5828   26 C    1 0 1

  31 C    1     1.4021     2.6496   32 C    1 1-1
  31 C    1     1.4021     2.6497   34 C    0 0 0
  31 C    1     1.5502     2.9294    3 B    0 0 0
  31 C    1     2.1475     4.0582   15 H    1 1-1
  31 C    1     2.1479     4.0589   17 H    0 0 0
  31 C    1     2.4244     4.5814   33 C    0 0 0

  32 C    1     1.0914     2.0624   15 H    0 0 0
  32 C    1     1.3914     2.6293   35 C    0 0 0
  32 C    1     1.4021     2.6496   31 C   -1-1 1
  32 C    1     2.1668     4.0947   18 H    0 0 0
  32 C    1     2.4179     4.5692   34 C   -1-1 1
  32 C    1     2.4251     4.5827   36 C   -1-1 1

  33 C    1     1.0913     2.0623   16 H    0 0 0
  33 C    1     1.3914     2.6294   34 C    0 0 0
  33 C    1     1.4025     2.6504   36 C    0 0 0
  33 C    1     2.1679     4.0968   17 H    0 0 0
  33 C    1     2.4178     4.5690   35 C    1 1-1
  33 C    1     2.4244     4.5814   31 C    0 0 0

  34 C    1     1.0915     2.0626   17 H    0 0 0
  34 C    1     1.3914     2.6294   33 C    0 0 0
  34 C    1     1.4021     2.6497   31 C    0 0 0
  34 C    1     2.1667     4.0945   16 H    0 0 0
  34 C    1     2.4179     4.5692   32 C    1 1-1
  34 C    1     2.4253     4.5832   36 C    0 0 0

  35 C    1     1.0914     2.0624   18 H    0 0 0
  35 C    1     1.3914     2.6293   32 C    0 0 0
  35 C    1     1.4025     2.6503   36 C   -1-1 1
  35 C    1     2.1678     4.0966   15 H    0 0 0
  35 C    1     2.4178     4.5690   33 C   -1-1 1
  35 C    1     2.4245     4.5817   31 C   -1-1 1

  36 C    1     1.4025     2.6503   35 C    1 1-1
  36 C    1     1.4025     2.6504   33 C    0 0 0
  36 C    1     1.5516     2.9322    5 B    0 0 0
  36 C    1     2.1486     4.0602   18 H    1 1-1
  36 C    1     2.1487     4.0605   16 H    0 0 0
  36 C    1     2.4251     4.5827   32 C    1 1-1

  37 O    1     1.3791     2.6061    1 B    1 0 0
  37 O    1     1.3791     2.6061    3 B    0 0 0
  37 O    1     2.3880     4.5126   38 O    1 0 0
  37 O    1     2.3882     4.5130   39 O    1 1-1
  37 O    1     2.5383     4.7966   31 C    0 0 0
  37 O    1     2.5384     4.7968   25 C    0 0 0

  38 O    1     1.3793     2.6065    1 B    0 0 0
  38 O    1     1.3793     2.6065    2 B    0 0 0
  38 O    1     2.3880     4.5126   37 O   -1 0 0
  38 O    1     2.3882     4.5131   39 O    0 1-1
  38 O    1     2.5391     4.7981   19 C    0 0 0
  38 O    1     2.5395     4.7990   25 C   -1 0 0

  39 O    1     1.3793     2.6064    3 B   -1-1 1
  39 O    1     1.3793     2.6065    2 B    0-1 1
  39 O    1     2.3882     4.5130   37 O   -1-1 1
  39 O    1     2.3882     4.5131   38 O    0-1 1
  39 O    1     2.5390     4.7980   19 C    0-1 1
  39 O    1     2.5391     4.7982   31 C   -1-1 1

  40 O    1     1.3795     2.6068    6 B    0 0 0
  40 O    1     1.3795     2.6068    4 B    0-1 1
  40 O    1     2.3880     4.5126   42 O    1 0 0
  40 O    1     2.3884     4.5134   41 O    0-1 1
  40 O    1     2.5400     4.7998   24 C    0-1 1
  40 O    1     2.5403     4.8005   30 C    0 0 0

  41 O    1     1.3795     2.6069    5 B    0 0 0
  41 O    1     1.3795     2.6070    4 B    0 0 0
  41 O    1     2.3881     4.5128   42 O    1 1-1
  41 O    1     2.3884     4.5134   40 O    0 1-1
  41 O    1     2.5404     4.8006   24 C    0 0 0
  41 O    1     2.5405     4.8008   36 C    0 0 0

  42 O    1     1.3796     2.6071    6 B   -1 0 0
  42 O    1     1.3797     2.6072    5 B   -1-1 1
  42 O    1     2.3880     4.5126   40 O   -1 0 0
  42 O    1     2.3881     4.5128   41 O   -1-1 1
  42 O    1     2.5409     4.8016   36 C   -1-1 1
  42 O    1     2.5410     4.8019   30 C   -1 0 0


 SYMMETRY ALLOWED INTERNAL DEGREE(S) OF FREEDOM: 123
 TTTTTTTTTTTTTTTTTTTTTTTTTTTTTT SYMM        TELAPSE        0.31 TCPU        0.30
 TTTTTTTTTTTTTTTTTTTTTTTTTTTTTT INT_SCREEN  TELAPSE        0.33 TCPU        0.33

 DFT PARAMETERS

     ATOM       ELECTRONS   NET CHARGE   R(ANGSTROM)
   1   5  B       5.0000      0.0000     0.89000000
   7   1  H       1.0000      0.0000     1.11000000
  19   6  C       6.0000      0.0000     0.77000000
  37   8  O       8.0000      0.0000     0.74000000

 SIZE OF GRID=    1196835
 TTTTTTTTTTTTTTTTTTTTTTTTTTTTTT MAKE_GRID2  TELAPSE       14.73 TCPU       14.70
 BECKE WEIGHT FUNCTION
 RADSAFE =     2.00
 TOLERANCES - DENSITY:10**- 6; POTENTIAL:10**- 9; GRID WGT:10**-14

 RADIAL INTEGRATION  - INTERVALS (POINTS,UPPER LIMIT):            1( 75,  4.0*R)

 ANGULAR INTEGRATION - INTERVALS (ACCURACY LEVEL [N. POINTS] UPPER LIMIT):
  1(  4[  86]   0.2)  2(  8[ 194]   0.5)  3( 12[ 350]   0.9)  4( 16[ 974]   3.5)
  5( 12[ 350]9999.0)
 TTTTTTTTTTTTTTTTTTTTTTTTTTTTTT INT_CALC    TELAPSE       14.87 TCPU       14.84
 EEEEEEEEEE INT_CALC TERMINATION  DATE 19 02 2026 TIME 17:33:50.2

 *******************************************************************************
 cof-1_z30_L010_incl                                                             
 CRYSTAL - SCF - TYPE OF CALCULATION :  RESTRICTED CLOSED SHELL
 *******************************************************************************

 CAPPA:IS1  2;IS2  2;IS3  8; K PTS MONK NET  20; SYMMOPS:K SPACE   2;G SPACE   1

 TTTTTTTTTTTTTTTTTTTTTTTTTTTTTT SDIK        TELAPSE       15.45 TCPU       22.97

 AAAAAAAAAAAAAAAAAAAAAAAAAAAAAAAAAAAAAAAAAAAAAAAAAAAAAAAAAAAAAAAAAAAAAAAAAAAAAAA
         ATOMIC WAVEFUNCTION(S)


 NUCLEAR CHARGE  5.0  SYMMETRY SPECIES            S    P
 N. ELECTRONS    5.0  NUMBER OF PRIMITIVE GTOS    8    4
                      NUMBER OF CONTRACTED GTOS   4    2
                      NUMBER OF CLOSED SHELLS     2    0
                      OPEN SHELL OCCUPATION       0    1

  ZNUC  SCFIT    TOTAL HF ENERGY   KINETIC ENERGY   VIRIAL THEOREM ACCURACY
   5.0    11    -2.451164084E+01  2.462155050E+01 -1.995536038E+00  1.5E-06

 NUCLEAR CHARGE  1.0  SYMMETRY SPECIES            S
 N. ELECTRONS    1.0  NUMBER OF PRIMITIVE GTOS    4
                      NUMBER OF CONTRACTED GTOS   2
                      NUMBER OF CLOSED SHELLS     0
                      OPEN SHELL OCCUPATION       1

  ZNUC  SCFIT    TOTAL HF ENERGY   KINETIC ENERGY   VIRIAL THEOREM ACCURACY
   1.0     1    -4.977266687E-01  5.190767460E-01 -1.958869132E+00  0.0E+00

 NUCLEAR CHARGE  6.0  SYMMETRY SPECIES            S    P
 N. ELECTRONS    6.0  NUMBER OF PRIMITIVE GTOS    8    4
                      NUMBER OF CONTRACTED GTOS   4    2
                      NUMBER OF CLOSED SHELLS     2    0
                      OPEN SHELL OCCUPATION       0    2

  ZNUC  SCFIT    TOTAL HF ENERGY   KINETIC ENERGY   VIRIAL THEOREM ACCURACY
   6.0     9    -3.766704647E+01  3.775180683E+01 -1.997754800E+00  1.1E-06

 NUCLEAR CHARGE  8.0  SYMMETRY SPECIES            S    P
 N. ELECTRONS    8.0  NUMBER OF PRIMITIVE GTOS    8    4
                      NUMBER OF CONTRACTED GTOS   4    2
                      NUMBER OF CLOSED SHELLS     2    0
                      OPEN SHELL OCCUPATION       0    4

  ZNUC  SCFIT    TOTAL HF ENERGY   KINETIC ENERGY   VIRIAL THEOREM ACCURACY
   8.0    12    -7.477373220E+01  7.477365593E+01 -2.000001020E+00  3.8E-06

 AAAAAAAAAAAAAAAAAAAAAAAAAAAAAAAAAAAAAAAAAAAAAAAAAAAAAAAAAAAAAAAAAAAAAAAAAAAAAAA

 CHARGE NORMALIZATION FACTOR   1.00000000
 TOTAL ATOMIC CHARGES:
   5.0000000   5.0000000   5.0000000   5.0000000   5.0000000   5.0000000
   1.0000000   1.0000000   1.0000000   1.0000000   1.0000000   1.0000000
   1.0000000   1.0000000   1.0000000   1.0000000   1.0000000   1.0000000
   6.0000000   6.0000000   6.0000000   6.0000000   6.0000000   6.0000000
   6.0000000   6.0000000   6.0000000   6.0000000   6.0000000   6.0000000
   6.0000000   6.0000000   6.0000000   6.0000000   6.0000000   6.0000000
   8.0000000   8.0000000   8.0000000   8.0000000   8.0000000   8.0000000
 TTTTTTTTTTTTTTTTTTTTTTTTTTTTTT MOQGAD      TELAPSE       15.51 TCPU       24.95
 TTTTTTTTTTTTTTTTTTTTTTTTTTTTTT SHELLXN     TELAPSE       31.50 TCPU      535.93
 TTTTTTTTTTTTTTTTTTTTTTTTTTTTTT MONMO3      TELAPSE       31.72 TCPU      542.87
 NUMERICALLY INTEGRATED DENSITY    198.0001662336
 TTTTTTTTTTTTTTTTTTTTTTTTTTTTTT NUMDFT      TELAPSE       32.44 TCPU      565.92
 CYC   0 ETOT(AU) -1.296125629887E+03 DETOT -1.30E+03 tst  0.00E+00 PX  1.00E+00
 TTTTTTTTTTTTTTTTTTTTTTTTTTTTTT DIIS        TELAPSE       32.48 TCPU      567.03
 TTTTTTTTTTTTTTTTTTTTTTTTTTTTTT FDIK        TELAPSE       32.95 TCPU      582.20
 INSULATING STATE
 TOP OF VALENCE BANDS -    BAND     99; K    1; EIG -2.6844899E-01 AU
 BOTTOM OF VIRTUAL BANDS - BAND    100; K   17; EIG -1.9090161E-01 AU
 INDIRECT ENERGY BAND GAP:   2.1102 eV
 BOTTOM OF VIRTUAL BANDS - BAND    100; K    1; EIG -1.2729589E-01 AU
 TTTTTTTTTTTTTTTTTTTTTTTTTTTTTT PDIG        TELAPSE       33.24 TCPU      588.34
 CHARGE NORMALIZATION FACTOR   1.00000000
 TOTAL ATOMIC CHARGES:
   4.1182864   4.1087248   4.1090680   4.1090426   4.1085384   4.1182400
   0.7866860   0.7867398   0.7860976   0.7861250   0.7862092   0.7863405
   0.7862046   0.7863196   0.7860573   0.7861902   0.7866199   0.7867438
   6.0613533   6.2753454   6.2752015   6.2703849   6.2698534   6.0608470
   6.0622777   6.2699945   6.2692883   6.2698496   6.2692493   6.0619358
   6.0615780   6.2700537   6.2703014   6.2748756   6.2754831   6.0604820
   8.7110480   8.7112695   8.7088134   8.7115099   8.7090716   8.7116997
 TTTTTTTTTTTTTTTTTTTTTTTTTTTTTT MOQGAD      TELAPSE       33.30 TCPU      588.41
 TTTTTTTTTTTTTTTTTTTTTTTTTTTTTT SHELLXN     TELAPSE       49.79 TCPU     1114.63
 TTTTTTTTTTTTTTTTTTTTTTTTTTTTTT MONMO3      TELAPSE       50.01 TCPU     1121.55
 NUMERICALLY INTEGRATED DENSITY    198.0001102909
 TTTTTTTTTTTTTTTTTTTTTTTTTTTTTT NUMDFT      TELAPSE       50.74 TCPU     1144.99
 CYC   1 ETOT(AU) -1.288786956772E+03 DETOT  7.34E+00 tst  0.00E+00 PX  1.00E+00
 TTTTTTTTTTTTTTTTTTTTTTTTTTTTTT DIIS        TELAPSE       50.79 TCPU     1146.46
 DIIS TEST: 0.11103E+01 AT SCF   CYCLE   1 - MIX   30 %
 TTTTTTTTTTTTTTTTTTTTTTTTTTTTTT FDIK        TELAPSE       51.27 TCPU     1161.81
 INSULATING STATE
 TOP OF VALENCE BANDS -    BAND     99; K    1; EIG -1.6297119E-01 AU
 BOTTOM OF VIRTUAL BANDS - BAND    100; K   17; EIG -1.1290378E-01 AU
 INDIRECT ENERGY BAND GAP:   1.3624 eV
 BOTTOM OF VIRTUAL BANDS - BAND    100; K    1; EIG -4.2197629E-02 AU
 TTTTTTTTTTTTTTTTTTTTTTTTTTTTTT PDIG        TELAPSE       51.55 TCPU     1167.95
 CHARGE NORMALIZATION FACTOR   1.00000000
 TOTAL ATOMIC CHARGES:
   4.6869882   4.6695965   4.6673104   4.6680577   4.6688402   4.6856392
   0.9294316   0.9296134   0.9290303   0.9288402   0.9254841   0.9253133
   0.9254204   0.9252411   0.9288522   0.9287641   0.9292903   0.9293154
   5.8637222   6.1104848   6.1104964   6.1272583   6.1294896   5.8671473
   5.8697591   6.1180159   6.1199168   6.1193105   6.1192955   5.8740830
   5.8634264   6.1275752   6.1297599   6.1106418   6.1107330   5.8677866
   8.3620619   8.3623882   8.3661606   8.3613907   8.3668474   8.3612203
 TTTTTTTTTTTTTTTTTTTTTTTTTTTTTT MOQGAD      TELAPSE       51.62 TCPU     1168.01
 TTTTTTTTTTTTTTTTTTTTTTTTTTTTTT SHELLXN     TELAPSE       68.08 TCPU     1693.45
 TTTTTTTTTTTTTTTTTTTTTTTTTTTTTT MONMO3      TELAPSE       68.29 TCPU     1700.27
 NUMERICALLY INTEGRATED DENSITY    198.0001191646
 TTTTTTTTTTTTTTTTTTTTTTTTTTTTTT NUMDFT      TELAPSE       69.03 TCPU     1723.81
 CYC   2 ETOT(AU) -1.288974187194E+03 DETOT -1.87E-01 tst  4.30E-03 PX  1.51E-01
 TTTTTTTTTTTTTTTTTTTTTTTTTTTTTT DIIS        TELAPSE       69.08 TCPU     1725.34
 DIIS TEST: 0.50760E+00 AT SCF   CYCLE   2 - DIIS ACTIVE - HISTORY:     2 CYCLES
 TTTTTTTTTTTTTTTTTTTTTTTTTTTTTT FDIK        TELAPSE       69.56 TCPU     1740.73
 INSULATING STATE
 TOP OF VALENCE BANDS -    BAND     99; K    1; EIG -1.8165847E-01 AU
 BOTTOM OF VIRTUAL BANDS - BAND    100; K   17; EIG -1.0642287E-01 AU
 INDIRECT ENERGY BAND GAP:   2.0473 eV
 BOTTOM OF VIRTUAL BANDS - BAND    100; K    1; EIG -3.3151844E-02 AU
 TTTTTTTTTTTTTTTTTTTTTTTTTTTTTT PDIG        TELAPSE       69.85 TCPU     1746.87
 CHARGE NORMALIZATION FACTOR   1.00000000
 TOTAL ATOMIC CHARGES:
   4.4526658   4.4370797   4.4362181   4.4355789   4.4356001   4.4511267
   0.8951703   0.8953479   0.8945525   0.8944316   0.8932446   0.8936400
   0.8934642   0.8934177   0.8943985   0.8944304   0.8950719   0.8952162
   5.9045547   6.1767063   6.1766160   6.1696146   6.1668105   5.9037404
   5.9138760   6.1679354   6.1660343   6.1676048   6.1663511   5.9142350
   5.9057214   6.1697920   6.1669562   6.1767371   6.1764870   5.9029061
   8.5230058   8.5231469   8.5171809   8.5233498   8.5165666   8.5234161
 TTTTTTTTTTTTTTTTTTTTTTTTTTTTTT MOQGAD      TELAPSE       69.91 TCPU     1746.93
 TTTTTTTTTTTTTTTTTTTTTTTTTTTTTT SHELLXN     TELAPSE       86.41 TCPU     2273.57
 TTTTTTTTTTTTTTTTTTTTTTTTTTTTTT MONMO3      TELAPSE       86.62 TCPU     2280.43
 NUMERICALLY INTEGRATED DENSITY    198.0001218821
 TTTTTTTTTTTTTTTTTTTTTTTTTTTTTT NUMDFT      TELAPSE       87.36 TCPU     2303.95
 CYC   3 ETOT(AU) -1.289081311372E+03 DETOT -1.07E-01 tst  7.31E-04 PX  5.41E-02
 TTTTTTTTTTTTTTTTTTTTTTTTTTTTTT DIIS        TELAPSE       87.42 TCPU     2305.68
 DIIS TEST: 0.10663E-01 AT SCF   CYCLE   3 - DIIS ACTIVE - HISTORY:     3 CYCLES
 TTTTTTTTTTTTTTTTTTTTTTTTTTTTTT FDIK        TELAPSE       87.89 TCPU     2320.98
 INSULATING STATE
 TOP OF VALENCE BANDS -    BAND     99; K    1; EIG -1.8968114E-01 AU
 BOTTOM OF VIRTUAL BANDS - BAND    100; K   17; EIG -1.1792197E-01 AU
 INDIRECT ENERGY BAND GAP:   1.9527 eV
 BOTTOM OF VIRTUAL BANDS - BAND    100; K    1; EIG -4.5682479E-02 AU
 TTTTTTTTTTTTTTTTTTTTTTTTTTTTTT PDIG        TELAPSE       88.18 TCPU     2327.11
 CHARGE NORMALIZATION FACTOR   1.00000000
 TOTAL ATOMIC CHARGES:
   4.4666969   4.4496285   4.4479124   4.4496287   4.4501644   4.4668170
   0.8831860   0.8835560   0.8818900   0.8815743   0.8798708   0.8796850
   0.8797686   0.8796977   0.8818188   0.8814476   0.8831504   0.8832588
   5.9581822   6.1492521   6.1486173   6.1609856   6.1668259   5.9652870
   5.9651236   6.1532397   6.1559555   6.1544878   6.1550744   5.9712212
   5.9573713   6.1608004   6.1675204   6.1487857   6.1492418   5.9663776
   8.5045655   8.5048654   8.5085312   8.5039394   8.5101598   8.5038373
 TTTTTTTTTTTTTTTTTTTTTTTTTTTTTT MOQGAD      TELAPSE       88.25 TCPU     2327.18
 TTTTTTTTTTTTTTTTTTTTTTTTTTTTTT SHELLXN     TELAPSE      104.76 TCPU     2853.86
 TTTTTTTTTTTTTTTTTTTTTTTTTTTTTT MONMO3      TELAPSE      104.97 TCPU     2860.69
 NUMERICALLY INTEGRATED DENSITY    198.0001199904
 TTTTTTTTTTTTTTTTTTTTTTTTTTTTTT NUMDFT      TELAPSE      105.70 TCPU     2884.13
 CYC   4 ETOT(AU) -1.289083171124E+03 DETOT -1.86E-03 tst  4.64E-05 PX  1.39E-02
 TTTTTTTTTTTTTTTTTTTTTTTTTTTTTT DIIS        TELAPSE      105.76 TCPU     2886.05
 DIIS TEST: 0.39950E-02 AT SCF   CYCLE   4 - DIIS ACTIVE - HISTORY:     4 CYCLES
 TTTTTTTTTTTTTTTTTTTTTTTTTTTTTT FDIK        TELAPSE      106.24 TCPU     2901.31
 INSULATING STATE
 TOP OF VALENCE BANDS -    BAND     99; K    1; EIG -1.9004189E-01 AU
 BOTTOM OF VIRTUAL BANDS - BAND    100; K   17; EIG -1.1573867E-01 AU
 INDIRECT ENERGY BAND GAP:   2.0219 eV
 BOTTOM OF VIRTUAL BANDS - BAND    100; K    1; EIG -4.3182338E-02 AU
 TTTTTTTTTTTTTTTTTTTTTTTTTTTTTT PDIG        TELAPSE      106.53 TCPU     2907.45
 CHARGE NORMALIZATION FACTOR   1.00000000
 TOTAL ATOMIC CHARGES:
   4.4670782   4.4512161   4.4499587   4.4484723   4.4486469   4.4644563
   0.8839087   0.8839698   0.8829554   0.8830095   0.8813151   0.8816594
   0.8814683   0.8814523   0.8827660   0.8830232   0.8837600   0.8838317
   5.9335759   6.1694638   6.1693142   6.1735307   6.1676561   5.9274519
   5.9394466   6.1675412   6.1651923   6.1674991   6.1654449   5.9361009
   5.9347718   6.1739204   6.1676738   6.1696846   6.1691353   5.9265880
   8.5097919   8.5099066   8.5072709   8.5100253   8.5060926   8.5099732
 TTTTTTTTTTTTTTTTTTTTTTTTTTTTTT MOQGAD      TELAPSE      106.59 TCPU     2907.51
 TTTTTTTTTTTTTTTTTTTTTTTTTTTTTT SHELLXN     TELAPSE      123.10 TCPU     3434.35
 TTTTTTTTTTTTTTTTTTTTTTTTTTTTTT MONMO3      TELAPSE      123.32 TCPU     3441.15
 NUMERICALLY INTEGRATED DENSITY    198.0001199219
 TTTTTTTTTTTTTTTTTTTTTTTTTTTTTT NUMDFT      TELAPSE      124.05 TCPU     3464.57
 CYC   5 ETOT(AU) -1.289084012826E+03 DETOT -8.42E-04 tst  1.27E-05 PX  7.99E-03
 TTTTTTTTTTTTTTTTTTTTTTTTTTTTTT DIIS        TELAPSE      124.12 TCPU     3466.73
 DIIS TEST: 0.43278E-03 AT SCF   CYCLE   5 - DIIS ACTIVE - HISTORY:     5 CYCLES
 TTTTTTTTTTTTTTTTTTTTTTTTTTTTTT FDIK        TELAPSE      124.59 TCPU     3481.92
 INSULATING STATE
 TOP OF VALENCE BANDS -    BAND     99; K    1; EIG -1.8940376E-01 AU
 BOTTOM OF VIRTUAL BANDS - BAND    100; K   17; EIG -1.1528293E-01 AU
 INDIRECT ENERGY BAND GAP:   2.0169 eV
 BOTTOM OF VIRTUAL BANDS - BAND    100; K    1; EIG -4.2732524E-02 AU
 TTTTTTTTTTTTTTTTTTTTTTTTTTTTTT PDIG        TELAPSE      124.88 TCPU     3488.06
 CHARGE NORMALIZATION FACTOR   1.00000000
 TOTAL ATOMIC CHARGES:
   4.4648388   4.4485534   4.4471161   4.4496984   4.4500923   4.4659482
   0.8853244   0.8856928   0.8846398   0.8842320   0.8828673   0.8828151
   0.8828797   0.8827483   0.8845593   0.8841350   0.8852729   0.8854545
   5.9261379   6.1651579   6.1656377   6.1653219   6.1733981   5.9389211
   5.9348499   6.1625742   6.1655794   6.1631899   6.1651649   5.9451389
   5.9259312   6.1651413   6.1740066   6.1647674   6.1660703   5.9394404
   8.5096117   8.5098819   8.5084006   8.5092782   8.5102397   8.5092905
 TTTTTTTTTTTTTTTTTTTTTTTTTTTTTT MOQGAD      TELAPSE      124.94 TCPU     3488.12
 TTTTTTTTTTTTTTTTTTTTTTTTTTTTTT SHELLXN     TELAPSE      141.47 TCPU     4015.66
 TTTTTTTTTTTTTTTTTTTTTTTTTTTTTT MONMO3      TELAPSE      141.69 TCPU     4022.55
 NUMERICALLY INTEGRATED DENSITY    198.0001200088
 TTTTTTTTTTTTTTTTTTTTTTTTTTTTTT NUMDFT      TELAPSE      142.43 TCPU     4046.13
 CYC   6 ETOT(AU) -1.289083976540E+03 DETOT  3.63E-05 tst  7.95E-06 PX  3.15E-03
 TTTTTTTTTTTTTTTTTTTTTTTTTTTTTT DIIS        TELAPSE      142.50 TCPU     4048.45
 DIIS TEST: 0.56028E-03 AT SCF   CYCLE   6 - DIIS ACTIVE - HISTORY:     6 CYCLES
 TTTTTTTTTTTTTTTTTTTTTTTTTTTTTT FDIK        TELAPSE      142.98 TCPU     4063.83
 INSULATING STATE
 TOP OF VALENCE BANDS -    BAND     99; K    1; EIG -1.8934218E-01 AU
 BOTTOM OF VIRTUAL BANDS - BAND    100; K   17; EIG -1.1532566E-01 AU
 INDIRECT ENERGY BAND GAP:   2.0141 eV
 BOTTOM OF VIRTUAL BANDS - BAND    100; K    1; EIG -4.2770054E-02 AU
 TTTTTTTTTTTTTTTTTTTTTTTTTTTTTT PDIG        TELAPSE      143.27 TCPU     4069.98
 CHARGE NORMALIZATION FACTOR   1.00000000
 TOTAL ATOMIC CHARGES:
   4.4661099   4.4498696   4.4484846   4.4484984   4.4488263   4.4648008
   0.8855770   0.8858466   0.8846592   0.8845182   0.8829207   0.8830390
   0.8829608   0.8829430   0.8845437   0.8844528   0.8854999   0.8856289
   5.9340521   6.1646337   6.1638196   6.1686590   6.1686021   5.9344832
   5.9411955   6.1632823   6.1630711   6.1638203   6.1627426   5.9422919
   5.9342432   6.1686620   6.1690289   6.1644440   6.1640664   5.9346038
   8.5093106   8.5095195   8.5088858   8.5091416   8.5091582   8.5091033
 TTTTTTTTTTTTTTTTTTTTTTTTTTTTTT MOQGAD      TELAPSE      143.33 TCPU     4070.04
 TTTTTTTTTTTTTTTTTTTTTTTTTTTTTT SHELLXN     TELAPSE      159.79 TCPU     4595.25
 TTTTTTTTTTTTTTTTTTTTTTTTTTTTTT MONMO3      TELAPSE      160.01 TCPU     4602.18
 NUMERICALLY INTEGRATED DENSITY    198.0001200400
 TTTTTTTTTTTTTTTTTTTTTTTTTTTTTT NUMDFT      TELAPSE      160.74 TCPU     4625.64
 CYC   7 ETOT(AU) -1.289084117738E+03 DETOT -1.41E-04 tst  3.07E-06 PX  1.98E-03
 TTTTTTTTTTTTTTTTTTTTTTTTTTTTTT DIIS        TELAPSE      160.82 TCPU     4628.08
 DIIS TEST: 0.89723E-05 AT SCF   CYCLE   7 - DIIS ACTIVE - HISTORY:     7 CYCLES
 TTTTTTTTTTTTTTTTTTTTTTTTTTTTTT FDIK        TELAPSE      161.30 TCPU     4643.41
 INSULATING STATE
 TOP OF VALENCE BANDS -    BAND     99; K    1; EIG -1.8948525E-01 AU
 BOTTOM OF VIRTUAL BANDS - BAND    100; K   17; EIG -1.1542848E-01 AU
 INDIRECT ENERGY BAND GAP:   2.0152 eV
 BOTTOM OF VIRTUAL BANDS - BAND    100; K    1; EIG -4.2869695E-02 AU
 TTTTTTTTTTTTTTTTTTTTTTTTTTTTTT PDIG        TELAPSE      161.58 TCPU     4649.55
 CHARGE NORMALIZATION FACTOR   1.00000000
 TOTAL ATOMIC CHARGES:
   4.4661459   4.4500301   4.4486912   4.4489099   4.4491789   4.4651293
   0.8853510   0.8855317   0.8844036   0.8842627   0.8826765   0.8828349
   0.8827637   0.8826913   0.8842549   0.8842307   0.8852442   0.8853448
   5.9332795   6.1648139   6.1650891   6.1687087   6.1685713   5.9350095
   5.9402824   6.1634174   6.1635011   6.1637027   6.1634375   5.9428196
   5.9338532   6.1688879   6.1688186   6.1647840   6.1651764   5.9347510
   8.5092729   8.5094561   8.5080680   8.5092813   8.5081041   8.5092383
 TTTTTTTTTTTTTTTTTTTTTTTTTTTTTT MOQGAD      TELAPSE      161.64 TCPU     4649.61
 TTTTTTTTTTTTTTTTTTTTTTTTTTTTTT SHELLXN     TELAPSE      178.09 TCPU     5174.56
 TTTTTTTTTTTTTTTTTTTTTTTTTTTTTT MONMO3      TELAPSE      178.31 TCPU     5181.42
 NUMERICALLY INTEGRATED DENSITY    198.0001200458
 TTTTTTTTTTTTTTTTTTTTTTTTTTTTTT NUMDFT      TELAPSE      179.04 TCPU     5204.91
 CYC   8 ETOT(AU) -1.289084119827E+03 DETOT -2.09E-06 tst  3.41E-08 PX  3.36E-04
 TTTTTTTTTTTTTTTTTTTTTTTTTTTTTT DIIS        TELAPSE      179.13 TCPU     5207.57
 DIIS TEST: 0.14149E-05 AT SCF   CYCLE   8 - DIIS ACTIVE - HISTORY:     8 CYCLES
 TTTTTTTTTTTTTTTTTTTTTTTTTTTTTT FDIK        TELAPSE      179.62 TCPU     5223.15
 INSULATING STATE
 TOP OF VALENCE BANDS -    BAND     99; K    1; EIG -1.8947811E-01 AU
 BOTTOM OF VIRTUAL BANDS - BAND    100; K   17; EIG -1.1543536E-01 AU
 INDIRECT ENERGY BAND GAP:   2.0148 eV
 BOTTOM OF VIRTUAL BANDS - BAND    100; K    1; EIG -4.2878629E-02 AU
 TTTTTTTTTTTTTTTTTTTTTTTTTTTTTT PDIG        TELAPSE      179.90 TCPU     5229.30
 CHARGE NORMALIZATION FACTOR   1.00000000
 TOTAL ATOMIC CHARGES:
   4.4662561   4.4500681   4.4486898   4.4488897   4.4491995   4.4651194
   0.8853078   0.8855508   0.8844031   0.8842452   0.8826761   0.8828099
   0.8827367   0.8826931   0.8842770   0.8841909   0.8852175   0.8853474
   5.9333055   6.1651134   6.1646536   6.1685639   6.1689346   5.9347554
   5.9404971   6.1635417   6.1634652   6.1639568   6.1632665   5.9423445
   5.9336389   6.1686239   6.1693024   6.1649826   6.1648393   5.9347384
   8.5092970   8.5094998   8.5082081   8.5091590   8.5085055   8.5091289
 TTTTTTTTTTTTTTTTTTTTTTTTTTTTTT MOQGAD      TELAPSE      179.99 TCPU     5229.36
 TTTTTTTTTTTTTTTTTTTTTTTTTTTTTT SHELLXN     TELAPSE      196.52 TCPU     5756.84
 TTTTTTTTTTTTTTTTTTTTTTTTTTTTTT MONMO3      TELAPSE      196.73 TCPU     5763.67
 NUMERICALLY INTEGRATED DENSITY    198.0001200455
 TTTTTTTTTTTTTTTTTTTTTTTTTTTTTT NUMDFT      TELAPSE      197.46 TCPU     5787.10
 CYC   9 ETOT(AU) -1.289084119970E+03 DETOT -1.44E-07 tst  5.99E-09 PX  1.32E-04
 TTTTTTTTTTTTTTTTTTTTTTTTTTTTTT DIIS        TELAPSE      197.55 TCPU     5789.93
 DIIS TEST: 0.24539E-06 AT SCF   CYCLE   9 - DIIS ACTIVE - HISTORY:     9 CYCLES
 TTTTTTTTTTTTTTTTTTTTTTTTTTTTTT FDIK        TELAPSE      198.03 TCPU     5805.28
 INSULATING STATE
 TOP OF VALENCE BANDS -    BAND     99; K    1; EIG -1.8947208E-01 AU
 BOTTOM OF VIRTUAL BANDS - BAND    100; K   17; EIG -1.1543391E-01 AU
 INDIRECT ENERGY BAND GAP:   2.0147 eV
 BOTTOM OF VIRTUAL BANDS - BAND    100; K    1; EIG -4.2876792E-02 AU
 TTTTTTTTTTTTTTTTTTTTTTTTTTTTTT PDIG        TELAPSE      198.32 TCPU     5811.42
 CHARGE NORMALIZATION FACTOR   1.00000000
 TOTAL ATOMIC CHARGES:
   4.4662114   4.4500396   4.4486722   4.4488703   4.4491708   4.4651277
   0.8853288   0.8855518   0.8844074   0.8842622   0.8826822   0.8828165
   0.8827460   0.8826964   0.8842759   0.8842134   0.8852364   0.8853505
   5.9332928   6.1649276   6.1647518   6.1687035   6.1688036   5.9347666
   5.9403579   6.1634631   6.1635128   6.1638728   6.1633190   5.9425126
   5.9336809   6.1687916   6.1691428   6.1648184   6.1649163   5.9346943
   8.5092816   8.5094764   8.5083473   8.5092097   8.5085261   8.5091706
 TTTTTTTTTTTTTTTTTTTTTTTTTTTTTT MOQGAD      TELAPSE      198.38 TCPU     5811.49
 TTTTTTTTTTTTTTTTTTTTTTTTTTTTTT SHELLXN     TELAPSE      214.87 TCPU     6337.59
 +++ ENERGIES IN A.U. +++
 ::: EXT EL-POLE                                  -1.6985247047860E+03
 ::: EXT EL-SPHEROPOLE                             1.8992239331563E+01
 ::: BIELET ZONE E-E                               2.6842704395499E+03
 ::: TOTAL E-E                                     1.0047379740955E+03
 ::: TOTAL E-N + N-E                              -3.8289454827729E+03
 ::: TOTAL N-N                                     3.8871148416534E+02
 ::: KINETIC ENERGY                                1.2802163416262E+03
 ::: PSEUDO TOTAL   ENERGY                        -1.1552796828858E+03
 ::: VIRIAL COEFFICIENT                            1.0512982396534E+00
 TTTTTTTTTTTTTTTTTTTTTTTTTTTTTT MONMO3      TELAPSE      215.08 TCPU     6344.42
 NUMERICALLY INTEGRATED DENSITY    198.0001200457
 EXCHANGE ENERGY: -0.126056094141E+03  CORRELATION ENERGY: -0.774834296121E+01
 TTTTTTTTTTTTTTTTTTTTTTTTTTTTTT NUMDFT      TELAPSE      215.82 TCPU     6368.03
 CYC  10 ETOT(AU) -1.289084119988E+03 DETOT -1.78E-08 tst  1.07E-09 PX  1.32E-04

 == SCF ENDED - CONVERGENCE ON ENERGY      E(AU) -1.2890841199879E+03 CYCLES  10


 ENERGY EXPRESSION=HARTREE+FOCK EXCH*0.00000+(HSESOL     EXCH)*1.00000+PBESOL     CORR


 TOTAL ENERGY(DFT)(AU)( 10) -1.2890841199879E+03 DE-1.8E-08 tester 1.1E-09
 TTTTTTTTTTTTTTTTTTTTTTTTTTTTTT EDFT        TELAPSE      215.82 TCPU     6368.04
 
 INFORMATION **** DFTD3 ENERGY **** CALCULATE DFTD3 ENERGY

           DFT-D V3(BJ)
 DF                                         hsesol3c  
 parameters
 s6       :    1.0000
 s8       :    0.0000
 a1       :    0.5196
 a2       :    4.9385
 k1 k3    :   16.0000   -4.0000
 Cutoff   :   50.2022
 CN-Cutoff:   21.1671
 ABC-Cutoff:   21.1671
 
 Edisp /kcal,au:   -35.8370 -0.05710984

 E6    /kcal :   -38.5633
 E8    /kcal :     0.0000
 E6(ABC) "   :   2.726350
 
 INFORMATION **** DFTD3 ENERGY **** NORMAL TERMINATION OF DFTD3 MODULE

 GCP ENERGY CALCULATION
  level        hsesol3c            basis:hsesol3c
  Nbf            474
  Atoms           42

  Parameters: 
  sigma     1.0000
  eta       1.4281
  alpha     0.2936
  beta      1.9467

  dmp_scal      4.0000
  dmp_exp       6.0000
 cutoffs: 
   distance [bohr] 60.0
   noise    [a.u.] 2.2E-16
 SR-damping   T
 ** gCP correction **
  Egcp:        0.0884821229 / (a.u.) ||      55.5234 / (kcal/mol)
 INFORMATION **** GCP **** NORMAL TERMINATION OF GCP MODULE

 *******************************************************************************

 DFT-D3-GCP DISPERSION AND COUNTERPOISE CORRECTION

 D3 DISPERSION ENERGY (AU)      -5.7109836227013E-02
 GCP ENERGY (AU)                 8.8482122926395E-02
 TOTAL ENERGY + DISP + GCP (AU) -1.2890527477012E+03

 *******************************************************************************

 EIGENVECTORS IN FORTRAN UNIT  8
 TTTTTTTTTTTTTTTTTTTTTTTTTTTTTT END         TELAPSE      217.58 TCPU     6375.68
 EEEEEEEEEE TERMINATION  DATE 19 02 2026 TIME 17:37:12.9
