 Default number of threads is:           32

         
 *******************************************************************************
 *                                                                             *
 *                               CRYSTAL23                                     *
 *                      public : 1.0.1 - October 2022                          *
 *                       HTTP://WWW.CRYSTAL.UNITO.IT                           *
 *                                                                             *
 *                              MAIN AUTHORS                                   *
 *                                                                             *
 *  R. DOVESI(1,11), V.R. SAUNDERS(2), C. ROETTI(1,11), R. ORLANDO(1,11),      *
 *  C.M. ZICOVICH-WILSON(1,3), F. PASCALE(4), B. CIVALLERI(1,11),              *
 *  K. DOLL(5), N.M. HARRISON(6), I.J. BUSH(7), Ph. D'ARCO(8),                 *
 *  M. LLUNELL(9), M. CAUSA'(10), Y. NOEL(8), L. MASCHIO(1,11), A. ERBA(1,11)  *
 *  M. RE'RAT(14), S. CASASSA(1,11), B.G. SEARLE(2), J.K. DESMARAIS(1)         *
 *                                                                             *
 *        CONTRIBUTIONS TO THE CODE HAVE ALSO BEEN GIVEN BY                    *
 *                                                                             *
 *  M. FERRABONE(1,11), M. DE LA PIERRE(1,11), M. FERRERO(1,11),               *
 *  J. BAIMA(1,11), E. ALBANESE(1,11), M.F. PEINTINGER(12), R. BAST(13),       *
 *  B. KIRTMAN(15), V. LACIVITA(1,11), R. DEMICHELIS(1,16)                     *
 *  G. BRANDEBURG(17), S. SALUSTRO(1,11), G. SANSONE(1,11)                     *
 *  M.T. RUGGIERO(18), L.E. DAGA(1), L. DONA'(1), A. COSSARD(1)                *
 *                                                                             *
 * (1) THEORETICAL CHEMISTRY GROUP - UNIVERSITA' DI TORINO - TORINO (ITALY)    *
 * (2) SCIENTIFIC COMPUTING DEPARTMENT - STFC DARESBURY (UK)                   *
 * (3) UNIVERSIDAD AUTONOMA DEL ESTADO DE MORELOS - CUERNAVACA (MEXICO)        *
 * (4) UNIVERSITE' DE LORRAINE - NANCY (FRANCE)                                *
 * (5) UNIVERSITAET STUTTGART- STUTTGART (GERMANY)                             *
 * (6) IMPERIAL COLLEGE - LONDON (UK)                                          *
 * (7) SCIENTIFIC COMPUTING DEPARTMENT - STFC RAL (UK)                         *
 * (8) UPMC - SORBONNE UNIVERSITES - PARIS (FRANCE)                            *
 * (9) UNIVERSIDAD DE BARCELONA - BARCELONA (SPAIN)                            *
 *(10) UNIVERSITA' DI NAPOLI "FEDERICO II" - NAPOLI (ITALY)                    *
 *(11) NIS - NANOSTRUCTURED INTERFACES AND SURFACES - TORINO (ITALY)           *
 *(12) MPI FUER CHEMISCHE ENERGIEKONVERSION - MUELHEIM AN DER RUHR (GERMANY)   *
 *(13) UNIVERSITY OF TROMSO - TROMSO (NORWAY)                                  *
 *(14) UNIVERSITE' DE PAU ET DES PAYS DE L'ADOUR - PAU (FRANCE)                *
 *(15) UNIVERSITY OF CALIFORNIA SANTA BARBARA - SANTA BARBARA (USA)            *
 *(16) CURTIN UNIVERSITY - PERTH (AUSTRALIA)                                   *
 *(17) UNIVERSITY COLLEGE LONDON - LONDON (UK)                                 *
 *(18) UNIVERSITY OF VERMONT - BURLINGTON (USA)                                *
 *                                                                             *
 *******************************************************************************
 EEEEEEEEEE STARTING  DATE 19 02 2026 TIME 20:10:14.9
 cof-1_z35_L060_serr                                                             

 CRYSTAL CALCULATION
 (INPUT ACCORDING TO THE INTERNATIONAL TABLES FOR X-RAY CRYSTALLOGRAPHY)
 CRYSTAL FAMILY                       :  TRICLINIC   
 CRYSTAL CLASS  (GROTH - 1921)        :  TRICLINIC PEDIAL                     

 SPACE GROUP (NONCENTROSYMMETRIC)     :  P 1             

 LATTICE PARAMETERS  (ANGSTROMS AND DEGREES) - CONVENTIONAL CELL
        A           B           C        ALPHA        BETA       GAMMA
    15.02361    15.02392     7.00000    90.00032    89.99994   119.99596


 NUMBER OF IRREDUCIBLE ATOMS IN THE CONVENTIONAL CELL:   84

 INPUT COORDINATES

 ATOM AT. N.              COORDINATES
   1   5     6.136805400000E-01  2.273182200000E-01  2.506823900000E-01
   2   5     8.442202100000E-01  6.884444200000E-01  7.506823900000E-01
   3   5     7.727362000000E-01  3.863778800000E-01  2.506824000000E-01
   4   5     3.275870000000E-03  8.475040800000E-01  7.506824000000E-01
   5   5     6.136762700000E-01  3.863606700000E-01  2.492476500000E-01
   6   5     8.442159400000E-01  8.474868700000E-01  7.492476600000E-01
   7   5     2.272552500000E-01  6.136332200000E-01  2.506824000000E-01
   8   5     4.577949200000E-01  7.475942000000E-02  7.506824000000E-01
   9   5     3.863632200000E-01  6.136124500000E-01  2.506823900000E-01
  10   5     6.169028900000E-01  7.473865000000E-02  7.506823900000E-01
  11   5     3.863435000000E-01  7.727516500000E-01  2.492476600000E-01
  12   5     6.168831700000E-01  2.338778500000E-01  7.492476600000E-01
  13   1     9.030436200000E-01  3.089300500000E-01  2.477078900000E-01
  14   1     1.335832900000E-01  7.700562500000E-01  7.477078900000E-01
  15   1     9.663453000000E-02  6.910534400000E-01  2.472530400000E-01
  16   1     3.271742000000E-01  1.521796400000E-01  7.472530300000E-01
  17   1     9.029714200000E-01  5.940724300000E-01  2.471830300000E-01
  18   1     1.335110900000E-01  5.519863000000E-02  7.471830300000E-01
  19   1     9.673618000000E-02  4.056849400000E-01  2.472004900000E-01
  20   1     3.272758500000E-01  8.668111400000E-01  7.472004900000E-01
  21   1     6.910324000000E-01  9.700412000000E-02  2.522921300000E-01
  22   1     9.215720700000E-01  5.581303200000E-01  7.522921300000E-01
  23   1     3.089297200000E-01  9.034373100000E-01  2.527470200000E-01
  24   1     5.394693900000E-01  3.645635100000E-01  7.527470100000E-01
  25   1     4.058699900000E-01  9.704998000000E-02  2.528170600000E-01
  26   1     6.364096600000E-01  5.581761800000E-01  7.528170600000E-01
  27   1     5.943122100000E-01  9.033473200000E-01  2.527994800000E-01
  28   1     8.248518800000E-01  3.644735200000E-01  7.527994800000E-01
  29   1     6.910727400000E-01  5.940542100000E-01  2.477079200000E-01
  30   1     9.216124100000E-01  5.518041000000E-02  7.477079100000E-01
  31   1     3.089618300000E-01  4.056093300000E-01  2.472530100000E-01
  32   1     5.395015000000E-01  8.667355300000E-01  7.472530100000E-01
  33   1     4.058405700000E-01  3.088232500000E-01  2.471829700000E-01
  34   1     6.363802400000E-01  7.699494500000E-01  7.471829700000E-01
  35   1     5.942908800000E-01  6.909579300000E-01  2.472005500000E-01
  36   1     8.248305500000E-01  1.520841300000E-01  7.472005500000E-01
  37   6     8.918903100000E-01  4.459436900000E-01  2.491951600000E-01
  38   6     1.224299800000E-01  9.070698900000E-01  7.491951600000E-01
  39   6     9.464891100000E-01  3.927856300000E-01  2.477778800000E-01
  40   6     1.770287800000E-01  8.539118300000E-01  7.477778800000E-01
  41   6     5.338812000000E-02  6.071853000000E-01  2.476554500000E-01
  42   6     2.839277900000E-01  6.831150000000E-02  7.476554500000E-01
  43   6     9.464521100000E-01  5.536921900000E-01  2.480228800000E-01
  44   6     1.769917800000E-01  1.481839000000E-02  7.480228800000E-01
  45   6     5.342634000000E-02  4.462499700000E-01  2.470780200000E-01
  46   6     2.839660100000E-01  9.073761700000E-01  7.470780200000E-01
  47   6     1.080358900000E-01  5.540356300000E-01  2.480403700000E-01
  48   6     3.385755600000E-01  1.516183000000E-02  7.480403600000E-01
  49   6     5.540394200000E-01  1.081684600000E-01  2.508048800000E-01
  50   6     7.845790900000E-01  5.692946600000E-01  7.508048800000E-01
  51   6     6.071778500000E-01  5.355594000000E-02  2.522221300000E-01
  52   6     8.377175200000E-01  5.146821400000E-01  7.522221300000E-01
  53   6     3.927986700000E-01  9.466631600000E-01  2.523446000000E-01
  54   6     6.233383400000E-01  4.077893600000E-01  7.523446000000E-01
  55   6     4.462875800000E-01  5.360286000000E-02  2.519771800000E-01
  56   6     6.768272500000E-01  5.147290600000E-01  7.519771800000E-01
  57   6     5.537168500000E-01  9.466235600000E-01  2.529219900000E-01
  58   6     7.842565200000E-01  4.077497600000E-01  7.529219800000E-01
  59   6     4.459279100000E-01  8.919920600000E-01  2.519596600000E-01
  60   6     6.764675800000E-01  3.531182600000E-01  7.519596600000E-01
  61   6     5.540448700000E-01  4.458745500000E-01  2.491951600000E-01
  62   6     7.845845400000E-01  9.070007500000E-01  7.491951600000E-01
  63   6     6.072102200000E-01  5.536257800000E-01  2.477779100000E-01
  64   6     8.377498900000E-01  1.475198000000E-02  7.477779200000E-01
  65   6     3.928233700000E-01  4.461720300000E-01  2.476554200000E-01
  66   6     6.233630400000E-01  9.072982300000E-01  7.476554200000E-01
  67   6     4.462872600000E-01  3.926899900000E-01  2.480228400000E-01
  68   6     6.768269300000E-01  8.538161900000E-01  7.480228400000E-01
  69   6     5.537429600000E-01  6.070980000000E-01  2.470780500000E-01
  70   6     7.842826300000E-01  6.822420000000E-02  7.470780500000E-01
  71   6     4.459599800000E-01  5.539582300000E-01  2.480403700000E-01
  72   6     6.764996500000E-01  1.508443000000E-02  7.480403600000E-01
  73   8     5.607366800000E-01  2.803706300000E-01  2.496325800000E-01
  74   8     7.912763500000E-01  7.414968300000E-01  7.496325800000E-01
  75   8     7.196817000000E-01  2.803783300000E-01  2.526595300000E-01
  76   8     9.502213700000E-01  7.415045300000E-01  7.526595400000E-01
  77   8     7.196794200000E-01  4.393234600000E-01  2.480928700000E-01
  78   8     9.502190900000E-01  9.004496600000E-01  7.480928700000E-01
  79   8     2.803245100000E-01  7.196511100000E-01  2.496325900000E-01
  80   8     5.108641800000E-01  1.807773100000E-01  7.496325900000E-01
  81   8     2.803439700000E-01  5.606956100000E-01  2.526595300000E-01
  82   8     5.108836400000E-01  2.182181000000E-02  7.526595300000E-01
  83   8     4.392638400000E-01  7.196354200000E-01  2.480928600000E-01
  84   8     6.698035100000E-01  1.807616200000E-01  7.480928600000E-01

 *******************************************************************************

 << INFORMATION >>: FROM NOW ON, ALL COORDINATES REFER TO THE PRIMITIVE CELL

 *******************************************************************************

 LATTICE PARAMETERS  (ANGSTROMS AND DEGREES) - PRIMITIVE CELL
       A          B          C        ALPHA      BETA     GAMMA        VOLUME
   15.02361   15.02392    7.00000    90.00032  89.99994 119.99596   1368.370836

 COORDINATES OF THE EQUIVALENT ATOMS (FRACTIONAL UNITS)

 N. ATOM EQUIV AT. N.          X                  Y                  Z

   1   1   1    5 B    -3.86319460000E-01  2.27318220000E-01  2.50682390000E-01

   2   2   1    5 B    -1.55779790000E-01 -3.11555580000E-01 -2.49317610000E-01

   3   3   1    5 B    -2.27263800000E-01  3.86377880000E-01  2.50682400000E-01

   4   4   1    5 B     3.27587000000E-03 -1.52495920000E-01 -2.49317600000E-01

   5   5   1    5 B    -3.86323730000E-01  3.86360670000E-01  2.49247650000E-01

   6   6   1    5 B    -1.55784060000E-01 -1.52513130000E-01 -2.50752340000E-01

   7   7   1    5 B     2.27255250000E-01 -3.86366780000E-01  2.50682400000E-01

   8   8   1    5 B     4.57794920000E-01  7.47594200000E-02 -2.49317600000E-01

   9   9   1    5 B     3.86363220000E-01 -3.86387550000E-01  2.50682390000E-01

  10  10   1    5 B    -3.83097110000E-01  7.47386500000E-02 -2.49317610000E-01

  11  11   1    5 B     3.86343500000E-01 -2.27248350000E-01  2.49247660000E-01

  12  12   1    5 B    -3.83116830000E-01  2.33877850000E-01 -2.50752340000E-01

  13  13   1    1 H    -9.69563800000E-02  3.08930050000E-01  2.47707890000E-01

  14  14   1    1 H     1.33583290000E-01 -2.29943750000E-01 -2.52292110000E-01

  15  15   1    1 H     9.66345300000E-02 -3.08946560000E-01  2.47253040000E-01

  16  16   1    1 H     3.27174200000E-01  1.52179640000E-01 -2.52746970000E-01

  17  17   1    1 H    -9.70285800000E-02 -4.05927570000E-01  2.47183030000E-01

  18  18   1    1 H     1.33511090000E-01  5.51986300000E-02 -2.52816970000E-01

  19  19   1    1 H     9.67361800000E-02  4.05684940000E-01  2.47200490000E-01

  20  20   1    1 H     3.27275850000E-01 -1.33188860000E-01 -2.52799510000E-01

  21  21   1    1 H    -3.08967600000E-01  9.70041200000E-02  2.52292130000E-01

  22  22   1    1 H    -7.84279300000E-02 -4.41869680000E-01 -2.47707870000E-01

  23  23   1    1 H     3.08929720000E-01 -9.65626900000E-02  2.52747020000E-01

  24  24   1    1 H    -4.60530610000E-01  3.64563510000E-01 -2.47252990000E-01

  25  25   1    1 H     4.05869990000E-01  9.70499800000E-02  2.52817060000E-01

  26  26   1    1 H    -3.63590340000E-01 -4.41823820000E-01 -2.47182940000E-01

  27  27   1    1 H    -4.05687790000E-01 -9.66526800000E-02  2.52799480000E-01

  28  28   1    1 H    -1.75148120000E-01  3.64473520000E-01 -2.47200520000E-01

  29  29   1    1 H    -3.08927260000E-01 -4.05945790000E-01  2.47707920000E-01

  30  30   1    1 H    -7.83875900000E-02  5.51804100000E-02 -2.52292090000E-01

  31  31   1    1 H     3.08961830000E-01  4.05609330000E-01  2.47253010000E-01

  32  32   1    1 H    -4.60498500000E-01 -1.33264470000E-01 -2.52746990000E-01

  33  33   1    1 H     4.05840570000E-01  3.08823250000E-01  2.47182970000E-01

  34  34   1    1 H    -3.63619760000E-01 -2.30050550000E-01 -2.52817030000E-01

  35  35   1    1 H    -4.05709120000E-01 -3.09042070000E-01  2.47200550000E-01

  36  36   1    1 H    -1.75169450000E-01  1.52084130000E-01 -2.52799450000E-01

  37  37   1    6 C    -1.08109690000E-01  4.45943690000E-01  2.49195160000E-01

  38  38   1    6 C     1.22429980000E-01 -9.29301100000E-02 -2.50804840000E-01

  39  39   1    6 C    -5.35108900000E-02  3.92785630000E-01  2.47777880000E-01

  40  40   1    6 C     1.77028780000E-01 -1.46088170000E-01 -2.52222120000E-01

  41  41   1    6 C     5.33881200000E-02 -3.92814700000E-01  2.47655450000E-01

  42  42   1    6 C     2.83927790000E-01  6.83115000000E-02 -2.52344550000E-01

  43  43   1    6 C    -5.35478900000E-02 -4.46307810000E-01  2.48022880000E-01

  44  44   1    6 C     1.76991780000E-01  1.48183900000E-02 -2.51977120000E-01

  45  45   1    6 C     5.34263400000E-02  4.46249970000E-01  2.47078020000E-01

  46  46   1    6 C     2.83966010000E-01 -9.26238300000E-02 -2.52921980000E-01

  47  47   1    6 C     1.08035890000E-01 -4.45964370000E-01  2.48040370000E-01

  48  48   1    6 C     3.38575560000E-01  1.51618300000E-02 -2.51959640000E-01

  49  49   1    6 C    -4.45960580000E-01  1.08168460000E-01  2.50804880000E-01

  50  50   1    6 C    -2.15420910000E-01 -4.30705340000E-01 -2.49195120000E-01

  51  51   1    6 C    -3.92822150000E-01  5.35559400000E-02  2.52222130000E-01

  52  52   1    6 C    -1.62282480000E-01 -4.85317860000E-01 -2.47777870000E-01

  53  53   1    6 C     3.92798670000E-01 -5.33368400000E-02  2.52344600000E-01

  54  54   1    6 C    -3.76661660000E-01  4.07789360000E-01 -2.47655400000E-01

  55  55   1    6 C     4.46287580000E-01  5.36028600000E-02  2.51977180000E-01

  56  56   1    6 C    -3.23172750000E-01 -4.85270940000E-01 -2.48022820000E-01

  57  57   1    6 C    -4.46283150000E-01 -5.33764400000E-02  2.52921990000E-01

  58  58   1    6 C    -2.15743480000E-01  4.07749760000E-01 -2.47078020000E-01

  59  59   1    6 C     4.45927910000E-01 -1.08007940000E-01  2.51959660000E-01

  60  60   1    6 C    -3.23532420000E-01  3.53118260000E-01 -2.48040340000E-01

  61  61   1    6 C    -4.45955130000E-01  4.45874550000E-01  2.49195160000E-01

  62  62   1    6 C    -2.15415460000E-01 -9.29992500000E-02 -2.50804840000E-01

  63  63   1    6 C    -3.92789780000E-01 -4.46374220000E-01  2.47777910000E-01

  64  64   1    6 C    -1.62250110000E-01  1.47519800000E-02 -2.52222080000E-01

  65  65   1    6 C     3.92823370000E-01  4.46172030000E-01  2.47655420000E-01

  66  66   1    6 C    -3.76636960000E-01 -9.27017700000E-02 -2.52344580000E-01

  67  67   1    6 C     4.46287260000E-01  3.92689990000E-01  2.48022840000E-01

  68  68   1    6 C    -3.23173070000E-01 -1.46183810000E-01 -2.51977160000E-01

  69  69   1    6 C    -4.46257040000E-01 -3.92902000000E-01  2.47078050000E-01

  70  70   1    6 C    -2.15717370000E-01  6.82242000000E-02 -2.52921950000E-01

  71  71   1    6 C     4.45959980000E-01 -4.46041770000E-01  2.48040370000E-01

  72  72   1    6 C    -3.23500350000E-01  1.50844300000E-02 -2.51959640000E-01

  73  73   1    8 O    -4.39263320000E-01  2.80370630000E-01  2.49632580000E-01

  74  74   1    8 O    -2.08723650000E-01 -2.58503170000E-01 -2.50367420000E-01

  75  75   1    8 O    -2.80318300000E-01  2.80378330000E-01  2.52659530000E-01

  76  76   1    8 O    -4.97786300000E-02 -2.58495470000E-01 -2.47340460000E-01

  77  77   1    8 O    -2.80320580000E-01  4.39323460000E-01  2.48092870000E-01

  78  78   1    8 O    -4.97809100000E-02 -9.95503400000E-02 -2.51907130000E-01

  79  79   1    8 O     2.80324510000E-01 -2.80348890000E-01  2.49632590000E-01

  80  80   1    8 O    -4.89135820000E-01  1.80777310000E-01 -2.50367410000E-01

  81  81   1    8 O     2.80343970000E-01 -4.39304390000E-01  2.52659530000E-01

  82  82   1    8 O    -4.89116360000E-01  2.18218100000E-02 -2.47340470000E-01

  83  83   1    8 O     4.39263840000E-01 -2.80364580000E-01  2.48092860000E-01

  84  84   1    8 O    -3.30196490000E-01  1.80761620000E-01 -2.51907140000E-01

 NUMBER OF SYMMETRY OPERATORS         :    1
 *******************************************************************************
 * GEOMETRY EDITING - INPUT COORDINATES ARE GIVEN IN ANGSTROM         
 *******************************************************************************

 GCALCO - MAX INDICES DIRECT LATTICE VECTOR    11    11    22
 NO.OF VECTORS CREATED 6999 STARS 3500 RMAX   248.91122 BOHR

 GEOMETRY FOR WAVE FUNCTION - DIMENSIONALITY OF THE SYSTEM    3
 (NON PERIODIC DIRECTION: LATTICE PARAMETER FORMALLY SET TO 500)
 *******************************************************************************
 LATTICE PARAMETERS (ANGSTROMS AND DEGREES) - BOHR = 0.5291772083 ANGSTROM
 PRIMITIVE CELL - CENTRING CODE 1/0 VOLUME=  1368.370836 - DENSITY  0.947 g/cm^3
         A              B              C           ALPHA      BETA       GAMMA 
    15.02361100    15.02391600     7.00000000    90.000323  89.999944 119.995964
 *******************************************************************************
 ATOMS IN THE ASYMMETRIC UNIT   84 - ATOMS IN THE UNIT CELL:   84
     ATOM                 X/A                 Y/B                 Z/C    
 *******************************************************************************
      1 T   5 B    -3.863194600000E-01  2.273182200000E-01  2.506823900000E-01
      2 T   5 B    -1.557797900000E-01 -3.115555800000E-01 -2.493176100000E-01
      3 T   5 B    -2.272638000000E-01  3.863778800000E-01  2.506824000000E-01
      4 T   5 B     3.275870000000E-03 -1.524959200000E-01 -2.493176000000E-01
      5 T   5 B    -3.863237300000E-01  3.863606700000E-01  2.492476500000E-01
      6 T   5 B    -1.557840600000E-01 -1.525131300000E-01 -2.507523400000E-01
      7 T   5 B     2.272552500000E-01 -3.863667800000E-01  2.506824000000E-01
      8 T   5 B     4.577949200000E-01  7.475942000000E-02 -2.493176000000E-01
      9 T   5 B     3.863632200000E-01 -3.863875500000E-01  2.506823900000E-01
     10 T   5 B    -3.830971100000E-01  7.473865000000E-02 -2.493176100000E-01
     11 T   5 B     3.863435000000E-01 -2.272483500000E-01  2.492476600000E-01
     12 T   5 B    -3.831168300000E-01  2.338778500000E-01 -2.507523400000E-01
     13 T   1 H    -9.695638000000E-02  3.089300500000E-01  2.477078900000E-01
     14 T   1 H     1.335832900000E-01 -2.299437500000E-01 -2.522921100000E-01
     15 T   1 H     9.663453000000E-02 -3.089465600000E-01  2.472530400000E-01
     16 T   1 H     3.271742000000E-01  1.521796400000E-01 -2.527469700000E-01
     17 T   1 H    -9.702858000000E-02 -4.059275700000E-01  2.471830300000E-01
     18 T   1 H     1.335110900000E-01  5.519863000000E-02 -2.528169700000E-01
     19 T   1 H     9.673618000000E-02  4.056849400000E-01  2.472004900000E-01
     20 T   1 H     3.272758500000E-01 -1.331888600000E-01 -2.527995100000E-01
     21 T   1 H    -3.089676000000E-01  9.700412000000E-02  2.522921300000E-01
     22 T   1 H    -7.842793000000E-02 -4.418696800000E-01 -2.477078700000E-01
     23 T   1 H     3.089297200000E-01 -9.656269000000E-02  2.527470200000E-01
     24 T   1 H    -4.605306100000E-01  3.645635100000E-01 -2.472529900000E-01
     25 T   1 H     4.058699900000E-01  9.704998000000E-02  2.528170600000E-01
     26 T   1 H    -3.635903400000E-01 -4.418238200000E-01 -2.471829400000E-01
     27 T   1 H    -4.056877900000E-01 -9.665268000000E-02  2.527994800000E-01
     28 T   1 H    -1.751481200000E-01  3.644735200000E-01 -2.472005200000E-01
     29 T   1 H    -3.089272600000E-01 -4.059457900000E-01  2.477079200000E-01
     30 T   1 H    -7.838759000000E-02  5.518041000000E-02 -2.522920900000E-01
     31 T   1 H     3.089618300000E-01  4.056093300000E-01  2.472530100000E-01
     32 T   1 H    -4.604985000000E-01 -1.332644700000E-01 -2.527469900000E-01
     33 T   1 H     4.058405700000E-01  3.088232500000E-01  2.471829700000E-01
     34 T   1 H    -3.636197600000E-01 -2.300505500000E-01 -2.528170300000E-01
     35 T   1 H    -4.057091200000E-01 -3.090420700000E-01  2.472005500000E-01
     36 T   1 H    -1.751694500000E-01  1.520841300000E-01 -2.527994500000E-01
     37 T   6 C    -1.081096900000E-01  4.459436900000E-01  2.491951600000E-01
     38 T   6 C     1.224299800000E-01 -9.293011000000E-02 -2.508048400000E-01
     39 T   6 C    -5.351089000000E-02  3.927856300000E-01  2.477778800000E-01
     40 T   6 C     1.770287800000E-01 -1.460881700000E-01 -2.522221200000E-01
     41 T   6 C     5.338812000000E-02 -3.928147000000E-01  2.476554500000E-01
     42 T   6 C     2.839277900000E-01  6.831150000000E-02 -2.523445500000E-01
     43 T   6 C    -5.354789000000E-02 -4.463078100000E-01  2.480228800000E-01
     44 T   6 C     1.769917800000E-01  1.481839000000E-02 -2.519771200000E-01
     45 T   6 C     5.342634000000E-02  4.462499700000E-01  2.470780200000E-01
     46 T   6 C     2.839660100000E-01 -9.262383000000E-02 -2.529219800000E-01
     47 T   6 C     1.080358900000E-01 -4.459643700000E-01  2.480403700000E-01
     48 T   6 C     3.385755600000E-01  1.516183000000E-02 -2.519596400000E-01
     49 T   6 C    -4.459605800000E-01  1.081684600000E-01  2.508048800000E-01
     50 T   6 C    -2.154209100000E-01 -4.307053400000E-01 -2.491951200000E-01
     51 T   6 C    -3.928221500000E-01  5.355594000000E-02  2.522221300000E-01
     52 T   6 C    -1.622824800000E-01 -4.853178600000E-01 -2.477778700000E-01
     53 T   6 C     3.927986700000E-01 -5.333684000000E-02  2.523446000000E-01
     54 T   6 C    -3.766616600000E-01  4.077893600000E-01 -2.476554000000E-01
     55 T   6 C     4.462875800000E-01  5.360286000000E-02  2.519771800000E-01
     56 T   6 C    -3.231727500000E-01 -4.852709400000E-01 -2.480228200000E-01
     57 T   6 C    -4.462831500000E-01 -5.337644000000E-02  2.529219900000E-01
     58 T   6 C    -2.157434800000E-01  4.077497600000E-01 -2.470780200000E-01
     59 T   6 C     4.459279100000E-01 -1.080079400000E-01  2.519596600000E-01
     60 T   6 C    -3.235324200000E-01  3.531182600000E-01 -2.480403400000E-01
     61 T   6 C    -4.459551300000E-01  4.458745500000E-01  2.491951600000E-01
     62 T   6 C    -2.154154600000E-01 -9.299925000000E-02 -2.508048400000E-01
     63 T   6 C    -3.927897800000E-01 -4.463742200000E-01  2.477779100000E-01
     64 T   6 C    -1.622501100000E-01  1.475198000000E-02 -2.522220800000E-01
     65 T   6 C     3.928233700000E-01  4.461720300000E-01  2.476554200000E-01
     66 T   6 C    -3.766369600000E-01 -9.270177000000E-02 -2.523445800000E-01
     67 T   6 C     4.462872600000E-01  3.926899900000E-01  2.480228400000E-01
     68 T   6 C    -3.231730700000E-01 -1.461838100000E-01 -2.519771600000E-01
     69 T   6 C    -4.462570400000E-01 -3.929020000000E-01  2.470780500000E-01
     70 T   6 C    -2.157173700000E-01  6.822420000000E-02 -2.529219500000E-01
     71 T   6 C     4.459599800000E-01 -4.460417700000E-01  2.480403700000E-01
     72 T   6 C    -3.235003500000E-01  1.508443000000E-02 -2.519596400000E-01
     73 T   8 O    -4.392633200000E-01  2.803706300000E-01  2.496325800000E-01
     74 T   8 O    -2.087236500000E-01 -2.585031700000E-01 -2.503674200000E-01
     75 T   8 O    -2.803183000000E-01  2.803783300000E-01  2.526595300000E-01
     76 T   8 O    -4.977863000000E-02 -2.584954700000E-01 -2.473404600000E-01
     77 T   8 O    -2.803205800000E-01  4.393234600000E-01  2.480928700000E-01
     78 T   8 O    -4.978091000000E-02 -9.955034000000E-02 -2.519071300000E-01
     79 T   8 O     2.803245100000E-01 -2.803488900000E-01  2.496325900000E-01
     80 T   8 O    -4.891358200000E-01  1.807773100000E-01 -2.503674100000E-01
     81 T   8 O     2.803439700000E-01 -4.393043900000E-01  2.526595300000E-01
     82 T   8 O    -4.891163600000E-01  2.182181000000E-02 -2.473404700000E-01
     83 T   8 O     4.392638400000E-01 -2.803645800000E-01  2.480928600000E-01
     84 T   8 O    -3.301964900000E-01  1.807616200000E-01 -2.519071400000E-01

 T = ATOM BELONGING TO THE ASYMMETRIC UNIT

 ****    1 SYMMOPS - TRANSLATORS IN FRACTIONAL UNITS
 **** MATRICES AND TRANSLATORS IN THE CRYSTALLOGRAPHIC REFERENCE FRAME
   V INV                    ROTATION MATRICES                   TRANSLATORS
   1   1  1.00  0.00  0.00  0.00  1.00  0.00  0.00  0.00  1.00  0.00  0.00  0.00

 DIRECT LATTICE VECTORS CARTESIAN COMPONENTS (ANGSTROM)
          X                    Y                    Z
   0.130113578931E+02  -0.751088897922E+01   0.000000000000E+00
   0.000000000000E+00   0.150239160000E+02   0.000000000000E+00
  -0.148798465207E-04  -0.394618943860E-04   0.699999999987E+01


 CARTESIAN COORDINATES - PRIMITIVE CELL
 *******************************************************************************
 *      ATOM          X(ANGSTROM)         Y(ANGSTROM)         Z(ANGSTROM)
 *******************************************************************************
    1     5 B    -5.026544485228E+00  6.316802524718E+00  1.754776729968E+00
    2     5 B    -2.026902890387E+00 -3.510730316810E+00 -1.745223269968E+00
    3     5 B    -2.957014368052E+00  7.511852091771E+00  1.754776799968E+00
    4     5 B     4.262722678875E-02 -2.315680749758E+00 -1.745223199968E+00
    5     5 B    -5.026600022377E+00 -6.317640937934E+00  1.744733549968E+00
    6     5 B    -2.026958427537E+00 -1.121257779463E+00 -1.755266379968E+00
    7     5 B     2.956895660710E+00 -7.511640893007E+00  1.754776799968E+00
    8     5 B     5.956537255551E+00 -2.315257734536E+00 -1.745223199968E+00
    9     5 B     5.027106402018E+00  6.316920761880E+00  1.754776729968E+00
   10     5 B    -4.984609896198E+00  4.000276899567E+00 -1.745223269968E+00
   11     5 B     5.026849839389E+00 -6.315953093665E+00  1.744733619968E+00
   12     5 B     8.026491434230E+00 -1.119569935194E+00 -1.755266379968E+00
   13     1 H    -1.261537846051E+00  5.369557952060E+00  1.733955229969E+00
   14     1 H     1.738103748790E+00 -4.457974889469E+00 -1.766044769968E+00
   15     1 H     1.257342775570E+00 -5.367408149391E+00  1.730771279969E+00
   16     1 H     4.256984370411E+00 -1.710249909195E-01 -1.769228789968E+00
   17     1 H    -1.262477258281E+00 -5.369860575884E+00  1.730281209969E+00
   18     1 H     1.737164336560E+00 -1.734774174125E-01 -1.769718789968E+00
   19     1 H     1.258665380882E+00  5.368391997772E+00  1.730403429969E+00
   20     1 H     4.258306975722E+00 -4.459140843757E+00 -1.769596569968E+00
   21     1 H    -4.020091775027E+00  3.777993136383E+00  1.766044909968E+00
   22     1 H    -1.020450180187E+00 -6.049539705145E+00 -1.733955089969E+00
   23     1 H     4.019591389885E+00 -3.771096546471E+00  1.769229139968E+00
   24     1 H     7.019232984725E+00  1.425286612001E+00 -1.730770929969E+00
   25     1 H     5.280915936062E+00 -1.590383664204E+00  1.769719419968E+00
   26     1 H    -4.730800362154E+00 -3.907027526516E+00 -1.730280579969E+00
   27     1 H    -5.278552790151E+00  1.594964229472E+00  1.769596359968E+00
   28     1 H    -2.278911195310E+00  6.791347387944E+00 -1.730403639969E+00
   29     1 H    -4.019566828637E+00 -3.778586872024E+00  1.733955439969E+00
   30     1 H    -1.019925233797E+00  1.417796286448E+00 -1.766044629968E+00
   31     1 H     4.020009266337E+00  3.773252741719E+00  1.730771069969E+00
   32     1 H    -5.991707031879E+00  1.456608879406E+00 -1.769228929968E+00
   33     1 H     5.280533225747E+00  1.591501348007E+00  1.730280789969E+00
   34     1 H    -4.731183072469E+00 -7.251425143055E-01 -1.769719209968E+00
   35     1 H    -5.278830239103E+00 -1.595795696973E+00  1.730403849969E+00
   36     1 H    -2.279188644263E+00  3.600587461499E+00 -1.769596149968E+00
   37     6 C    -1.406657576283E+00  7.511810584744E+00  1.744366119968E+00
   38     6 C     1.592984018557E+00 -2.315722256784E+00 -1.755633879968E+00
   39     6 C    -6.962530278628E-01  6.303082887312E+00  1.734445159969E+00
   40     6 C     2.303388566978E+00 -3.524449954217E+00 -1.765554839968E+00
   41     6 C     6.946482514824E-01 -6.302617071447E+00  1.733588149969E+00
   42     6 C     3.694289846323E+00 -1.106233912976E+00 -1.766411849968E+00
   43     6 C    -6.967344517504E-01 -6.303108578175E+00  1.736160159968E+00
   44     6 C     2.302907143090E+00 -1.106725419704E+00 -1.763839839968E+00
   45     6 C     6.951455541731E-01  6.303133005810E+00  1.729546139969E+00
   46     6 C     3.694787149014E+00 -3.524399835719E+00 -1.770453859968E+00
   47     6 C     1.405689939282E+00 -7.511586597577E+00  1.736282589968E+00
   48     6 C     4.405331534123E+00 -2.315203439105E+00 -1.763717479968E+00
   49     6 C     7.208801448543E+00 -2.536224614076E+00  1.755634159968E+00
   50     6 C    -2.802914849673E+00 -4.852868476388E+00 -1.744365839968E+00
   51     6 C    -5.111153334997E+00  3.755053547925E+00  1.765554909968E+00
   52     6 C    -2.111511740156E+00 -6.072479293604E+00 -1.734445089969E+00
   53     6 C     5.110840320438E+00 -3.751605363415E+00  1.766412199968E+00
   54     6 C    -4.900875977778E+00 -6.068249225728E+00 -1.733587799969E+00
   55     6 C     5.806803677224E+00 -2.546701543680E+00  1.763840259968E+00
   56     6 C    -4.204912620992E+00 -4.863345405993E+00 -1.736159739968E+00
   57     6 C    -5.806753549731E+00  2.550050061225E+00  1.770453929968E+00
   58     6 C    -2.807111954890E+00 -7.277482780303E+00 -1.729546139969E+00
   59     6 C     5.802123882392E+00 -4.972027185443E+00  1.763717619968E+00
   60     6 C    -4.209592415825E+00 -7.288671047755E+00 -1.736282379968E+00
   61     6 C     7.208872384396E+00  2.537402443950E+00  1.744366119968E+00
   62     6 C    -2.802843913820E+00  2.207585816380E-01 -1.755633879968E+00
   63     6 C    -5.110732091212E+00 -3.756098133880E+00  1.734445369969E+00
   64     6 C    -2.111090496372E+00  1.440285024590E+00 -1.765554559968E+00
   65     6 C     5.111161770752E+00  3.752788606806E+00  1.733587939969E+00
   66     6 C    -4.900554527464E+00  1.436144744493E+00 -1.766412059968E+00
   67     6 C     5.806799572430E+00  2.547717573651E+00  1.736159879968E+00
   68     6 C    -4.204916725786E+00  2.310737113387E-01 -1.763840119968E+00
   69     6 C    -5.806413736220E+00 -2.551149310766E+00  1.729546349969E+00
   70     6 C    -2.806772141379E+00  2.645233847705E+00 -1.770453649968E+00
   71     6 C     5.802541214958E+00  4.973056227932E+00  1.736282589968E+00
   72     6 C    -4.209175083258E+00  2.656412365620E+00 -1.763717479968E+00
   73     8 O     7.295941912750E+00  6.239929581478E-04  1.747428059968E+00
   74     8 O    -2.715774385466E+00 -2.316019869354E+00 -1.752571939968E+00
   75     8 O    -3.647325484808E+00  6.317810137859E+00  1.768616709968E+00
   76     8 O    -6.476838899680E-01 -3.509722703670E+00 -1.731383219969E+00
   77     8 O    -3.647355082753E+00 -6.318110275376E+00  1.736650089968E+00
   78     8 O    -6.477134879126E-01 -1.121727116905E+00 -1.763349909968E+00
   79     8 O     3.647398811311E+00 -6.317434297791E+00  1.747428129968E+00
   80     8 O     6.647040406152E+00 -1.121051139320E+00 -1.752571869968E+00
   81     8 O     3.647651967295E+00  6.318201341122E+00  1.768616709968E+00
   82     8 O     6.647293562136E+00 -3.509331500407E+00 -1.731383289969E+00
   83     8 O    -7.295942552922E+00 -5.566451173632E-04  1.736650019968E+00
   84     8 O    -4.296300958081E+00  5.195826513354E+00 -1.763349979968E+00

 *******************************************************************************
 STARTING BASIS SET HANDLING 
 *******************************************************************************

 Loading internal basis set: SOLDEF2MSVP         

 Please cite in your publication:
 L. Dona', J. G. Brandenburg and B. Civalleri, J. Chem. Phys., 151, 121101 (2019
 )                                                                              
                                                                                
                    

 *******************************************************************************
 LOCAL ATOMIC FUNCTIONS BASIS SET
 *******************************************************************************
   ATOM   X(AU)   Y(AU)   Z(AU)  N. TYPE  EXPONENT  S COEF   P COEF   D/F/G COEF
 *******************************************************************************
   1 B   -9.499  11.937   3.316
                                  1 S  
                                         2.410E+03 1.755E-03 0.000E+00 0.000E+00
                                         3.619E+02 1.344E-02 0.000E+00 0.000E+00
                                         8.231E+01 6.637E-02 0.000E+00 0.000E+00
                                         2.311E+01 2.303E-01 0.000E+00 0.000E+00
                                         7.252E+00 5.150E-01 0.000E+00 0.000E+00
                                  2 S  
                                         2.367E+00 1.000E+00 0.000E+00 0.000E+00
                                  3 S  
                                         5.533E-01 1.000E+00 0.000E+00 0.000E+00
                                  4 S  
                                         1.716E-01 1.000E+00 0.000E+00 0.000E+00
                           5-     7 P  
                                         6.002E+00 0.000E+00-3.555E-02 0.000E+00
                                         1.240E+00 0.000E+00-1.983E-01 0.000E+00
                                         3.367E-01 0.000E+00-5.048E-01 0.000E+00
                           8-    10 P  
                                         1.256E-01 0.000E+00 1.000E+00 0.000E+00
                          11-    15 D  
                                         8.880E-01 0.000E+00 0.000E+00 1.000E+00
   2 B   -3.830  -6.634  -3.298
   3 B   -5.588  14.195   3.316
   4 B    0.081  -4.376  -3.298
   5 B   -9.499 -11.939   3.297
   6 B   -3.830  -2.119  -3.317
   7 B    5.588 -14.195   3.316
   8 B   11.256  -4.375  -3.298
   9 B    9.500  11.937   3.316
  10 B   -9.420   7.559  -3.298
  11 B    9.499 -11.935   3.297
  12 B   15.168  -2.116  -3.317
  13 H   -2.384  10.147   3.277
                                181 S  
                                         1.874E+01 1.968E-02 0.000E+00 0.000E+00
                                         2.826E+00 1.380E-01 0.000E+00 0.000E+00
                                         6.401E-01 4.783E-01 0.000E+00 0.000E+00
                                182 S  
                                         1.756E-01 1.000E+00 0.000E+00 0.000E+00
  14 H    3.285  -8.424  -3.337
  15 H    2.376 -10.143   3.271
  16 H    8.045  -0.323  -3.343
  17 H   -2.386 -10.148   3.270
  18 H    3.283  -0.328  -3.344
  19 H    2.379  10.145   3.270
  20 H    8.047  -8.427  -3.344
  21 H   -7.597   7.139   3.337
  22 H   -1.928 -11.432  -3.277
  23 H    7.596  -7.126   3.343
  24 H   13.264   2.693  -3.271
  25 H    9.979  -3.005   3.344
  26 H   -8.940  -7.383  -3.270
  27 H   -9.975   3.014   3.344
  28 H   -4.307  12.834  -3.270
  29 H   -7.596  -7.140   3.277
  30 H   -1.927   2.679  -3.337
  31 H    7.597   7.130   3.271
  32 H  -11.323   2.753  -3.343
  33 H    9.979   3.008   3.270
  34 H   -8.941  -1.370  -3.344
  35 H   -9.976  -3.016   3.270
  36 H   -4.307   6.804  -3.344
  37 C   -2.658  14.195   3.296
                                229 S  
                                         3.624E+03 1.634E-03 0.000E+00 0.000E+00
                                         5.440E+02 1.252E-02 0.000E+00 0.000E+00
                                         1.237E+02 6.211E-02 0.000E+00 0.000E+00
                                         3.476E+01 2.182E-01 0.000E+00 0.000E+00
                                         1.093E+01 4.980E-01 0.000E+00 0.000E+00
                                230 S  
                                         3.574E+00 1.000E+00 0.000E+00 0.000E+00
                                231 S  
                                         7.742E-01 1.000E+00 0.000E+00 0.000E+00
                                232 S  
                                         2.330E-01 1.000E+00 0.000E+00 0.000E+00
                         233-   235 P  
                                         9.443E+00 0.000E+00 3.790E-02 0.000E+00
                                         2.002E+00 0.000E+00 2.082E-01 0.000E+00
                                         5.463E-01 0.000E+00 5.047E-01 0.000E+00
                         236-   238 P  
                                         1.820E-01 0.000E+00 1.000E+00 0.000E+00
                         239-   243 D  
                                         8.880E-01 0.000E+00 0.000E+00 1.000E+00
  38 C    3.010  -4.376  -3.318
  39 C   -1.316  11.911   3.278
  40 C    4.353  -6.660  -3.336
  41 C    1.313 -11.910   3.276
  42 C    6.981  -2.090  -3.338
  43 C   -1.317 -11.911   3.281
  44 C    4.352  -2.091  -3.333
  45 C    1.314  11.911   3.268
  46 C    6.982  -6.660  -3.346
  47 C    2.656 -14.195   3.281
  48 C    8.325  -4.375  -3.333
  49 C   13.623  -4.793   3.318
  50 C   -5.297  -9.171  -3.296
  51 C   -9.659   7.096   3.336
  52 C   -3.990 -11.475  -3.278
  53 C    9.658  -7.090   3.338
  54 C   -9.261 -11.467  -3.276
  55 C   10.973  -4.813   3.333
  56 C   -7.946  -9.190  -3.281
  57 C  -10.973   4.819   3.346
  58 C   -5.305 -13.752  -3.268
  59 C   10.964  -9.396   3.333
  60 C   -7.955 -13.774  -3.281
  61 C   13.623   4.795   3.296
  62 C   -5.297   0.417  -3.318
  63 C   -9.658  -7.098   3.278
  64 C   -3.989   2.722  -3.336
  65 C    9.659   7.092   3.276
  66 C   -9.261   2.714  -3.338
  67 C   10.973   4.814   3.281
  68 C   -7.946   0.437  -3.333
  69 C  -10.973  -4.821   3.268
  70 C   -5.304   4.999  -3.346
  71 C   10.965   9.398   3.281
  72 C   -7.954   5.020  -3.333
  73 O   13.787   0.001   3.302
                                769 S  
                                         6.773E+03 1.727E-03 0.000E+00 0.000E+00
                                         1.017E+03 1.325E-02 0.000E+00 0.000E+00
                                         2.313E+02 6.603E-02 0.000E+00 0.000E+00
                                         6.501E+01 2.353E-01 0.000E+00 0.000E+00
                                         2.050E+01 5.498E-01 0.000E+00 0.000E+00
                                770 S  
                                         6.716E+00 1.000E+00 0.000E+00 0.000E+00
                                771 S  
                                         1.147E+00 1.000E+00 0.000E+00 0.000E+00
                                772 S  
                                         3.342E-01 1.000E+00 0.000E+00 0.000E+00
                         773-   775 P  
                                         1.769E+01 0.000E+00 4.359E-02 0.000E+00
                                         3.854E+00 0.000E+00 2.318E-01 0.000E+00
                                         1.047E+00 0.000E+00 5.146E-01 0.000E+00
                         776-   778 P  
                                         2.759E-01 0.000E+00 1.000E+00 0.000E+00
                         779-   783 D  
                                         8.000E-01 0.000E+00 0.000E+00 1.000E+00
  74 O   -5.132  -4.377  -3.312
  75 O   -6.892  11.939   3.342
  76 O   -1.224  -6.632  -3.272
  77 O   -6.893 -11.939   3.282
  78 O   -1.224  -2.120  -3.332
  79 O    6.893 -11.938   3.302
  80 O   12.561  -2.118  -3.312
  81 O    6.893  11.940   3.342
  82 O   12.562  -6.632  -3.272
  83 O  -13.787  -0.001   3.282
  84 O   -8.119   9.819  -3.332

 *******************************************************************************
 FINISHED BASIS SET HANDLING 
 *******************************************************************************

 INFORMATION **** SET_MPP **** PCRYSTAL CALCULATION
 INFORMATION **** READM2 **** NEW DEFAULT: FOCK/KS MATRIX MIXING SET TO 30 %
 INFORMATION **** READM2 **** NEW DEFAULT: FULL DIRECT SCF MODE
 INFORMATION **** READM2 **** NEW DEFAULT: COULOMB BIPOLAR BUFFER SET TO 32 Mb
 INFORMATION **** READM2 **** NEW DEFAULT: EXCHANGE BIPOLAR BUFFER SET TO 32 Mb

 *******************************************************************************
 NEW DEFAULT: DFT INTEGRATION GRID INCREASED TO XLGRID
 NEW DEFAULT: DIIS ACCELERATOR ACTIVE
 USE KEYWORD NODIIS TO TURN IT OFF
 *******************************************************************************

 WARNING **** RDDFTP **** HSEsol-HJS ACTIVE
 RANGE SEPARATION - OMEGA:   0.110000000000000     
 WARNING **** RDDFTP **** HSEsol-3c has to be combined with sol-def2-mSVP basis set
 *******************************************************************************
 N. OF ATOMS PER CELL        84  COULOMB OVERLAP TOL         (T1) 10**   -6
 NUMBER OF SHELLS           468  COULOMB PENETRATION TOL     (T2) 10**   -6
 NUMBER OF AO               948  EXCHANGE OVERLAP TOL        (T3) 10**   -6
 N. OF ELECTRONS PER CELL   396  EXCHANGE PSEUDO OVP (F(G))  (T4) 10**   -6
 CORE ELECTRONS PER CELL    120  EXCHANGE PSEUDO OVP (P(G))  (T5) 10**  -12
 N. OF SYMMETRY OPERATORS     1  POLE ORDER IN MONO ZONE                  4
 *******************************************************************************
 TYPE OF CALCULATION :  RESTRICTED CLOSED SHELL
 KOHN-SHAM HAMILTONIAN

 (EXCHANGE)[CORRELATION] FUNCTIONAL:(HSEsol GGA)[PBEsol]

 RANGE-SEPARATED HYBRID FUNCTIONAL 
 OMEGA (SHORT-RANGE)[LONG-RANGE]:(    0.1100)[    0.0000]

 HYBRID EXCHANGE - PERCENTAGE OF FOCK EXCHANGE    25.0000

 CAPPA:IS1  2;IS2  2;IS3  8; K PTS MONK NET  20; SYMMOPS:K SPACE   2;G SPACE   1

 *******************************************************************************
 MAX NUMBER OF SCF CYCLES      50  CONVERGENCE ON DELTAP        10**-16
 WEIGHT OF F(I) IN F(I+1)      30% CONVERGENCE ON ENERGY        10**- 6
 SHRINK. FACT.(MONKH.)    2  2  8  NUMBER OF K POINTS IN THE IBZ     20
 SHRINKING FACTOR(GILAT NET)    8  NUMBER OF K POINTS(GILAT NET)   1028
 *******************************************************************************
 *** K POINTS COORDINATES (OBLIQUE COORDINATES IN UNITS OF IS =  2)
   1-R(  0  0  0)   2-R(  1  0  0)   3-R(  0  1  0)   4-R(  1  1  0)
   5-C(  0  0  1)   6-C(  1  0  1)   7-C(  0  1  1)   8-C(  1  1  1)
   9-C(  0  0  2)  10-C(  1  0  2)  11-C(  0  1  2)  12-C(  1  1  2)
  13-C(  0  0  3)  14-C(  1  0  3)  15-C(  0  1  3)  16-C(  1  1  3)
  17-R(  0  0  4)  18-R(  1  0  4)  19-R(  0  1  4)  20-R(  1  1  4)

 DIRECT LATTICE VECTORS COMPON. (A.U.)     RECIP. LATTICE VECTORS COMPON. (A.U.) 
        X            Y            Z              X            Y            Z
   24.5879030  -14.1935232    0.0000000      0.2555397    0.0000000    0.0000005
    0.0000000   28.3910867    0.0000000      0.1277517    0.2213084    0.0000015
   -0.0000281   -0.0000746   13.2280829      0.0000000    0.0000000    0.4749884

 DISK SPACE FOR EIGENVECTORS (FTN 10)    28758528 REALS

 SYMMETRY ADAPTION OF THE BLOCH FUNCTIONS DISABLED
 TTTTTTTTTTTTTTTTTTTTTTTTTTTTTT gordsh1     TELAPSE        0.05 TCPU        0.05

 MATRIX SIZE: P(G)  703484, F(G)  132687, P(G) IRR  353788, F(G) IRR  133719
 MAX G-VECTOR INDEX FOR 1- AND 2-ELECTRON INTEGRALS  55

 TTTTTTTTTTTTTTTTTTTTTTTTTTTTTT INPUT       TELAPSE        2.63 TCPU        2.62

 NEIGHBORS OF THE NON-EQUIVALENT ATOMS

 N = NUMBER OF NEIGHBORS AT DISTANCE R
    ATOM  N     R/ANG      R/AU   NEIGHBORS (ATOM LABELS AND CELL INDICES)
   1 B    1     1.3791     2.6061   73 O   -1 0 0
   1 B    1     1.3793     2.6065   75 O    0 0 0
   1 B    1     1.5503     2.9297   49 C   -1 0 0
   1 B    1     2.3895     4.5155    5 B    0 1 0
   1 B    1     2.3898     4.5160    3 B    0 0 0
   1 B    1     2.5632     4.8437   51 C    0 0 0

   2 B    1     1.3791     2.6061   74 O    0 0 0
   2 B    1     1.3793     2.6065   76 O    0 0 0
   2 B    1     1.5503     2.9297   50 C    0 0 0
   2 B    1     2.3895     4.5155    6 B    0 0 0
   2 B    1     2.3898     4.5160    4 B    0 0 0
   2 B    1     2.5632     4.8437   52 C    0 0 0

   3 B    1     1.3793     2.6065   77 O    0 1 0
   3 B    1     1.3793     2.6065   75 O    0 0 0
   3 B    1     1.5504     2.9298   37 C    0 0 0
   3 B    1     2.3895     4.5156    5 B    0 1 0
   3 B    1     2.3898     4.5160    1 B    0 0 0
   3 B    1     2.5634     4.8440   43 C    0 1 0

   4 B    1     1.3793     2.6065   78 O    0 0 0
   4 B    1     1.3793     2.6065   76 O    0 0 0
   4 B    1     1.5504     2.9298   38 C    0 0 0
   4 B    1     2.3895     4.5156    6 B    0 0 0
   4 B    1     2.3898     4.5160    2 B    0 0 0
   4 B    1     2.5634     4.8440   44 C    0 0 0

   5 B    1     1.3791     2.6061   73 O   -1-1 0
   5 B    1     1.3793     2.6064   77 O    0 0 0
   5 B    1     1.5502     2.9294   61 C   -1-1 0
   5 B    1     2.3895     4.5155    1 B    0-1 0
   5 B    1     2.3895     4.5156    3 B    0-1 0
   5 B    1     2.5629     4.8433   63 C    0 0 0

   6 B    1     1.3791     2.6061   74 O    0 0 0
   6 B    1     1.3793     2.6064   78 O    0 0 0
   6 B    1     1.5502     2.9294   62 C    0 0 0
   6 B    1     2.3895     4.5155    2 B    0 0 0
   6 B    1     2.3895     4.5156    4 B    0 0 0
   6 B    1     2.5629     4.8433   64 C    0 0 0

   7 B    1     1.3795     2.6068   79 O    0 0 0
   7 B    1     1.3795     2.6070   81 O    0-1 0
   7 B    1     1.5513     2.9316   47 C    0 0 0
   7 B    1     2.3905     4.5174   11 B    0 0 0
   7 B    1     2.3905     4.5175    9 B    0-1 0
   7 B    1     2.5648     4.8468   45 C    0-1 0

   8 B    1     1.3795     2.6068   80 O    0 0 0
   8 B    1     1.3795     2.6070   82 O    0 0 0
   8 B    1     1.5513     2.9316   48 C    0 0 0
   8 B    1     2.3905     4.5174   12 B    0 0 0
   8 B    1     2.3905     4.5175   10 B    1 0 0
   8 B    1     2.5648     4.8468   46 C    0 0 0

   9 B    1     1.3795     2.6069   81 O    0 0 0
   9 B    1     1.3797     2.6072   83 O    1 1 0
   9 B    1     1.5516     2.9322   71 C    0 0 0
   9 B    1     2.3905     4.5175    7 B    0 1 0
   9 B    1     2.3911     4.5185   11 B    0 1 0
   9 B    1     2.5651     4.8473   69 C    1 1 0

  10 B    1     1.3795     2.6069   82 O   -1 0 0
  10 B    1     1.3797     2.6072   84 O    0 0 0
  10 B    1     1.5516     2.9322   72 C    0 0 0
  10 B    1     2.3905     4.5175    8 B   -1 0 0
  10 B    1     2.3911     4.5185   12 B   -1 0 0
  10 B    1     2.5651     4.8473   70 C    0 0 0

  11 B    1     1.3795     2.6068   79 O    0 0 0
  11 B    1     1.3796     2.6071   83 O    1 0 0
  11 B    1     1.5516     2.9322   59 C    0 0 0
  11 B    1     2.3905     4.5174    7 B    0 0 0
  11 B    1     2.3911     4.5185    9 B    0-1 0
  11 B    1     2.5651     4.8473   57 C    1 0 0

  12 B    1     1.3795     2.6068   80 O    0 0 0
  12 B    1     1.3796     2.6071   84 O    1 0 0
  12 B    1     1.5516     2.9322   60 C    1 1 0
  12 B    1     2.3905     4.5174    8 B    0 0 0
  12 B    1     2.3911     4.5185   10 B    1 0 0
  12 B    1     2.5651     4.8473   58 C    1 1 0

  13 H    1     1.0913     2.0623   39 C    0 0 0
  13 H    1     2.1472     4.0576   37 C    0 0 0
  13 H    1     2.1680     4.0969   45 C    0 0 0
  13 H    1     2.5202     4.7625   19 H    0 0 0
  13 H    1     2.5676     4.8520   75 O    0 0 0
  13 H    1     2.7321     5.1630    3 B    0 0 0

  14 H    1     1.0913     2.0623   40 C    0 0 0
  14 H    1     2.1472     4.0576   38 C    0 0 0
  14 H    1     2.1680     4.0969   46 C    0 0 0
  14 H    1     2.5202     4.7625   20 H    0 0 0
  14 H    1     2.5676     4.8520   76 O    0 0 0
  14 H    1     2.7321     5.1630    4 B    0 0 0

  15 H    1     1.0914     2.0625   41 C    0 0 0
  15 H    1     2.1493     4.0616   47 C    0 0 0
  15 H    1     2.1666     4.0942   43 C    0 0 0
  15 H    1     2.5198     4.7618   17 H    0 0 0
  15 H    1     2.5720     4.8604   79 O    0 0 0
  15 H    1     2.7362     5.1707    7 B    0 0 0

  16 H    1     1.0914     2.0625   42 C    0 0 0
  16 H    1     2.1493     4.0616   48 C    0 0 0
  16 H    1     2.1666     4.0942   44 C    0 0 0
  16 H    1     2.5198     4.7618   18 H    0 0 0
  16 H    1     2.5720     4.8604   80 O    0 0 0
  16 H    1     2.7362     5.1707    8 B    0 0 0

  17 H    1     1.0914     2.0624   43 C    0 0 0
  17 H    1     2.1471     4.0575   37 C    0-1 0
  17 H    1     2.1680     4.0970   41 C    0 0 0
  17 H    1     2.5198     4.7618   15 H    0 0 0
  17 H    1     2.5665     4.8500   77 O    0 0 0
  17 H    1     2.7315     5.1618    3 B    0-1 0

  18 H    1     1.0914     2.0624   44 C    0 0 0
  18 H    1     2.1471     4.0575   38 C    0 0 0
  18 H    1     2.1680     4.0970   42 C    0 0 0
  18 H    1     2.5198     4.7618   16 H    0 0 0
  18 H    1     2.5665     4.8500   78 O    0 0 0
  18 H    1     2.7315     5.1618    4 B    0 0 0

  19 H    1     1.0915     2.0626   45 C    0 0 0
  19 H    1     2.1490     4.0610   47 C    0 1 0
  19 H    1     2.1669     4.0948   39 C    0 0 0
  19 H    1     2.5202     4.7625   13 H    0 0 0
  19 H    1     2.5712     4.8588   81 O    0 0 0
  19 H    1     2.7351     5.1686    7 B    0 1 0

  20 H    1     1.0915     2.0626   46 C    0 0 0
  20 H    1     2.1490     4.0610   48 C    0 0 0
  20 H    1     2.1669     4.0948   40 C    0 0 0
  20 H    1     2.5202     4.7625   14 H    0 0 0
  20 H    1     2.5712     4.8588   82 O    0 0 0
  20 H    1     2.7351     5.1686    8 B    0 0 0

  21 H    1     1.0913     2.0623   51 C    0 0 0
  21 H    1     2.1469     4.0571   49 C   -1 0 0
  21 H    1     2.1680     4.0968   57 C    0 0 0
  21 H    1     2.5198     4.7617   27 H    0 0 0
  21 H    1     2.5670     4.8510   75 O    0 0 0
  21 H    1     2.7310     5.1609    1 B    0 0 0

  22 H    1     1.0913     2.0623   52 C    0 0 0
  22 H    1     2.1469     4.0571   50 C    0 0 0
  22 H    1     2.1680     4.0968   58 C    0 0 0
  22 H    1     2.5198     4.7617   28 H    0-1 0
  22 H    1     2.5670     4.8510   76 O    0 0 0
  22 H    1     2.7310     5.1609    2 B    0 0 0

  23 H    1     1.0914     2.0625   53 C    0 0 0
  23 H    1     2.1493     4.0617   59 C    0 0 0
  23 H    1     2.1664     4.0939   55 C    0 0 0
  23 H    1     2.5192     4.7606   25 H    0 0 0
  23 H    1     2.5735     4.8632   79 O    0 0 0
  23 H    1     2.7371     5.1723   11 B    0 0 0

  24 H    1     1.0914     2.0625   54 C    1 1 0
  24 H    1     2.1493     4.0617   60 C    1 1 0
  24 H    1     2.1664     4.0939   56 C    1 1 0
  24 H    1     2.5192     4.7606   26 H    1 1 0
  24 H    1     2.5735     4.8632   80 O    0 0 0
  24 H    1     2.7371     5.1723   12 B    0 0 0

  25 H    1     1.0914     2.0624   55 C    0 0 0
  25 H    1     2.1475     4.0581   49 C    0 0 0
  25 H    1     2.1679     4.0967   53 C    0 0 0
  25 H    1     2.5192     4.7606   23 H    0 0 0
  25 H    1     2.5675     4.8519   73 O    0 0 0
  25 H    1     2.7328     5.1643    1 B    1 0 0

  26 H    1     1.0914     2.0624   56 C    0 0 0
  26 H    1     2.1475     4.0581   50 C    0 0 0
  26 H    1     2.1679     4.0967   54 C    0 0 0
  26 H    1     2.5192     4.7606   24 H   -1-1 0
  26 H    1     2.5675     4.8519   74 O    0 0 0
  26 H    1     2.7328     5.1643    2 B    0 0 0

  27 H    1     1.0914     2.0625   57 C    0 0 0
  27 H    1     2.1491     4.0612   59 C   -1 0 0
  27 H    1     2.1666     4.0942   51 C    0 0 0
  27 H    1     2.5198     4.7617   21 H    0 0 0
  27 H    1     2.5723     4.8609   83 O    0 0 0
  27 H    1     2.7355     5.1693   11 B   -1 0 0

  28 H    1     1.0914     2.0625   58 C    0 1 0
  28 H    1     2.1491     4.0612   60 C    0 1 0
  28 H    1     2.1666     4.0942   52 C    0 1 0
  28 H    1     2.5198     4.7617   22 H    0 1 0
  28 H    1     2.5723     4.8609   84 O    0 0 0
  28 H    1     2.7355     5.1693   12 B   -1 0 0

  29 H    1     1.0914     2.0624   63 C    0 0 0
  29 H    1     2.1475     4.0582   61 C   -1-1 0
  29 H    1     2.1678     4.0966   69 C    0 0 0
  29 H    1     2.5200     4.7621   35 H    0 0 0
  29 H    1     2.5667     4.8503   77 O    0 0 0
  29 H    1     2.7315     5.1618    5 B    0 0 0

  30 H    1     1.0914     2.0624   64 C    0 0 0
  30 H    1     2.1475     4.0582   62 C    0 0 0
  30 H    1     2.1678     4.0966   70 C    0 0 0
  30 H    1     2.5200     4.7621   36 H    0 0 0
  30 H    1     2.5667     4.8503   78 O    0 0 0
  30 H    1     2.7315     5.1618    6 B    0 0 0

  31 H    1     1.0913     2.0623   65 C    0 0 0
  31 H    1     2.1487     4.0605   71 C    0 0 0
  31 H    1     2.1667     4.0945   67 C    0 0 0
  31 H    1     2.5197     4.7616   33 H    0 0 0
  31 H    1     2.5723     4.8610   81 O    0 0 0
  31 H    1     2.7359     5.1701    9 B    0 0 0

  32 H    1     1.0913     2.0623   66 C    0 0 0
  32 H    1     2.1487     4.0605   72 C    0 0 0
  32 H    1     2.1667     4.0945   68 C    0 0 0
  32 H    1     2.5197     4.7616   34 H    0 0 0
  32 H    1     2.5723     4.8610   82 O   -1 0 0
  32 H    1     2.7359     5.1701   10 B    0 0 0

  33 H    1     1.0915     2.0626   67 C    0 0 0
  33 H    1     2.1479     4.0589   61 C    0 0 0
  33 H    1     2.1679     4.0968   65 C    0 0 0
  33 H    1     2.5197     4.7616   31 H    0 0 0
  33 H    1     2.5677     4.8522   73 O    0 0 0
  33 H    1     2.7331     5.1648    5 B    1 1 0

  34 H    1     1.0915     2.0626   68 C    0 0 0
  34 H    1     2.1479     4.0589   62 C    0 0 0
  34 H    1     2.1679     4.0968   66 C    0 0 0
  34 H    1     2.5197     4.7616   32 H    0 0 0
  34 H    1     2.5677     4.8522   74 O    0 0 0
  34 H    1     2.7331     5.1648    6 B    0 0 0

  35 H    1     1.0914     2.0624   69 C    0 0 0
  35 H    1     2.1486     4.0602   71 C   -1-1 0
  35 H    1     2.1668     4.0947   63 C    0 0 0
  35 H    1     2.5200     4.7621   29 H    0 0 0
  35 H    1     2.5717     4.8598   83 O    0 0 0
  35 H    1     2.7349     5.1682    9 B   -1-1 0

  36 H    1     1.0914     2.0624   70 C    0 0 0
  36 H    1     2.1486     4.0602   72 C    0 0 0
  36 H    1     2.1668     4.0947   64 C    0 0 0
  36 H    1     2.5200     4.7621   30 H    0 0 0
  36 H    1     2.5717     4.8598   84 O    0 0 0
  36 H    1     2.7349     5.1682   10 B    0 0 0

  37 C    1     1.4020     2.6495   43 C    0 1 0
  37 C    1     1.4021     2.6495   39 C    0 0 0
  37 C    1     1.5504     2.9298    3 B    0 0 0
  37 C    1     2.1471     4.0575   17 H    0 1 0
  37 C    1     2.1472     4.0576   13 H    0 0 0
  37 C    1     2.4246     4.5817   41 C    0 1 0

  38 C    1     1.4020     2.6495   44 C    0 0 0
  38 C    1     1.4021     2.6495   40 C    0 0 0
  38 C    1     1.5504     2.9298    4 B    0 0 0
  38 C    1     2.1471     4.0575   18 H    0 0 0
  38 C    1     2.1472     4.0576   14 H    0 0 0
  38 C    1     2.4246     4.5817   42 C    0 0 0

  39 C    1     1.0913     2.0623   13 H    0 0 0
  39 C    1     1.3914     2.6294   45 C    0 0 0
  39 C    1     1.4021     2.6495   37 C    0 0 0
  39 C    1     2.1669     4.0948   19 H    0 0 0
  39 C    1     2.4177     4.5688   43 C    0 1 0
  39 C    1     2.4250     4.5825   47 C    0 1 0

  40 C    1     1.0913     2.0623   14 H    0 0 0
  40 C    1     1.3914     2.6294   46 C    0 0 0
  40 C    1     1.4021     2.6495   38 C    0 0 0
  40 C    1     2.1669     4.0948   20 H    0 0 0
  40 C    1     2.4177     4.5688   44 C    0 0 0
  40 C    1     2.4250     4.5825   48 C    0 0 0

  41 C    1     1.0914     2.0625   15 H    0 0 0
  41 C    1     1.3914     2.6293   43 C    0 0 0
  41 C    1     1.4026     2.6505   47 C    0 0 0
  41 C    1     2.1680     4.0970   17 H    0 0 0
  41 C    1     2.4182     4.5697   45 C    0-1 0
  41 C    1     2.4246     4.5817   37 C    0-1 0

  42 C    1     1.0914     2.0625   16 H    0 0 0
  42 C    1     1.3914     2.6293   44 C    0 0 0
  42 C    1     1.4026     2.6505   48 C    0 0 0
  42 C    1     2.1680     4.0970   18 H    0 0 0
  42 C    1     2.4182     4.5697   46 C    0 0 0
  42 C    1     2.4246     4.5817   38 C    0 0 0

  43 C    1     1.0914     2.0624   17 H    0 0 0
  43 C    1     1.3914     2.6293   41 C    0 0 0
  43 C    1     1.4020     2.6495   37 C    0-1 0
  43 C    1     2.1666     4.0942   15 H    0 0 0
  43 C    1     2.4177     4.5688   39 C    0-1 0
  43 C    1     2.4250     4.5826   47 C    0 0 0

  44 C    1     1.0914     2.0624   18 H    0 0 0
  44 C    1     1.3914     2.6293   42 C    0 0 0
  44 C    1     1.4020     2.6495   38 C    0 0 0
  44 C    1     2.1666     4.0942   16 H    0 0 0
  44 C    1     2.4177     4.5688   40 C    0 0 0
  44 C    1     2.4250     4.5826   48 C    0 0 0

  45 C    1     1.0915     2.0626   19 H    0 0 0
  45 C    1     1.3914     2.6294   39 C    0 0 0
  45 C    1     1.4025     2.6504   47 C    0 1 0
  45 C    1     2.1680     4.0969   13 H    0 0 0
  45 C    1     2.4182     4.5697   41 C    0 1 0
  45 C    1     2.4246     4.5818   37 C    0 0 0

  46 C    1     1.0915     2.0626   20 H    0 0 0
  46 C    1     1.3914     2.6294   40 C    0 0 0
  46 C    1     1.4025     2.6504   48 C    0 0 0
  46 C    1     2.1680     4.0969   14 H    0 0 0
  46 C    1     2.4182     4.5697   42 C    0 0 0
  46 C    1     2.4246     4.5818   38 C    0 0 0

  47 C    1     1.4025     2.6504   45 C    0-1 0
  47 C    1     1.4026     2.6505   41 C    0 0 0
  47 C    1     1.5513     2.9316    7 B    0 0 0
  47 C    1     2.1490     4.0610   19 H    0-1 0
  47 C    1     2.1493     4.0616   15 H    0 0 0
  47 C    1     2.4250     4.5825   39 C    0-1 0

  48 C    1     1.4025     2.6504   46 C    0 0 0
  48 C    1     1.4026     2.6505   42 C    0 0 0
  48 C    1     1.5513     2.9316    8 B    0 0 0
  48 C    1     2.1490     4.0610   20 H    0 0 0
  48 C    1     2.1493     4.0616   16 H    0 0 0
  48 C    1     2.4250     4.5825   40 C    0 0 0

  49 C    1     1.4020     2.6494   51 C    1 0 0
  49 C    1     1.4021     2.6495   55 C    0 0 0
  49 C    1     1.5503     2.9297    1 B    1 0 0
  49 C    1     2.1469     4.0571   21 H    1 0 0
  49 C    1     2.1475     4.0581   25 H    0 0 0
  49 C    1     2.4246     4.5818   53 C    0 0 0

  50 C    1     1.4020     2.6494   52 C    0 0 0
  50 C    1     1.4021     2.6495   56 C    0 0 0
  50 C    1     1.5503     2.9297    2 B    0 0 0
  50 C    1     2.1469     4.0571   22 H    0 0 0
  50 C    1     2.1475     4.0581   26 H    0 0 0
  50 C    1     2.4246     4.5818   54 C    0 0 0

  51 C    1     1.0913     2.0623   21 H    0 0 0
  51 C    1     1.3914     2.6293   57 C    0 0 0
  51 C    1     1.4020     2.6494   49 C   -1 0 0
  51 C    1     2.1666     4.0942   27 H    0 0 0
  51 C    1     2.4175     4.5684   55 C   -1 0 0
  51 C    1     2.4251     4.5828   59 C   -1 0 0

  52 C    1     1.0913     2.0623   22 H    0 0 0
  52 C    1     1.3914     2.6293   58 C    0 0 0
  52 C    1     1.4020     2.6494   50 C    0 0 0
  52 C    1     2.1666     4.0942   28 H    0-1 0
  52 C    1     2.4175     4.5684   56 C    0 0 0
  52 C    1     2.4251     4.5828   60 C    0 0 0

  53 C    1     1.0914     2.0625   23 H    0 0 0
  53 C    1     1.3915     2.6295   55 C    0 0 0
  53 C    1     1.4026     2.6505   59 C    0 0 0
  53 C    1     2.1679     4.0967   25 H    0 0 0
  53 C    1     2.4179     4.5691   57 C    1 0 0
  53 C    1     2.4246     4.5818   49 C    0 0 0

  54 C    1     1.0914     2.0625   24 H   -1-1 0
  54 C    1     1.3915     2.6295   56 C    0 0 0
  54 C    1     1.4026     2.6505   60 C    0 0 0
  54 C    1     2.1679     4.0967   26 H    0 0 0
  54 C    1     2.4179     4.5691   58 C    0 0 0
  54 C    1     2.4246     4.5818   50 C    0 0 0

  55 C    1     1.0914     2.0624   25 H    0 0 0
  55 C    1     1.3915     2.6295   53 C    0 0 0
  55 C    1     1.4021     2.6495   49 C    0 0 0
  55 C    1     2.1664     4.0939   23 H    0 0 0
  55 C    1     2.4175     4.5684   51 C    1 0 0
  55 C    1     2.4253     4.5832   59 C    0 0 0

  56 C    1     1.0914     2.0624   26 H    0 0 0
  56 C    1     1.3915     2.6295   54 C    0 0 0
  56 C    1     1.4021     2.6495   50 C    0 0 0
  56 C    1     2.1664     4.0939   24 H   -1-1 0
  56 C    1     2.4175     4.5684   52 C    0 0 0
  56 C    1     2.4253     4.5832   60 C    0 0 0

  57 C    1     1.0914     2.0625   27 H    0 0 0
  57 C    1     1.3914     2.6293   51 C    0 0 0
  57 C    1     1.4025     2.6504   59 C   -1 0 0
  57 C    1     2.1680     4.0968   21 H    0 0 0
  57 C    1     2.4179     4.5691   53 C   -1 0 0
  57 C    1     2.4247     4.5819   49 C   -1 0 0

  58 C    1     1.0914     2.0625   28 H    0-1 0
  58 C    1     1.3914     2.6293   52 C    0 0 0
  58 C    1     1.4025     2.6504   60 C    0 0 0
  58 C    1     2.1680     4.0968   22 H    0 0 0
  58 C    1     2.4179     4.5691   54 C    0 0 0
  58 C    1     2.4247     4.5819   50 C    0 0 0

  59 C    1     1.4025     2.6504   57 C    1 0 0
  59 C    1     1.4026     2.6505   53 C    0 0 0
  59 C    1     1.5516     2.9322   11 B    0 0 0
  59 C    1     2.1491     4.0612   27 H    1 0 0
  59 C    1     2.1493     4.0617   23 H    0 0 0
  59 C    1     2.4251     4.5828   51 C    1 0 0

  60 C    1     1.4025     2.6504   58 C    0 0 0
  60 C    1     1.4026     2.6505   54 C    0 0 0
  60 C    1     1.5516     2.9322   12 B   -1-1 0
  60 C    1     2.1491     4.0612   28 H    0-1 0
  60 C    1     2.1493     4.0617   24 H   -1-1 0
  60 C    1     2.4251     4.5828   52 C    0 0 0

  61 C    1     1.4021     2.6496   63 C    1 1 0
  61 C    1     1.4021     2.6497   67 C    0 0 0
  61 C    1     1.5502     2.9294    5 B    1 1 0
  61 C    1     2.1475     4.0582   29 H    1 1 0
  61 C    1     2.1479     4.0589   33 H    0 0 0
  61 C    1     2.4244     4.5814   65 C    0 0 0

  62 C    1     1.4021     2.6496   64 C    0 0 0
  62 C    1     1.4021     2.6497   68 C    0 0 0
  62 C    1     1.5502     2.9294    6 B    0 0 0
  62 C    1     2.1475     4.0582   30 H    0 0 0
  62 C    1     2.1479     4.0589   34 H    0 0 0
  62 C    1     2.4244     4.5814   66 C    0 0 0

  63 C    1     1.0914     2.0624   29 H    0 0 0
  63 C    1     1.3914     2.6293   69 C    0 0 0
  63 C    1     1.4021     2.6496   61 C   -1-1 0
  63 C    1     2.1668     4.0947   35 H    0 0 0
  63 C    1     2.4179     4.5692   67 C   -1-1 0
  63 C    1     2.4251     4.5827   71 C   -1-1 0

  64 C    1     1.0914     2.0624   30 H    0 0 0
  64 C    1     1.3914     2.6293   70 C    0 0 0
  64 C    1     1.4021     2.6496   62 C    0 0 0
  64 C    1     2.1668     4.0947   36 H    0 0 0
  64 C    1     2.4179     4.5692   68 C    0 0 0
  64 C    1     2.4251     4.5827   72 C    0 0 0

  65 C    1     1.0913     2.0623   31 H    0 0 0
  65 C    1     1.3914     2.6294   67 C    0 0 0
  65 C    1     1.4025     2.6504   71 C    0 0 0
  65 C    1     2.1679     4.0968   33 H    0 0 0
  65 C    1     2.4178     4.5690   69 C    1 1 0
  65 C    1     2.4244     4.5814   61 C    0 0 0

  66 C    1     1.0913     2.0623   32 H    0 0 0
  66 C    1     1.3914     2.6294   68 C    0 0 0
  66 C    1     1.4025     2.6504   72 C    0 0 0
  66 C    1     2.1679     4.0968   34 H    0 0 0
  66 C    1     2.4178     4.5690   70 C    0 0 0
  66 C    1     2.4244     4.5814   62 C    0 0 0

  67 C    1     1.0915     2.0626   33 H    0 0 0
  67 C    1     1.3914     2.6294   65 C    0 0 0
  67 C    1     1.4021     2.6497   61 C    0 0 0
  67 C    1     2.1667     4.0945   31 H    0 0 0
  67 C    1     2.4179     4.5692   63 C    1 1 0
  67 C    1     2.4253     4.5832   71 C    0 0 0

  68 C    1     1.0915     2.0626   34 H    0 0 0
  68 C    1     1.3914     2.6294   66 C    0 0 0
  68 C    1     1.4021     2.6497   62 C    0 0 0
  68 C    1     2.1667     4.0945   32 H    0 0 0
  68 C    1     2.4179     4.5692   64 C    0 0 0
  68 C    1     2.4253     4.5832   72 C    0 0 0

  69 C    1     1.0914     2.0624   35 H    0 0 0
  69 C    1     1.3914     2.6293   63 C    0 0 0
  69 C    1     1.4025     2.6503   71 C   -1-1 0
  69 C    1     2.1678     4.0966   29 H    0 0 0
  69 C    1     2.4178     4.5690   65 C   -1-1 0
  69 C    1     2.4245     4.5817   61 C   -1-1 0

  70 C    1     1.0914     2.0624   36 H    0 0 0
  70 C    1     1.3914     2.6293   64 C    0 0 0
  70 C    1     1.4025     2.6503   72 C    0 0 0
  70 C    1     2.1678     4.0966   30 H    0 0 0
  70 C    1     2.4178     4.5690   66 C    0 0 0
  70 C    1     2.4245     4.5817   62 C    0 0 0

  71 C    1     1.4025     2.6503   69 C    1 1 0
  71 C    1     1.4025     2.6504   65 C    0 0 0
  71 C    1     1.5516     2.9322    9 B    0 0 0
  71 C    1     2.1486     4.0602   35 H    1 1 0
  71 C    1     2.1487     4.0605   31 H    0 0 0
  71 C    1     2.4251     4.5827   63 C    1 1 0

  72 C    1     1.4025     2.6503   70 C    0 0 0
  72 C    1     1.4025     2.6504   66 C    0 0 0
  72 C    1     1.5516     2.9322   10 B    0 0 0
  72 C    1     2.1486     4.0602   36 H    0 0 0
  72 C    1     2.1487     4.0605   32 H    0 0 0
  72 C    1     2.4251     4.5827   64 C    0 0 0

  73 O    1     1.3791     2.6061    1 B    1 0 0
  73 O    1     1.3791     2.6061    5 B    1 1 0
  73 O    1     2.3880     4.5126   75 O    1 0 0
  73 O    1     2.3882     4.5130   77 O    1 1 0
  73 O    1     2.5383     4.7966   61 C    0 0 0
  73 O    1     2.5384     4.7968   49 C    0 0 0

  74 O    1     1.3791     2.6061    2 B    0 0 0
  74 O    1     1.3791     2.6061    6 B    0 0 0
  74 O    1     2.3880     4.5126   76 O    0 0 0
  74 O    1     2.3882     4.5130   78 O    0 0 0
  74 O    1     2.5383     4.7966   62 C    0 0 0
  74 O    1     2.5384     4.7968   50 C    0 0 0

  75 O    1     1.3793     2.6065    1 B    0 0 0
  75 O    1     1.3793     2.6065    3 B    0 0 0
  75 O    1     2.3880     4.5126   73 O   -1 0 0
  75 O    1     2.3882     4.5131   77 O    0 1 0
  75 O    1     2.5391     4.7981   37 C    0 0 0
  75 O    1     2.5395     4.7990   49 C   -1 0 0

  76 O    1     1.3793     2.6065    2 B    0 0 0
  76 O    1     1.3793     2.6065    4 B    0 0 0
  76 O    1     2.3880     4.5126   74 O    0 0 0
  76 O    1     2.3882     4.5131   78 O    0 0 0
  76 O    1     2.5391     4.7981   38 C    0 0 0
  76 O    1     2.5395     4.7990   50 C    0 0 0

  77 O    1     1.3793     2.6064    5 B    0 0 0
  77 O    1     1.3793     2.6065    3 B    0-1 0
  77 O    1     2.3882     4.5130   73 O   -1-1 0
  77 O    1     2.3882     4.5131   75 O    0-1 0
  77 O    1     2.5390     4.7980   37 C    0-1 0
  77 O    1     2.5391     4.7982   61 C   -1-1 0

  78 O    1     1.3793     2.6064    6 B    0 0 0
  78 O    1     1.3793     2.6065    4 B    0 0 0
  78 O    1     2.3882     4.5130   74 O    0 0 0
  78 O    1     2.3882     4.5131   76 O    0 0 0
  78 O    1     2.5390     4.7980   38 C    0 0 0
  78 O    1     2.5391     4.7982   62 C    0 0 0

  79 O    1     1.3795     2.6068   11 B    0 0 0
  79 O    1     1.3795     2.6068    7 B    0 0 0
  79 O    1     2.3880     4.5126   83 O    1 0 0
  79 O    1     2.3884     4.5134   81 O    0-1 0
  79 O    1     2.5400     4.7998   47 C    0 0 0
  79 O    1     2.5403     4.8005   59 C    0 0 0

  80 O    1     1.3795     2.6068   12 B    0 0 0
  80 O    1     1.3795     2.6068    8 B    0 0 0
  80 O    1     2.3880     4.5126   84 O    1 0 0
  80 O    1     2.3884     4.5134   82 O    0 0 0
  80 O    1     2.5400     4.7998   48 C    0 0 0
  80 O    1     2.5403     4.8005   60 C    1 1 0

  81 O    1     1.3795     2.6069    9 B    0 0 0
  81 O    1     1.3795     2.6070    7 B    0 1 0
  81 O    1     2.3881     4.5128   83 O    1 1 0
  81 O    1     2.3884     4.5134   79 O    0 1 0
  81 O    1     2.5404     4.8006   47 C    0 1 0
  81 O    1     2.5405     4.8008   71 C    0 0 0

  82 O    1     1.3795     2.6069   10 B    1 0 0
  82 O    1     1.3795     2.6070    8 B    0 0 0
  82 O    1     2.3881     4.5128   84 O    1 0 0
  82 O    1     2.3884     4.5134   80 O    0 0 0
  82 O    1     2.5404     4.8006   48 C    0 0 0
  82 O    1     2.5405     4.8008   72 C    1 0 0

  83 O    1     1.3796     2.6071   11 B   -1 0 0
  83 O    1     1.3797     2.6072    9 B   -1-1 0
  83 O    1     2.3880     4.5126   79 O   -1 0 0
  83 O    1     2.3881     4.5128   81 O   -1-1 0
  83 O    1     2.5409     4.8016   71 C   -1-1 0
  83 O    1     2.5410     4.8019   59 C   -1 0 0

  84 O    1     1.3796     2.6071   12 B   -1 0 0
  84 O    1     1.3797     2.6072   10 B    0 0 0
  84 O    1     2.3880     4.5126   80 O   -1 0 0
  84 O    1     2.3881     4.5128   82 O   -1 0 0
  84 O    1     2.5409     4.8016   72 C    0 0 0
  84 O    1     2.5410     4.8019   60 C    0 1 0


 SYMMETRY ALLOWED INTERNAL DEGREE(S) OF FREEDOM: 249
 TTTTTTTTTTTTTTTTTTTTTTTTTTTTTT SYMM        TELAPSE        2.63 TCPU        2.63
 TTTTTTTTTTTTTTTTTTTTTTTTTTTTTT INT_SCREEN  TELAPSE        2.84 TCPU        2.84

 DFT PARAMETERS

     ATOM       ELECTRONS   NET CHARGE   R(ANGSTROM)
   1   5  B       5.0000      0.0000     0.89000000
  13   1  H       1.0000      0.0000     1.11000000
  37   6  C       6.0000      0.0000     0.77000000
  73   8  O       8.0000      0.0000     0.74000000

 SIZE OF GRID=    2573517
 TTTTTTTTTTTTTTTTTTTTTTTTTTTTTT MAKE_GRID2  TELAPSE       22.98 TCPU       22.95
 BECKE WEIGHT FUNCTION
 RADSAFE =     2.00
 TOLERANCES - DENSITY:10**- 6; POTENTIAL:10**- 9; GRID WGT:10**-14

 RADIAL INTEGRATION  - INTERVALS (POINTS,UPPER LIMIT):            1( 75,  4.0*R)

 ANGULAR INTEGRATION - INTERVALS (ACCURACY LEVEL [N. POINTS] UPPER LIMIT):
  1(  4[  86]   0.2)  2(  8[ 194]   0.5)  3( 12[ 350]   0.9)  4( 16[ 974]   3.5)
  5( 12[ 350]9999.0)
 TTTTTTTTTTTTTTTTTTTTTTTTTTTTTT INT_CALC    TELAPSE       23.23 TCPU       23.20
 EEEEEEEEEE INT_CALC TERMINATION  DATE 19 02 2026 TIME 20:10:38.1

 *******************************************************************************
 cof-1_z35_L060_serr                                                             
 CRYSTAL - SCF - TYPE OF CALCULATION :  RESTRICTED CLOSED SHELL
 *******************************************************************************

 CAPPA:IS1  2;IS2  2;IS3  8; K PTS MONK NET  20; SYMMOPS:K SPACE   2;G SPACE   1

 TTTTTTTTTTTTTTTTTTTTTTTTTTTTTT SDIK        TELAPSE       25.25 TCPU       46.79

 AAAAAAAAAAAAAAAAAAAAAAAAAAAAAAAAAAAAAAAAAAAAAAAAAAAAAAAAAAAAAAAAAAAAAAAAAAAAAAA
         ATOMIC WAVEFUNCTION(S)


 NUCLEAR CHARGE  5.0  SYMMETRY SPECIES            S    P
 N. ELECTRONS    5.0  NUMBER OF PRIMITIVE GTOS    8    4
                      NUMBER OF CONTRACTED GTOS   4    2
                      NUMBER OF CLOSED SHELLS     2    0
                      OPEN SHELL OCCUPATION       0    1

  ZNUC  SCFIT    TOTAL HF ENERGY   KINETIC ENERGY   VIRIAL THEOREM ACCURACY
   5.0    11    -2.451164084E+01  2.462155050E+01 -1.995536038E+00  1.5E-06

 NUCLEAR CHARGE  1.0  SYMMETRY SPECIES            S
 N. ELECTRONS    1.0  NUMBER OF PRIMITIVE GTOS    4
                      NUMBER OF CONTRACTED GTOS   2
                      NUMBER OF CLOSED SHELLS     0
                      OPEN SHELL OCCUPATION       1

  ZNUC  SCFIT    TOTAL HF ENERGY   KINETIC ENERGY   VIRIAL THEOREM ACCURACY
   1.0     1    -4.977266687E-01  5.190767460E-01 -1.958869132E+00  0.0E+00

 NUCLEAR CHARGE  6.0  SYMMETRY SPECIES            S    P
 N. ELECTRONS    6.0  NUMBER OF PRIMITIVE GTOS    8    4
                      NUMBER OF CONTRACTED GTOS   4    2
                      NUMBER OF CLOSED SHELLS     2    0
                      OPEN SHELL OCCUPATION       0    2

  ZNUC  SCFIT    TOTAL HF ENERGY   KINETIC ENERGY   VIRIAL THEOREM ACCURACY
   6.0     9    -3.766704647E+01  3.775180683E+01 -1.997754800E+00  1.1E-06

 NUCLEAR CHARGE  8.0  SYMMETRY SPECIES            S    P
 N. ELECTRONS    8.0  NUMBER OF PRIMITIVE GTOS    8    4
                      NUMBER OF CONTRACTED GTOS   4    2
                      NUMBER OF CLOSED SHELLS     2    0
                      OPEN SHELL OCCUPATION       0    4

  ZNUC  SCFIT    TOTAL HF ENERGY   KINETIC ENERGY   VIRIAL THEOREM ACCURACY
   8.0    12    -7.477373220E+01  7.477365593E+01 -2.000001020E+00  3.8E-06

 AAAAAAAAAAAAAAAAAAAAAAAAAAAAAAAAAAAAAAAAAAAAAAAAAAAAAAAAAAAAAAAAAAAAAAAAAAAAAAA

 CHARGE NORMALIZATION FACTOR   1.00000000
 TOTAL ATOMIC CHARGES:
   5.0000000   5.0000000   5.0000000   5.0000000   5.0000000   5.0000000
   5.0000000   5.0000000   5.0000000   5.0000000   5.0000000   5.0000000
   1.0000000   1.0000000   1.0000000   1.0000000   1.0000000   1.0000000
   1.0000000   1.0000000   1.0000000   1.0000000   1.0000000   1.0000000
   1.0000000   1.0000000   1.0000000   1.0000000   1.0000000   1.0000000
   1.0000000   1.0000000   1.0000000   1.0000000   1.0000000   1.0000000
   6.0000000   6.0000000   6.0000000   6.0000000   6.0000000   6.0000000
   6.0000000   6.0000000   6.0000000   6.0000000   6.0000000   6.0000000
   6.0000000   6.0000000   6.0000000   6.0000000   6.0000000   6.0000000
   6.0000000   6.0000000   6.0000000   6.0000000   6.0000000   6.0000000
   6.0000000   6.0000000   6.0000000   6.0000000   6.0000000   6.0000000
   6.0000000   6.0000000   6.0000000   6.0000000   6.0000000   6.0000000
   8.0000000   8.0000000   8.0000000   8.0000000   8.0000000   8.0000000
   8.0000000   8.0000000   8.0000000   8.0000000   8.0000000   8.0000000
 TTTTTTTTTTTTTTTTTTTTTTTTTTTTTT MOQGAD      TELAPSE       25.34 TCPU       49.18
 TTTTTTTTTTTTTTTTTTTTTTTTTTTTTT SHELLXN     TELAPSE       42.56 TCPU      597.83
 TTTTTTTTTTTTTTTTTTTTTTTTTTTTTT MONMO3      TELAPSE       43.14 TCPU      616.39
 NUMERICALLY INTEGRATED DENSITY    395.9999683651
 TTTTTTTTTTTTTTTTTTTTTTTTTTTTTT NUMDFT      TELAPSE       44.58 TCPU      662.61
 CYC   0 ETOT(AU) -2.591935466876E+03 DETOT -2.59E+03 tst  0.00E+00 PX  1.00E+00
 TTTTTTTTTTTTTTTTTTTTTTTTTTTTTT DIIS        TELAPSE       44.69 TCPU      666.05
 TTTTTTTTTTTTTTTTTTTTTTTTTTTTTT FDIK        TELAPSE       46.53 TCPU      724.57
 INSULATING STATE
 TOP OF VALENCE BANDS -    BAND    198; K    4; EIG -3.0772009E-01 AU
 TOP OF VALENCE BANDS -    BAND    198; K    1; EIG -3.0843383E-01 AU
 BOTTOM OF VIRTUAL BANDS - BAND    199; K    1; EIG -1.6445796E-01 AU
 INDIRECT ENERGY BAND GAP:   3.8984 eV
 TTTTTTTTTTTTTTTTTTTTTTTTTTTTTT PDIG        TELAPSE       48.03 TCPU      731.46
 CHARGE NORMALIZATION FACTOR   1.00000000
 TOTAL ATOMIC CHARGES:
   4.1217673   4.1622244   4.1599078   4.1661880   4.1600845   4.1664360
   4.1660199   4.1597387   4.1657962   4.1595220   4.1618618   4.1214059
   0.7856950   0.7852583   0.7853730   0.7858108   0.7845003   0.7850217
   0.7851410   0.7846230   0.7860499   0.7858644   0.7860359   0.7862196
   0.7860422   0.7858560   0.7859979   0.7861783   0.7845028   0.7850239
   0.7852060   0.7846905   0.7856473   0.7852112   0.7853684   0.7858026
   6.0474418   6.0433547   6.2691622   6.2657616   6.2657318   6.2691292
   6.2683684   6.2642771   6.2642193   6.2683221   6.0426304   6.0466945
   6.0528596   6.0419387   6.2624743   6.2609770   6.2610270   6.2625213
   6.2623907   6.2608866   6.2610537   6.2625345   6.0407575   6.0516388
   6.0478325   6.0437149   6.2681559   6.2640404   6.2645866   6.2686943
   6.2688003   6.2653832   6.2660069   6.2694069   6.0421727   6.0462222
   8.7037470   8.6910281   8.7038348   8.6911367   8.7014468   8.6908512
   8.6914551   8.7041825   8.6912574   8.7018329   8.6916317   8.7043534
 TTTTTTTTTTTTTTTTTTTTTTTTTTTTTT MOQGAD      TELAPSE       48.13 TCPU      731.55
 TTTTTTTTTTTTTTTTTTTTTTTTTTTTTT SHELLXN     TELAPSE       65.77 TCPU     1294.19
 TTTTTTTTTTTTTTTTTTTTTTTTTTTTTT MONMO3      TELAPSE       66.35 TCPU     1312.65
 NUMERICALLY INTEGRATED DENSITY    395.9999972120
 TTTTTTTTTTTTTTTTTTTTTTTTTTTTTT NUMDFT      TELAPSE       67.82 TCPU     1359.57
 CYC   1 ETOT(AU) -2.577645656368E+03 DETOT  1.43E+01 tst  0.00E+00 PX  1.00E+00
 TTTTTTTTTTTTTTTTTTTTTTTTTTTTTT DIIS        TELAPSE       67.95 TCPU     1363.90
 DIIS TEST: 0.22052E+01 AT SCF   CYCLE   1 - MIX   30 %
 TTTTTTTTTTTTTTTTTTTTTTTTTTTTTT FDIK        TELAPSE       69.80 TCPU     1423.01
 INSULATING STATE
 TOP OF VALENCE BANDS -    BAND    198; K    4; EIG -2.1841677E-01 AU
 TOP OF VALENCE BANDS -    BAND    198; K    1; EIG -2.1986582E-01 AU
 BOTTOM OF VIRTUAL BANDS - BAND    199; K    1; EIG -9.0076172E-02 AU
 INDIRECT ENERGY BAND GAP:   3.4923 eV
 TTTTTTTTTTTTTTTTTTTTTTTTTTTTTT PDIG        TELAPSE       71.33 TCPU     1429.92
 CHARGE NORMALIZATION FACTOR   1.00000000
 TOTAL ATOMIC CHARGES:
   4.6817072   4.7077622   4.6764384   4.7194769   4.6763233   4.7194840
   4.7196190   4.6763606   4.7195916   4.6763755   4.7078206   4.6816020
   0.9103385   0.9057397   0.9057600   0.9103413   0.9116326   0.9138425
   0.9138576   0.9118174   0.8995280   0.8995923   0.8994714   0.8996032
   0.8994983   0.8995940   0.8994659   0.8995837   0.9116308   0.9138377
   0.9139331   0.9119001   0.9102705   0.9057033   0.9057696   0.9103430
   5.8516641   5.8824174   6.1509683   6.1442727   6.1447036   6.1512901
   6.1217593   6.1456788   6.1462922   6.1225559   5.8850187   5.8542834
   5.9307513   5.8676457   6.1486698   6.1082020   6.1090391   6.1490738
   6.1488357   6.1084160   6.1089781   6.1490901   5.8706370   5.9338419
   5.8516129   5.8823546   6.1218215   6.1457359   6.1461458   6.1224599
   6.1511854   6.1444790   6.1444883   6.1510008   5.8852398   5.8544188
   8.3494400   8.3293126   8.3497751   8.3296605   8.3244899   8.3374250
   8.3291375   8.3492948   8.3371574   8.3244437   8.3295256   8.3496945
 TTTTTTTTTTTTTTTTTTTTTTTTTTTTTT MOQGAD      TELAPSE       71.42 TCPU     1430.01
 TTTTTTTTTTTTTTTTTTTTTTTTTTTTTT SHELLXN     TELAPSE       89.31 TCPU     2000.49
 TTTTTTTTTTTTTTTTTTTTTTTTTTTTTT MONMO3      TELAPSE       89.90 TCPU     2019.08
 NUMERICALLY INTEGRATED DENSITY    395.9999959347
 TTTTTTTTTTTTTTTTTTTTTTTTTTTTTT NUMDFT      TELAPSE       91.36 TCPU     2066.00
 CYC   2 ETOT(AU) -2.578028759384E+03 DETOT -3.83E-01 tst  2.90E-03 PX  1.62E-01
 TTTTTTTTTTTTTTTTTTTTTTTTTTTTTT DIIS        TELAPSE       91.52 TCPU     2071.10
 DIIS TEST: 0.92770E+00 AT SCF   CYCLE   2 - DIIS ACTIVE - HISTORY:     2 CYCLES
 TTTTTTTTTTTTTTTTTTTTTTTTTTTTTT FDIK        TELAPSE       93.39 TCPU     2130.70
 INSULATING STATE
 TOP OF VALENCE BANDS -    BAND    198; K    4; EIG -2.3200904E-01 AU
 TOP OF VALENCE BANDS -    BAND    198; K    1; EIG -2.3361235E-01 AU
 BOTTOM OF VIRTUAL BANDS - BAND    199; K    1; EIG -8.6087666E-02 AU
 INDIRECT ENERGY BAND GAP:   3.9707 eV
 TTTTTTTTTTTTTTTTTTTTTTTTTTTTTT PDIG        TELAPSE       94.90 TCPU     2137.58
 CHARGE NORMALIZATION FACTOR   1.00000000
 TOTAL ATOMIC CHARGES:
   4.4560365   4.5047324   4.4845770   4.5125044   4.4846115   4.5126079
   4.5122652   4.4844836   4.5120932   4.4843436   4.5043390   4.4556984
   0.8879882   0.8863482   0.8864820   0.8881918   0.8884868   0.8924918
   0.8926491   0.8885399   0.8793416   0.8751715   0.8755499   0.8794021
   0.8793614   0.8751937   0.8755165   0.8793483   0.8884749   0.8924996
   0.8927016   0.8886145   0.8879762   0.8863804   0.8864410   0.8881334
   5.9160521   5.8763809   6.1609708   6.1642610   6.1640975   6.1607108
   6.1742599   6.1461697   6.1455207   6.1732350   5.8756813   5.9156147
   5.8966543   5.9019450   6.1637162   6.1698759   6.1695325   6.1636395
   6.1637954   6.1700163   6.1694555   6.1635488   5.9010247   5.8960398
   5.9163759   5.8766626   6.1742299   6.1461085   6.1456460   6.1733577
   6.1609209   6.1641030   6.1641421   6.1607431   5.8753757   5.9153041
   8.5176840   8.5100879   8.5178017   8.5102524   8.5294041   8.5017699
   8.5103347   8.5180842   8.5019028   8.5291503   8.5105332   8.5182499
 TTTTTTTTTTTTTTTTTTTTTTTTTTTTTT MOQGAD      TELAPSE       94.99 TCPU     2137.68
 TTTTTTTTTTTTTTTTTTTTTTTTTTTTTT SHELLXN     TELAPSE      113.31 TCPU     2721.86
 TTTTTTTTTTTTTTTTTTTTTTTTTTTTTT MONMO3      TELAPSE      113.90 TCPU     2740.74
 NUMERICALLY INTEGRATED DENSITY    395.9999970562
 TTTTTTTTTTTTTTTTTTTTTTTTTTTTTT NUMDFT      TELAPSE      115.45 TCPU     2790.15
 CYC   3 ETOT(AU) -2.578217981819E+03 DETOT -1.89E-01 tst  5.88E-04 PX  7.23E-02
 TTTTTTTTTTTTTTTTTTTTTTTTTTTTTT DIIS        TELAPSE      115.66 TCPU     2796.84
 DIIS TEST: 0.36929E-01 AT SCF   CYCLE   3 - DIIS ACTIVE - HISTORY:     3 CYCLES
 TTTTTTTTTTTTTTTTTTTTTTTTTTTTTT FDIK        TELAPSE      117.71 TCPU     2862.45
 INSULATING STATE
 TOP OF VALENCE BANDS -    BAND    198; K    4; EIG -2.4043727E-01 AU
 TOP OF VALENCE BANDS -    BAND    198; K    1; EIG -2.4165339E-01 AU
 BOTTOM OF VIRTUAL BANDS - BAND    199; K    1; EIG -9.3906565E-02 AU
 INDIRECT ENERGY BAND GAP:   3.9873 eV
 TTTTTTTTTTTTTTTTTTTTTTTTTTTTTT PDIG        TELAPSE      119.23 TCPU     2869.35
 CHARGE NORMALIZATION FACTOR   1.00000000
 TOTAL ATOMIC CHARGES:
   4.4721376   4.5021685   4.4909755   4.5122092   4.4909900   4.5123135
   4.5121690   4.4907869   4.5119944   4.4906657   4.5019597   4.4718507
   0.8718514   0.8691477   0.8692562   0.8719094   0.8753031   0.8725708
   0.8725649   0.8753906   0.8629209   0.8647172   0.8646446   0.8631221
   0.8629303   0.8647565   0.8645988   0.8630619   0.8753171   0.8725806
   0.8726271   0.8754458   0.8718353   0.8691538   0.8692291   0.8718665
   5.9207921   5.9509865   6.1820275   6.1686183   6.1688196   6.1819648
   6.1466417   6.1835627   6.1844139   6.1479549   5.9531502   5.9228819
   5.9969303   5.9153505   6.1839614   6.1434705   6.1442502   6.1842694
   6.1839039   6.1434683   6.1443233   6.1844085   5.9173814   5.9988317
   5.9208226   5.9510189   6.1465594   6.1834591   6.1845000   6.1480975
   6.1819357   6.1685301   6.1688917   6.1819895   5.9531738   5.9228246
   8.4972722   8.4756965   8.4975260   8.4759413   8.4714945   8.4862002
   8.4757028   8.4972320   8.4862182   8.4719392   8.4760214   8.4975667
 TTTTTTTTTTTTTTTTTTTTTTTTTTTTTT MOQGAD      TELAPSE      119.33 TCPU     2869.44
 TTTTTTTTTTTTTTTTTTTTTTTTTTTTTT SHELLXN     TELAPSE      137.37 TCPU     3444.64
 TTTTTTTTTTTTTTTTTTTTTTTTTTTTTT MONMO3      TELAPSE      137.96 TCPU     3463.58
 NUMERICALLY INTEGRATED DENSITY    395.9999965126
 TTTTTTTTTTTTTTTTTTTTTTTTTTTTTT NUMDFT      TELAPSE      139.44 TCPU     3510.84
 CYC   4 ETOT(AU) -2.578224162106E+03 DETOT -6.18E-03 tst  7.67E-05 PX  2.36E-02
 TTTTTTTTTTTTTTTTTTTTTTTTTTTTTT DIIS        TELAPSE      139.65 TCPU     3517.51
 DIIS TEST: 0.16254E-01 AT SCF   CYCLE   4 - DIIS ACTIVE - HISTORY:     4 CYCLES
 TTTTTTTTTTTTTTTTTTTTTTTTTTTTTT FDIK        TELAPSE      141.56 TCPU     3578.61
 INSULATING STATE
 TOP OF VALENCE BANDS -    BAND    198; K    4; EIG -2.4045930E-01 AU
 TOP OF VALENCE BANDS -    BAND    198; K    1; EIG -2.4185330E-01 AU
 BOTTOM OF VIRTUAL BANDS - BAND    199; K    1; EIG -9.4017244E-02 AU
 INDIRECT ENERGY BAND GAP:   3.9849 eV
 TTTTTTTTTTTTTTTTTTTTTTTTTTTTTT PDIG        TELAPSE      143.07 TCPU     3585.49
 CHARGE NORMALIZATION FACTOR   1.00000000
 TOTAL ATOMIC CHARGES:
   4.4716492   4.5084663   4.4886021   4.5186942   4.4886208   4.5187921
   4.5186263   4.4885599   4.5184659   4.4884367   4.5082401   4.4713689
   0.8730935   0.8707189   0.8708231   0.8732082   0.8749250   0.8764650
   0.8766181   0.8750672   0.8642116   0.8625510   0.8627693   0.8643046
   0.8642120   0.8625642   0.8627436   0.8642608   0.8749201   0.8764704
   0.8766806   0.8751425   0.8730646   0.8707296   0.8707994   0.8731708
   5.9288607   5.9245853   6.1710210   6.1761116   6.1761751   6.1709917
   6.1738475   6.1608325   6.1604307   6.1732933   5.9246737   5.9291282
   5.9483577   5.9373600   6.1727090   6.1637310   6.1637660   6.1727430
   6.1727854   6.1638843   6.1636972   6.1727053   5.9374813   5.9486811
   5.9290648   5.9247651   6.1738215   6.1607799   6.1604972   6.1733772
   6.1710191   6.1760413   6.1761732   6.1709651   5.9245140   5.9289261
   8.4944289   8.4845011   8.4946037   8.4847056   8.4934476   8.4801185
   8.4846092   8.4946657   8.4801052   8.4932170   8.4848629   8.4949013
 TTTTTTTTTTTTTTTTTTTTTTTTTTTTTT MOQGAD      TELAPSE      143.17 TCPU     3585.58
 TTTTTTTTTTTTTTTTTTTTTTTTTTTTTT SHELLXN     TELAPSE      161.85 TCPU     4181.23
 TTTTTTTTTTTTTTTTTTTTTTTTTTTTTT MONMO3      TELAPSE      162.47 TCPU     4201.16
 NUMERICALLY INTEGRATED DENSITY    395.9999966247
 TTTTTTTTTTTTTTTTTTTTTTTTTTTTTT NUMDFT      TELAPSE      163.97 TCPU     4248.88
 CYC   5 ETOT(AU) -2.578227534560E+03 DETOT -3.37E-03 tst  4.18E-05 PX  1.17E-02
 TTTTTTTTTTTTTTTTTTTTTTTTTTTTTT DIIS        TELAPSE      164.23 TCPU     4255.80
 DIIS TEST: 0.22769E-02 AT SCF   CYCLE   5 - DIIS ACTIVE - HISTORY:     5 CYCLES
 TTTTTTTTTTTTTTTTTTTTTTTTTTTTTT FDIK        TELAPSE      166.13 TCPU     4316.09
 INSULATING STATE
 TOP OF VALENCE BANDS -    BAND    198; K    4; EIG -2.3951805E-01 AU
 TOP OF VALENCE BANDS -    BAND    198; K    1; EIG -2.4088127E-01 AU
 BOTTOM OF VIRTUAL BANDS - BAND    199; K    1; EIG -9.3829875E-02 AU
 INDIRECT ENERGY BAND GAP:   3.9644 eV
 TTTTTTTTTTTTTTTTTTTTTTTTTTTTTT PDIG        TELAPSE      167.66 TCPU     4322.99
 CHARGE NORMALIZATION FACTOR   1.00000000
 TOTAL ATOMIC CHARGES:
   4.4720700   4.5084191   4.4900914   4.5181707   4.4901060   4.5182706
   4.5180760   4.4899685   4.5179131   4.4898503   4.5081736   4.4717761
   0.8745063   0.8725373   0.8726574   0.8746234   0.8767250   0.8774185
   0.8774971   0.8768282   0.8657578   0.8643830   0.8645153   0.8658909
   0.8657645   0.8644088   0.8644799   0.8658403   0.8767254   0.8774251
   0.8775585   0.8768960   0.8744839   0.8725504   0.8726302   0.8745817
   5.9246280   5.9193724   6.1775725   6.1685274   6.1685559   6.1774389
   6.1626498   6.1688910   6.1690264   6.1628185   5.9201615   5.9255225
   5.9554170   5.9161425   6.1779074   6.1575834   6.1578335   6.1780141
   6.1779274   6.1576583   6.1578301   6.1780412   5.9167664   5.9561445
   5.9247937   5.9195167   6.1625995   6.1688206   6.1691118   6.1629373
   6.1775254   6.1684241   6.1685951   6.1774463   5.9200383   5.9253517
   8.5006351   8.4852624   8.5008288   8.4854765   8.4915870   8.4872397
   8.4853656   8.5007930   8.4872976   8.4916709   8.4856314   8.5010505
 TTTTTTTTTTTTTTTTTTTTTTTTTTTTTT MOQGAD      TELAPSE      167.76 TCPU     4323.09
 TTTTTTTTTTTTTTTTTTTTTTTTTTTTTT SHELLXN     TELAPSE      185.64 TCPU     4893.26
 TTTTTTTTTTTTTTTTTTTTTTTTTTTTTT MONMO3      TELAPSE      186.23 TCPU     4911.97
 NUMERICALLY INTEGRATED DENSITY    395.9999967684
 TTTTTTTTTTTTTTTTTTTTTTTTTTTTTT NUMDFT      TELAPSE      187.70 TCPU     4958.97
 CYC   6 ETOT(AU) -2.578228028126E+03 DETOT -4.94E-04 tst  8.37E-06 PX  4.91E-03
 TTTTTTTTTTTTTTTTTTTTTTTTTTTTTT DIIS        TELAPSE      187.95 TCPU     4965.87
 DIIS TEST: 0.37424E-03 AT SCF   CYCLE   6 - DIIS ACTIVE - HISTORY:     6 CYCLES
 TTTTTTTTTTTTTTTTTTTTTTTTTTTTTT FDIK        TELAPSE      189.85 TCPU     5026.45
 INSULATING STATE
 TOP OF VALENCE BANDS -    BAND    198; K    4; EIG -2.3942885E-01 AU
 TOP OF VALENCE BANDS -    BAND    198; K    1; EIG -2.4078484E-01 AU
 BOTTOM OF VIRTUAL BANDS - BAND    199; K    1; EIG -9.3389395E-02 AU
 INDIRECT ENERGY BAND GAP:   3.9739 eV
 TTTTTTTTTTTTTTTTTTTTTTTTTTTTTT PDIG        TELAPSE      191.37 TCPU     5033.34
 CHARGE NORMALIZATION FACTOR   1.00000000
 TOTAL ATOMIC CHARGES:
   4.4713406   4.5083357   4.4901792   4.5179191   4.4901965   4.5180189
   4.5178248   4.4900639   4.5176610   4.4899431   4.5080823   4.4710402
   0.8750577   0.8723743   0.8724853   0.8751672   0.8769627   0.8777043
   0.8777940   0.8770722   0.8660784   0.8649817   0.8651139   0.8662036
   0.8660851   0.8650062   0.8650802   0.8661534   0.8769630   0.8777117
   0.8778544   0.8771399   0.8750363   0.8723875   0.8724578   0.8751248
   5.9214013   5.9238029   6.1731528   6.1724941   6.1725664   6.1730664
   6.1643181   6.1673952   6.1674451   6.1644082   5.9245631   5.9222532
   5.9529904   5.9205281   6.1756322   6.1586492   6.1589086   6.1757580
   6.1756575   6.1587417   6.1588920   6.1757761   5.9211968   5.9537547
   5.9215638   5.9239481   6.1642705   6.1673194   6.1675335   6.1645246
   6.1731040   6.1723985   6.1726028   6.1730714   5.9244435   5.9220821
   8.4992673   8.4853824   8.4994621   8.4855944   8.4917267   8.4857974
   8.4854837   8.4994328   8.4858291   8.4917652   8.4857509   8.4996924
 TTTTTTTTTTTTTTTTTTTTTTTTTTTTTT MOQGAD      TELAPSE      191.46 TCPU     5033.44
 TTTTTTTTTTTTTTTTTTTTTTTTTTTTTT SHELLXN     TELAPSE      209.37 TCPU     5604.42
 TTTTTTTTTTTTTTTTTTTTTTTTTTTTTT MONMO3      TELAPSE      209.95 TCPU     5622.99
 NUMERICALLY INTEGRATED DENSITY    395.9999967223
 TTTTTTTTTTTTTTTTTTTTTTTTTTTTTT NUMDFT      TELAPSE      211.42 TCPU     5669.92
 CYC   7 ETOT(AU) -2.578228105774E+03 DETOT -7.76E-05 tst  8.97E-07 PX  1.17E-03
 TTTTTTTTTTTTTTTTTTTTTTTTTTTTTT DIIS        TELAPSE      211.69 TCPU     5676.82
 DIIS TEST: 0.64895E-04 AT SCF   CYCLE   7 - DIIS ACTIVE - HISTORY:     7 CYCLES
 TTTTTTTTTTTTTTTTTTTTTTTTTTTTTT FDIK        TELAPSE      213.58 TCPU     5736.82
 INSULATING STATE
 TOP OF VALENCE BANDS -    BAND    198; K    4; EIG -2.3956964E-01 AU
 TOP OF VALENCE BANDS -    BAND    198; K    1; EIG -2.4093401E-01 AU
 BOTTOM OF VIRTUAL BANDS - BAND    199; K    1; EIG -9.3543926E-02 AU
 INDIRECT ENERGY BAND GAP:   3.9736 eV
 TTTTTTTTTTTTTTTTTTTTTTTTTTTTTT PDIG        TELAPSE      215.11 TCPU     5743.73
 CHARGE NORMALIZATION FACTOR   1.00000000
 TOTAL ATOMIC CHARGES:
   4.4716073   4.5083512   4.4902021   4.5180091   4.4902195   4.5181088
   4.5179171   4.4900967   4.5177538   4.4899758   4.5081016   4.4713118
   0.8748717   0.8724926   0.8726050   0.8749842   0.8768118   0.8777204
   0.8778170   0.8769224   0.8659330   0.8646803   0.8648274   0.8660546
   0.8659391   0.8647038   0.8647943   0.8660048   0.8768113   0.8777274
   0.8778779   0.8769913   0.8748493   0.8725059   0.8725780   0.8749425
   5.9239902   5.9219395   6.1744694   6.1710694   6.1711271   6.1743794
   6.1648685   6.1666781   6.1666779   6.1648740   5.9225991   5.9247605
   5.9539157   5.9207993   6.1760068   6.1585535   6.1587718   6.1761119
   6.1760395   6.1586489   6.1587508   6.1761239   5.9213670   5.9546009
   5.9241610   5.9220899   6.1648227   6.1666080   6.1667619   6.1649863
   6.1744295   6.1709746   6.1711582   6.1743802   5.9224714   5.9245844
   8.4990338   8.4851241   8.4992247   8.4853363   8.4916557   8.4854448
   8.4852270   8.4992081   8.4854770   8.4916608   8.4854920   8.4994634
 TTTTTTTTTTTTTTTTTTTTTTTTTTTTTT MOQGAD      TELAPSE      215.21 TCPU     5743.83
 TTTTTTTTTTTTTTTTTTTTTTTTTTTTTT SHELLXN     TELAPSE      233.04 TCPU     6312.17
 TTTTTTTTTTTTTTTTTTTTTTTTTTTTTT MONMO3      TELAPSE      233.62 TCPU     6330.90
 NUMERICALLY INTEGRATED DENSITY    395.9999967264
 TTTTTTTTTTTTTTTTTTTTTTTTTTTTTT NUMDFT      TELAPSE      235.10 TCPU     6377.92
 CYC   8 ETOT(AU) -2.578228122041E+03 DETOT -1.63E-05 tst  1.84E-07 PX  6.21E-04
 TTTTTTTTTTTTTTTTTTTTTTTTTTTTTT DIIS        TELAPSE      235.39 TCPU     6384.80
 DIIS TEST: 0.10392E-05 AT SCF   CYCLE   8 - DIIS ACTIVE - HISTORY:     8 CYCLES
 TTTTTTTTTTTTTTTTTTTTTTTTTTTTTT FDIK        TELAPSE      237.30 TCPU     6445.74
 INSULATING STATE
 TOP OF VALENCE BANDS -    BAND    198; K    4; EIG -2.3955783E-01 AU
 TOP OF VALENCE BANDS -    BAND    198; K    1; EIG -2.4092100E-01 AU
 BOTTOM OF VIRTUAL BANDS - BAND    199; K    1; EIG -9.3544123E-02 AU
 INDIRECT ENERGY BAND GAP:   3.9732 eV
 TTTTTTTTTTTTTTTTTTTTTTTTTTTTTT PDIG        TELAPSE      238.82 TCPU     6452.64
 CHARGE NORMALIZATION FACTOR   1.00000000
 TOTAL ATOMIC CHARGES:
   4.4717298   4.5084016   4.4901084   4.5180969   4.4901249   4.5181965
   4.5180055   4.4900004   4.5178425   4.4898803   4.5081543   4.4714359
   0.8748216   0.8724907   0.8726050   0.8749353   0.8768511   0.8776713
   0.8777638   0.8769600   0.8659320   0.8646605   0.8648038   0.8660570
   0.8659383   0.8646844   0.8647702   0.8660071   0.8768509   0.8776782
   0.8778250   0.8770286   0.8747993   0.8725038   0.8725780   0.8748934
   5.9237109   5.9220678   6.1745616   6.1710096   6.1710603   6.1744611
   6.1646731   6.1668834   6.1669132   6.1647157   5.9227560   5.9245079
   5.9535658   5.9210617   6.1759300   6.1585932   6.1588187   6.1760336
   6.1759588   6.1586861   6.1588014   6.1760494   5.9216428   5.9542575
   5.9238795   5.9222168   6.1646276   6.1668133   6.1669966   6.1648281
   6.1745201   6.1709142   6.1710928   6.1744630   5.9226301   5.9243338
   8.4990693   8.4851119   8.4992616   8.4853243   8.4917550   8.4855577
   8.4852135   8.4992394   8.4855946   8.4917770   8.4854787   8.4994955
 TTTTTTTTTTTTTTTTTTTTTTTTTTTTTT MOQGAD      TELAPSE      238.91 TCPU     6452.73
 TTTTTTTTTTTTTTTTTTTTTTTTTTTTTT SHELLXN     TELAPSE      256.81 TCPU     7023.27
 TTTTTTTTTTTTTTTTTTTTTTTTTTTTTT MONMO3      TELAPSE      257.39 TCPU     7041.98
 NUMERICALLY INTEGRATED DENSITY    395.9999967233
 TTTTTTTTTTTTTTTTTTTTTTTTTTTTTT NUMDFT      TELAPSE      258.87 TCPU     7088.98
 CYC   9 ETOT(AU) -2.578228122102E+03 DETOT -6.14E-08 tst  3.25E-09 PX  9.25E-05
 TTTTTTTTTTTTTTTTTTTTTTTTTTTTTT DIIS        TELAPSE      259.18 TCPU     7095.95
 DIIS TEST: 0.20733E-06 AT SCF   CYCLE   9 - DIIS ACTIVE - HISTORY:     9 CYCLES
 TTTTTTTTTTTTTTTTTTTTTTTTTTTTTT FDIK        TELAPSE      261.09 TCPU     7156.65
 INSULATING STATE
 TOP OF VALENCE BANDS -    BAND    198; K    4; EIG -2.3956298E-01 AU
 TOP OF VALENCE BANDS -    BAND    198; K    1; EIG -2.4092699E-01 AU
 BOTTOM OF VIRTUAL BANDS - BAND    199; K    1; EIG -9.3550555E-02 AU
 INDIRECT ENERGY BAND GAP:   3.9732 eV
 TTTTTTTTTTTTTTTTTTTTTTTTTTTTTT PDIG        TELAPSE      262.63 TCPU     7163.55
 CHARGE NORMALIZATION FACTOR   1.00000000
 TOTAL ATOMIC CHARGES:
   4.4717079   4.5083887   4.4901334   4.5180889   4.4901502   4.5181886
   4.5179975   4.4900266   4.5178344   4.4899061   4.5081405   4.4714126
   0.8748419   0.8724687   0.8725816   0.8749545   0.8768262   0.8776788
   0.8777741   0.8769368   0.8659124   0.8646643   0.8648097   0.8660350
   0.8659184   0.8646879   0.8647765   0.8659853   0.8768259   0.8776858
   0.8778351   0.8770056   0.8748194   0.8724818   0.8725545   0.8749127
   5.9237565   5.9220637   6.1744372   6.1711376   6.1711943   6.1743447
   6.1647640   6.1667926   6.1668029   6.1647832   5.9227343   5.9245368
   5.9537270   5.9208571   6.1759917   6.1585696   6.1587924   6.1760980
   6.1760233   6.1586644   6.1587726   6.1761110   5.9214314   5.9544167
   5.9239265   5.9222137   6.1647181   6.1667223   6.1668868   6.1648958
   6.1743965   6.1710429   6.1712259   6.1743459   5.9226074   5.9243611
   8.4990799   8.4851450   8.4992712   8.4853571   8.4917298   8.4855132
   8.4852477   8.4992528   8.4855465   8.4917415   8.4855128   8.4995084
 TTTTTTTTTTTTTTTTTTTTTTTTTTTTTT MOQGAD      TELAPSE      262.72 TCPU     7163.64
 TTTTTTTTTTTTTTTTTTTTTTTTTTTTTT SHELLXN     TELAPSE      280.65 TCPU     7735.06
 +++ ENERGIES IN A.U. +++
 ::: EXT EL-POLE                                  -2.8812979123621E+03
 ::: EXT EL-SPHEROPOLE                             3.2740840192171E+01
 ::: BIELET ZONE E-E                               4.3169541793184E+03
 ::: TOTAL E-E                                     1.4683971071484E+03
 ::: TOTAL E-N + N-E                              -6.5880101593220E+03
 ::: TOTAL N-N                                     2.4895129902403E+02
 ::: KINETIC ENERGY                                2.5598699381938E+03
 ::: PSEUDO TOTAL   ENERGY                        -2.3107918149557E+03
 ::: VIRIAL COEFFICIENT                            1.0511384563046E+00
 TTTTTTTTTTTTTTTTTTTTTTTTTTTTTT MONMO3      TELAPSE      281.23 TCPU     7753.78
 NUMERICALLY INTEGRATED DENSITY    395.9999967240
 EXCHANGE ENERGY: -0.252045425207E+03  CORRELATION ENERGY: -0.153908819408E+02
 TTTTTTTTTTTTTTTTTTTTTTTTTTTTTT NUMDFT      TELAPSE      282.70 TCPU     7800.74
 CYC  10 ETOT(AU) -2.578228122103E+03 DETOT -9.66E-10 tst  6.83E-10 PX  9.25E-05

 == SCF ENDED - CONVERGENCE ON ENERGY      E(AU) -2.5782281221033E+03 CYCLES  10


 ENERGY EXPRESSION=HARTREE+FOCK EXCH*0.00000+(HSESOL     EXCH)*1.00000+PBESOL     CORR


 TOTAL ENERGY(DFT)(AU)( 10) -2.5782281221033E+03 DE-9.7E-10 tester 6.8E-10
 TTTTTTTTTTTTTTTTTTTTTTTTTTTTTT EDFT        TELAPSE      282.70 TCPU     7800.75
 
 INFORMATION **** DFTD3 ENERGY **** CALCULATE DFTD3 ENERGY

           DFT-D V3(BJ)
 DF                                         hsesol3c  
 parameters
 s6       :    1.0000
 s8       :    0.0000
 a1       :    0.5196
 a2       :    4.9385
 k1 k3    :   16.0000   -4.0000
 Cutoff   :   50.2022
 CN-Cutoff:   21.1671
 ABC-Cutoff:   21.1671
 
 Edisp /kcal,au:   -53.3380 -0.08499956

 E6    /kcal :   -56.8870
 E8    /kcal :     0.0000
 E6(ABC) "   :   3.548950
 
 INFORMATION **** DFTD3 ENERGY **** NORMAL TERMINATION OF DFTD3 MODULE

 GCP ENERGY CALCULATION
  level        hsesol3c            basis:hsesol3c
  Nbf            948
  Atoms           84

  Parameters: 
  sigma     1.0000
  eta       1.4281
  alpha     0.2936
  beta      1.9467

  dmp_scal      4.0000
  dmp_exp       6.0000
 cutoffs: 
   distance [bohr] 60.0
   noise    [a.u.] 2.2E-16
 SR-damping   T
 ** gCP correction **
  Egcp:        0.1665024876 / (a.u.) ||     104.4819 / (kcal/mol)
 INFORMATION **** GCP **** NORMAL TERMINATION OF GCP MODULE

 *******************************************************************************

 DFT-D3-GCP DISPERSION AND COUNTERPOISE CORRECTION

 D3 DISPERSION ENERGY (AU)      -8.4999557026268E-02
 GCP ENERGY (AU)                 1.6650248759100E-01
 TOTAL ENERGY + DISP + GCP (AU) -2.5781466191727E+03

 *******************************************************************************

 EIGENVECTORS IN FORTRAN UNIT  8
 TTTTTTTTTTTTTTTTTTTTTTTTTTTTTT END         TELAPSE      286.02 TCPU     7809.96
 EEEEEEEEEE TERMINATION  DATE 19 02 2026 TIME 20:15:00.9
