 Default number of threads is:           32

         
 *******************************************************************************
 *                                                                             *
 *                               CRYSTAL23                                     *
 *                      public : 1.0.1 - October 2022                          *
 *                       HTTP://WWW.CRYSTAL.UNITO.IT                           *
 *                                                                             *
 *                              MAIN AUTHORS                                   *
 *                                                                             *
 *  R. DOVESI(1,11), V.R. SAUNDERS(2), C. ROETTI(1,11), R. ORLANDO(1,11),      *
 *  C.M. ZICOVICH-WILSON(1,3), F. PASCALE(4), B. CIVALLERI(1,11),              *
 *  K. DOLL(5), N.M. HARRISON(6), I.J. BUSH(7), Ph. D'ARCO(8),                 *
 *  M. LLUNELL(9), M. CAUSA'(10), Y. NOEL(8), L. MASCHIO(1,11), A. ERBA(1,11)  *
 *  M. RE'RAT(14), S. CASASSA(1,11), B.G. SEARLE(2), J.K. DESMARAIS(1)         *
 *                                                                             *
 *        CONTRIBUTIONS TO THE CODE HAVE ALSO BEEN GIVEN BY                    *
 *                                                                             *
 *  M. FERRABONE(1,11), M. DE LA PIERRE(1,11), M. FERRERO(1,11),               *
 *  J. BAIMA(1,11), E. ALBANESE(1,11), M.F. PEINTINGER(12), R. BAST(13),       *
 *  B. KIRTMAN(15), V. LACIVITA(1,11), R. DEMICHELIS(1,16)                     *
 *  G. BRANDEBURG(17), S. SALUSTRO(1,11), G. SANSONE(1,11)                     *
 *  M.T. RUGGIERO(18), L.E. DAGA(1), L. DONA'(1), A. COSSARD(1)                *
 *                                                                             *
 * (1) THEORETICAL CHEMISTRY GROUP - UNIVERSITA' DI TORINO - TORINO (ITALY)    *
 * (2) SCIENTIFIC COMPUTING DEPARTMENT - STFC DARESBURY (UK)                   *
 * (3) UNIVERSIDAD AUTONOMA DEL ESTADO DE MORELOS - CUERNAVACA (MEXICO)        *
 * (4) UNIVERSITE' DE LORRAINE - NANCY (FRANCE)                                *
 * (5) UNIVERSITAET STUTTGART- STUTTGART (GERMANY)                             *
 * (6) IMPERIAL COLLEGE - LONDON (UK)                                          *
 * (7) SCIENTIFIC COMPUTING DEPARTMENT - STFC RAL (UK)                         *
 * (8) UPMC - SORBONNE UNIVERSITES - PARIS (FRANCE)                            *
 * (9) UNIVERSIDAD DE BARCELONA - BARCELONA (SPAIN)                            *
 *(10) UNIVERSITA' DI NAPOLI "FEDERICO II" - NAPOLI (ITALY)                    *
 *(11) NIS - NANOSTRUCTURED INTERFACES AND SURFACES - TORINO (ITALY)           *
 *(12) MPI FUER CHEMISCHE ENERGIEKONVERSION - MUELHEIM AN DER RUHR (GERMANY)   *
 *(13) UNIVERSITY OF TROMSO - TROMSO (NORWAY)                                  *
 *(14) UNIVERSITE' DE PAU ET DES PAYS DE L'ADOUR - PAU (FRANCE)                *
 *(15) UNIVERSITY OF CALIFORNIA SANTA BARBARA - SANTA BARBARA (USA)            *
 *(16) CURTIN UNIVERSITY - PERTH (AUSTRALIA)                                   *
 *(17) UNIVERSITY COLLEGE LONDON - LONDON (UK)                                 *
 *(18) UNIVERSITY OF VERMONT - BURLINGTON (USA)                                *
 *                                                                             *
 *******************************************************************************
 EEEEEEEEEE STARTING  DATE 19 02 2026 TIME 20:06:12.4
 cof-1_z35_L000_serr                                                             

 CRYSTAL CALCULATION
 (INPUT ACCORDING TO THE INTERNATIONAL TABLES FOR X-RAY CRYSTALLOGRAPHY)
 CRYSTAL FAMILY                       :  TRICLINIC   
 CRYSTAL CLASS  (GROTH - 1921)        :  TRICLINIC PEDIAL                     

 SPACE GROUP (NONCENTROSYMMETRIC)     :  P 1             

 LATTICE PARAMETERS  (ANGSTROMS AND DEGREES) - CONVENTIONAL CELL
        A           B           C        ALPHA        BETA       GAMMA
    15.02361    15.02392     7.00000    90.00032    89.99994   119.99596


 NUMBER OF IRREDUCIBLE ATOMS IN THE CONVENTIONAL CELL:   84

 INPUT COORDINATES

 ATOM AT. N.              COORDINATES
   1   5     6.136805400000E-01  2.273182200000E-01  2.506823900000E-01
   2   5     6.136805400000E-01  2.273182200000E-01  7.506823900000E-01
   3   5     7.727362000000E-01  3.863778800000E-01  2.506824000000E-01
   4   5     7.727362000000E-01  3.863778800000E-01  7.506824000000E-01
   5   5     6.136762700000E-01  3.863606700000E-01  2.492476500000E-01
   6   5     6.136762700000E-01  3.863606700000E-01  7.492476600000E-01
   7   5     2.272552500000E-01  6.136332200000E-01  2.506824000000E-01
   8   5     2.272552500000E-01  6.136332200000E-01  7.506824000000E-01
   9   5     3.863632200000E-01  6.136124500000E-01  2.506823900000E-01
  10   5     3.863632200000E-01  6.136124500000E-01  7.506823900000E-01
  11   5     3.863435000000E-01  7.727516500000E-01  2.492476600000E-01
  12   5     3.863435000000E-01  7.727516500000E-01  7.492476600000E-01
  13   1     9.030436200000E-01  3.089300500000E-01  2.477078900000E-01
  14   1     9.030436200000E-01  3.089300500000E-01  7.477078900000E-01
  15   1     9.663453000000E-02  6.910534400000E-01  2.472530400000E-01
  16   1     9.663453000000E-02  6.910534400000E-01  7.472530300000E-01
  17   1     9.029714200000E-01  5.940724300000E-01  2.471830300000E-01
  18   1     9.029714200000E-01  5.940724300000E-01  7.471830300000E-01
  19   1     9.673618000000E-02  4.056849400000E-01  2.472004900000E-01
  20   1     9.673618000000E-02  4.056849400000E-01  7.472004900000E-01
  21   1     6.910324000000E-01  9.700412000000E-02  2.522921300000E-01
  22   1     6.910324000000E-01  9.700412000000E-02  7.522921300000E-01
  23   1     3.089297200000E-01  9.034373100000E-01  2.527470200000E-01
  24   1     3.089297200000E-01  9.034373100000E-01  7.527470100000E-01
  25   1     4.058699900000E-01  9.704998000000E-02  2.528170600000E-01
  26   1     4.058699900000E-01  9.704998000000E-02  7.528170600000E-01
  27   1     5.943122100000E-01  9.033473200000E-01  2.527994800000E-01
  28   1     5.943122100000E-01  9.033473200000E-01  7.527994800000E-01
  29   1     6.910727400000E-01  5.940542100000E-01  2.477079200000E-01
  30   1     6.910727400000E-01  5.940542100000E-01  7.477079100000E-01
  31   1     3.089618300000E-01  4.056093300000E-01  2.472530100000E-01
  32   1     3.089618300000E-01  4.056093300000E-01  7.472530100000E-01
  33   1     4.058405700000E-01  3.088232500000E-01  2.471829700000E-01
  34   1     4.058405700000E-01  3.088232500000E-01  7.471829700000E-01
  35   1     5.942908800000E-01  6.909579300000E-01  2.472005500000E-01
  36   1     5.942908800000E-01  6.909579300000E-01  7.472005500000E-01
  37   6     8.918903100000E-01  4.459436900000E-01  2.491951600000E-01
  38   6     8.918903100000E-01  4.459436900000E-01  7.491951600000E-01
  39   6     9.464891100000E-01  3.927856300000E-01  2.477778800000E-01
  40   6     9.464891100000E-01  3.927856300000E-01  7.477778800000E-01
  41   6     5.338812000000E-02  6.071853000000E-01  2.476554500000E-01
  42   6     5.338812000000E-02  6.071853000000E-01  7.476554500000E-01
  43   6     9.464521100000E-01  5.536921900000E-01  2.480228800000E-01
  44   6     9.464521100000E-01  5.536921900000E-01  7.480228800000E-01
  45   6     5.342634000000E-02  4.462499700000E-01  2.470780200000E-01
  46   6     5.342634000000E-02  4.462499700000E-01  7.470780200000E-01
  47   6     1.080358900000E-01  5.540356300000E-01  2.480403700000E-01
  48   6     1.080358900000E-01  5.540356300000E-01  7.480403600000E-01
  49   6     5.540394200000E-01  1.081684600000E-01  2.508048800000E-01
  50   6     5.540394200000E-01  1.081684600000E-01  7.508048800000E-01
  51   6     6.071778500000E-01  5.355594000000E-02  2.522221300000E-01
  52   6     6.071778500000E-01  5.355594000000E-02  7.522221300000E-01
  53   6     3.927986700000E-01  9.466631600000E-01  2.523446000000E-01
  54   6     3.927986700000E-01  9.466631600000E-01  7.523446000000E-01
  55   6     4.462875800000E-01  5.360286000000E-02  2.519771800000E-01
  56   6     4.462875800000E-01  5.360286000000E-02  7.519771800000E-01
  57   6     5.537168500000E-01  9.466235600000E-01  2.529219900000E-01
  58   6     5.537168500000E-01  9.466235600000E-01  7.529219800000E-01
  59   6     4.459279100000E-01  8.919920600000E-01  2.519596600000E-01
  60   6     4.459279100000E-01  8.919920600000E-01  7.519596600000E-01
  61   6     5.540448700000E-01  4.458745500000E-01  2.491951600000E-01
  62   6     5.540448700000E-01  4.458745500000E-01  7.491951600000E-01
  63   6     6.072102200000E-01  5.536257800000E-01  2.477779100000E-01
  64   6     6.072102200000E-01  5.536257800000E-01  7.477779200000E-01
  65   6     3.928233700000E-01  4.461720300000E-01  2.476554200000E-01
  66   6     3.928233700000E-01  4.461720300000E-01  7.476554200000E-01
  67   6     4.462872600000E-01  3.926899900000E-01  2.480228400000E-01
  68   6     4.462872600000E-01  3.926899900000E-01  7.480228400000E-01
  69   6     5.537429600000E-01  6.070980000000E-01  2.470780500000E-01
  70   6     5.537429600000E-01  6.070980000000E-01  7.470780500000E-01
  71   6     4.459599800000E-01  5.539582300000E-01  2.480403700000E-01
  72   6     4.459599800000E-01  5.539582300000E-01  7.480403600000E-01
  73   8     5.607366800000E-01  2.803706300000E-01  2.496325800000E-01
  74   8     5.607366800000E-01  2.803706300000E-01  7.496325800000E-01
  75   8     7.196817000000E-01  2.803783300000E-01  2.526595300000E-01
  76   8     7.196817000000E-01  2.803783300000E-01  7.526595400000E-01
  77   8     7.196794200000E-01  4.393234600000E-01  2.480928700000E-01
  78   8     7.196794200000E-01  4.393234600000E-01  7.480928700000E-01
  79   8     2.803245100000E-01  7.196511100000E-01  2.496325900000E-01
  80   8     2.803245100000E-01  7.196511100000E-01  7.496325900000E-01
  81   8     2.803439700000E-01  5.606956100000E-01  2.526595300000E-01
  82   8     2.803439700000E-01  5.606956100000E-01  7.526595300000E-01
  83   8     4.392638400000E-01  7.196354200000E-01  2.480928600000E-01
  84   8     4.392638400000E-01  7.196354200000E-01  7.480928600000E-01

 *******************************************************************************

 << INFORMATION >>: FROM NOW ON, ALL COORDINATES REFER TO THE PRIMITIVE CELL

 *******************************************************************************

 LATTICE PARAMETERS  (ANGSTROMS AND DEGREES) - PRIMITIVE CELL
       A          B          C        ALPHA      BETA     GAMMA        VOLUME
   15.02361   15.02392    7.00000    90.00032  89.99994 119.99596   1368.370836

 COORDINATES OF THE EQUIVALENT ATOMS (FRACTIONAL UNITS)

 N. ATOM EQUIV AT. N.          X                  Y                  Z

   1   1   1    5 B    -3.86319460000E-01  2.27318220000E-01  2.50682390000E-01

   2   2   1    5 B    -3.86319460000E-01  2.27318220000E-01 -2.49317610000E-01

   3   3   1    5 B    -2.27263800000E-01  3.86377880000E-01  2.50682400000E-01

   4   4   1    5 B    -2.27263800000E-01  3.86377880000E-01 -2.49317600000E-01

   5   5   1    5 B    -3.86323730000E-01  3.86360670000E-01  2.49247650000E-01

   6   6   1    5 B    -3.86323730000E-01  3.86360670000E-01 -2.50752340000E-01

   7   7   1    5 B     2.27255250000E-01 -3.86366780000E-01  2.50682400000E-01

   8   8   1    5 B     2.27255250000E-01 -3.86366780000E-01 -2.49317600000E-01

   9   9   1    5 B     3.86363220000E-01 -3.86387550000E-01  2.50682390000E-01

  10  10   1    5 B     3.86363220000E-01 -3.86387550000E-01 -2.49317610000E-01

  11  11   1    5 B     3.86343500000E-01 -2.27248350000E-01  2.49247660000E-01

  12  12   1    5 B     3.86343500000E-01 -2.27248350000E-01 -2.50752340000E-01

  13  13   1    1 H    -9.69563800000E-02  3.08930050000E-01  2.47707890000E-01

  14  14   1    1 H    -9.69563800000E-02  3.08930050000E-01 -2.52292110000E-01

  15  15   1    1 H     9.66345300000E-02 -3.08946560000E-01  2.47253040000E-01

  16  16   1    1 H     9.66345300000E-02 -3.08946560000E-01 -2.52746970000E-01

  17  17   1    1 H    -9.70285800000E-02 -4.05927570000E-01  2.47183030000E-01

  18  18   1    1 H    -9.70285800000E-02 -4.05927570000E-01 -2.52816970000E-01

  19  19   1    1 H     9.67361800000E-02  4.05684940000E-01  2.47200490000E-01

  20  20   1    1 H     9.67361800000E-02  4.05684940000E-01 -2.52799510000E-01

  21  21   1    1 H    -3.08967600000E-01  9.70041200000E-02  2.52292130000E-01

  22  22   1    1 H    -3.08967600000E-01  9.70041200000E-02 -2.47707870000E-01

  23  23   1    1 H     3.08929720000E-01 -9.65626900000E-02  2.52747020000E-01

  24  24   1    1 H     3.08929720000E-01 -9.65626900000E-02 -2.47252990000E-01

  25  25   1    1 H     4.05869990000E-01  9.70499800000E-02  2.52817060000E-01

  26  26   1    1 H     4.05869990000E-01  9.70499800000E-02 -2.47182940000E-01

  27  27   1    1 H    -4.05687790000E-01 -9.66526800000E-02  2.52799480000E-01

  28  28   1    1 H    -4.05687790000E-01 -9.66526800000E-02 -2.47200520000E-01

  29  29   1    1 H    -3.08927260000E-01 -4.05945790000E-01  2.47707920000E-01

  30  30   1    1 H    -3.08927260000E-01 -4.05945790000E-01 -2.52292090000E-01

  31  31   1    1 H     3.08961830000E-01  4.05609330000E-01  2.47253010000E-01

  32  32   1    1 H     3.08961830000E-01  4.05609330000E-01 -2.52746990000E-01

  33  33   1    1 H     4.05840570000E-01  3.08823250000E-01  2.47182970000E-01

  34  34   1    1 H     4.05840570000E-01  3.08823250000E-01 -2.52817030000E-01

  35  35   1    1 H    -4.05709120000E-01 -3.09042070000E-01  2.47200550000E-01

  36  36   1    1 H    -4.05709120000E-01 -3.09042070000E-01 -2.52799450000E-01

  37  37   1    6 C    -1.08109690000E-01  4.45943690000E-01  2.49195160000E-01

  38  38   1    6 C    -1.08109690000E-01  4.45943690000E-01 -2.50804840000E-01

  39  39   1    6 C    -5.35108900000E-02  3.92785630000E-01  2.47777880000E-01

  40  40   1    6 C    -5.35108900000E-02  3.92785630000E-01 -2.52222120000E-01

  41  41   1    6 C     5.33881200000E-02 -3.92814700000E-01  2.47655450000E-01

  42  42   1    6 C     5.33881200000E-02 -3.92814700000E-01 -2.52344550000E-01

  43  43   1    6 C    -5.35478900000E-02 -4.46307810000E-01  2.48022880000E-01

  44  44   1    6 C    -5.35478900000E-02 -4.46307810000E-01 -2.51977120000E-01

  45  45   1    6 C     5.34263400000E-02  4.46249970000E-01  2.47078020000E-01

  46  46   1    6 C     5.34263400000E-02  4.46249970000E-01 -2.52921980000E-01

  47  47   1    6 C     1.08035890000E-01 -4.45964370000E-01  2.48040370000E-01

  48  48   1    6 C     1.08035890000E-01 -4.45964370000E-01 -2.51959640000E-01

  49  49   1    6 C    -4.45960580000E-01  1.08168460000E-01  2.50804880000E-01

  50  50   1    6 C    -4.45960580000E-01  1.08168460000E-01 -2.49195120000E-01

  51  51   1    6 C    -3.92822150000E-01  5.35559400000E-02  2.52222130000E-01

  52  52   1    6 C    -3.92822150000E-01  5.35559400000E-02 -2.47777870000E-01

  53  53   1    6 C     3.92798670000E-01 -5.33368400000E-02  2.52344600000E-01

  54  54   1    6 C     3.92798670000E-01 -5.33368400000E-02 -2.47655400000E-01

  55  55   1    6 C     4.46287580000E-01  5.36028600000E-02  2.51977180000E-01

  56  56   1    6 C     4.46287580000E-01  5.36028600000E-02 -2.48022820000E-01

  57  57   1    6 C    -4.46283150000E-01 -5.33764400000E-02  2.52921990000E-01

  58  58   1    6 C    -4.46283150000E-01 -5.33764400000E-02 -2.47078020000E-01

  59  59   1    6 C     4.45927910000E-01 -1.08007940000E-01  2.51959660000E-01

  60  60   1    6 C     4.45927910000E-01 -1.08007940000E-01 -2.48040340000E-01

  61  61   1    6 C    -4.45955130000E-01  4.45874550000E-01  2.49195160000E-01

  62  62   1    6 C    -4.45955130000E-01  4.45874550000E-01 -2.50804840000E-01

  63  63   1    6 C    -3.92789780000E-01 -4.46374220000E-01  2.47777910000E-01

  64  64   1    6 C    -3.92789780000E-01 -4.46374220000E-01 -2.52222080000E-01

  65  65   1    6 C     3.92823370000E-01  4.46172030000E-01  2.47655420000E-01

  66  66   1    6 C     3.92823370000E-01  4.46172030000E-01 -2.52344580000E-01

  67  67   1    6 C     4.46287260000E-01  3.92689990000E-01  2.48022840000E-01

  68  68   1    6 C     4.46287260000E-01  3.92689990000E-01 -2.51977160000E-01

  69  69   1    6 C    -4.46257040000E-01 -3.92902000000E-01  2.47078050000E-01

  70  70   1    6 C    -4.46257040000E-01 -3.92902000000E-01 -2.52921950000E-01

  71  71   1    6 C     4.45959980000E-01 -4.46041770000E-01  2.48040370000E-01

  72  72   1    6 C     4.45959980000E-01 -4.46041770000E-01 -2.51959640000E-01

  73  73   1    8 O    -4.39263320000E-01  2.80370630000E-01  2.49632580000E-01

  74  74   1    8 O    -4.39263320000E-01  2.80370630000E-01 -2.50367420000E-01

  75  75   1    8 O    -2.80318300000E-01  2.80378330000E-01  2.52659530000E-01

  76  76   1    8 O    -2.80318300000E-01  2.80378330000E-01 -2.47340460000E-01

  77  77   1    8 O    -2.80320580000E-01  4.39323460000E-01  2.48092870000E-01

  78  78   1    8 O    -2.80320580000E-01  4.39323460000E-01 -2.51907130000E-01

  79  79   1    8 O     2.80324510000E-01 -2.80348890000E-01  2.49632590000E-01

  80  80   1    8 O     2.80324510000E-01 -2.80348890000E-01 -2.50367410000E-01

  81  81   1    8 O     2.80343970000E-01 -4.39304390000E-01  2.52659530000E-01

  82  82   1    8 O     2.80343970000E-01 -4.39304390000E-01 -2.47340470000E-01

  83  83   1    8 O     4.39263840000E-01 -2.80364580000E-01  2.48092860000E-01

  84  84   1    8 O     4.39263840000E-01 -2.80364580000E-01 -2.51907140000E-01

 NUMBER OF SYMMETRY OPERATORS         :    1
 *******************************************************************************
 * GEOMETRY EDITING - INPUT COORDINATES ARE GIVEN IN ANGSTROM         
 *******************************************************************************

 GCALCO - MAX INDICES DIRECT LATTICE VECTOR    11    11    22
 NO.OF VECTORS CREATED 6999 STARS 3500 RMAX   248.91122 BOHR

 GEOMETRY FOR WAVE FUNCTION - DIMENSIONALITY OF THE SYSTEM    3
 (NON PERIODIC DIRECTION: LATTICE PARAMETER FORMALLY SET TO 500)
 *******************************************************************************
 LATTICE PARAMETERS (ANGSTROMS AND DEGREES) - BOHR = 0.5291772083 ANGSTROM
 PRIMITIVE CELL - CENTRING CODE 1/0 VOLUME=  1368.370836 - DENSITY  0.947 g/cm^3
         A              B              C           ALPHA      BETA       GAMMA 
    15.02361100    15.02391600     7.00000000    90.000323  89.999944 119.995964
 *******************************************************************************
 ATOMS IN THE ASYMMETRIC UNIT   84 - ATOMS IN THE UNIT CELL:   84
     ATOM                 X/A                 Y/B                 Z/C    
 *******************************************************************************
      1 T   5 B    -3.863194600000E-01  2.273182200000E-01  2.506823900000E-01
      2 T   5 B    -3.863194600000E-01  2.273182200000E-01 -2.493176100000E-01
      3 T   5 B    -2.272638000000E-01  3.863778800000E-01  2.506824000000E-01
      4 T   5 B    -2.272638000000E-01  3.863778800000E-01 -2.493176000000E-01
      5 T   5 B    -3.863237300000E-01  3.863606700000E-01  2.492476500000E-01
      6 T   5 B    -3.863237300000E-01  3.863606700000E-01 -2.507523400000E-01
      7 T   5 B     2.272552500000E-01 -3.863667800000E-01  2.506824000000E-01
      8 T   5 B     2.272552500000E-01 -3.863667800000E-01 -2.493176000000E-01
      9 T   5 B     3.863632200000E-01 -3.863875500000E-01  2.506823900000E-01
     10 T   5 B     3.863632200000E-01 -3.863875500000E-01 -2.493176100000E-01
     11 T   5 B     3.863435000000E-01 -2.272483500000E-01  2.492476600000E-01
     12 T   5 B     3.863435000000E-01 -2.272483500000E-01 -2.507523400000E-01
     13 T   1 H    -9.695638000000E-02  3.089300500000E-01  2.477078900000E-01
     14 T   1 H    -9.695638000000E-02  3.089300500000E-01 -2.522921100000E-01
     15 T   1 H     9.663453000000E-02 -3.089465600000E-01  2.472530400000E-01
     16 T   1 H     9.663453000000E-02 -3.089465600000E-01 -2.527469700000E-01
     17 T   1 H    -9.702858000000E-02 -4.059275700000E-01  2.471830300000E-01
     18 T   1 H    -9.702858000000E-02 -4.059275700000E-01 -2.528169700000E-01
     19 T   1 H     9.673618000000E-02  4.056849400000E-01  2.472004900000E-01
     20 T   1 H     9.673618000000E-02  4.056849400000E-01 -2.527995100000E-01
     21 T   1 H    -3.089676000000E-01  9.700412000000E-02  2.522921300000E-01
     22 T   1 H    -3.089676000000E-01  9.700412000000E-02 -2.477078700000E-01
     23 T   1 H     3.089297200000E-01 -9.656269000000E-02  2.527470200000E-01
     24 T   1 H     3.089297200000E-01 -9.656269000000E-02 -2.472529900000E-01
     25 T   1 H     4.058699900000E-01  9.704998000000E-02  2.528170600000E-01
     26 T   1 H     4.058699900000E-01  9.704998000000E-02 -2.471829400000E-01
     27 T   1 H    -4.056877900000E-01 -9.665268000000E-02  2.527994800000E-01
     28 T   1 H    -4.056877900000E-01 -9.665268000000E-02 -2.472005200000E-01
     29 T   1 H    -3.089272600000E-01 -4.059457900000E-01  2.477079200000E-01
     30 T   1 H    -3.089272600000E-01 -4.059457900000E-01 -2.522920900000E-01
     31 T   1 H     3.089618300000E-01  4.056093300000E-01  2.472530100000E-01
     32 T   1 H     3.089618300000E-01  4.056093300000E-01 -2.527469900000E-01
     33 T   1 H     4.058405700000E-01  3.088232500000E-01  2.471829700000E-01
     34 T   1 H     4.058405700000E-01  3.088232500000E-01 -2.528170300000E-01
     35 T   1 H    -4.057091200000E-01 -3.090420700000E-01  2.472005500000E-01
     36 T   1 H    -4.057091200000E-01 -3.090420700000E-01 -2.527994500000E-01
     37 T   6 C    -1.081096900000E-01  4.459436900000E-01  2.491951600000E-01
     38 T   6 C    -1.081096900000E-01  4.459436900000E-01 -2.508048400000E-01
     39 T   6 C    -5.351089000000E-02  3.927856300000E-01  2.477778800000E-01
     40 T   6 C    -5.351089000000E-02  3.927856300000E-01 -2.522221200000E-01
     41 T   6 C     5.338812000000E-02 -3.928147000000E-01  2.476554500000E-01
     42 T   6 C     5.338812000000E-02 -3.928147000000E-01 -2.523445500000E-01
     43 T   6 C    -5.354789000000E-02 -4.463078100000E-01  2.480228800000E-01
     44 T   6 C    -5.354789000000E-02 -4.463078100000E-01 -2.519771200000E-01
     45 T   6 C     5.342634000000E-02  4.462499700000E-01  2.470780200000E-01
     46 T   6 C     5.342634000000E-02  4.462499700000E-01 -2.529219800000E-01
     47 T   6 C     1.080358900000E-01 -4.459643700000E-01  2.480403700000E-01
     48 T   6 C     1.080358900000E-01 -4.459643700000E-01 -2.519596400000E-01
     49 T   6 C    -4.459605800000E-01  1.081684600000E-01  2.508048800000E-01
     50 T   6 C    -4.459605800000E-01  1.081684600000E-01 -2.491951200000E-01
     51 T   6 C    -3.928221500000E-01  5.355594000000E-02  2.522221300000E-01
     52 T   6 C    -3.928221500000E-01  5.355594000000E-02 -2.477778700000E-01
     53 T   6 C     3.927986700000E-01 -5.333684000000E-02  2.523446000000E-01
     54 T   6 C     3.927986700000E-01 -5.333684000000E-02 -2.476554000000E-01
     55 T   6 C     4.462875800000E-01  5.360286000000E-02  2.519771800000E-01
     56 T   6 C     4.462875800000E-01  5.360286000000E-02 -2.480228200000E-01
     57 T   6 C    -4.462831500000E-01 -5.337644000000E-02  2.529219900000E-01
     58 T   6 C    -4.462831500000E-01 -5.337644000000E-02 -2.470780200000E-01
     59 T   6 C     4.459279100000E-01 -1.080079400000E-01  2.519596600000E-01
     60 T   6 C     4.459279100000E-01 -1.080079400000E-01 -2.480403400000E-01
     61 T   6 C    -4.459551300000E-01  4.458745500000E-01  2.491951600000E-01
     62 T   6 C    -4.459551300000E-01  4.458745500000E-01 -2.508048400000E-01
     63 T   6 C    -3.927897800000E-01 -4.463742200000E-01  2.477779100000E-01
     64 T   6 C    -3.927897800000E-01 -4.463742200000E-01 -2.522220800000E-01
     65 T   6 C     3.928233700000E-01  4.461720300000E-01  2.476554200000E-01
     66 T   6 C     3.928233700000E-01  4.461720300000E-01 -2.523445800000E-01
     67 T   6 C     4.462872600000E-01  3.926899900000E-01  2.480228400000E-01
     68 T   6 C     4.462872600000E-01  3.926899900000E-01 -2.519771600000E-01
     69 T   6 C    -4.462570400000E-01 -3.929020000000E-01  2.470780500000E-01
     70 T   6 C    -4.462570400000E-01 -3.929020000000E-01 -2.529219500000E-01
     71 T   6 C     4.459599800000E-01 -4.460417700000E-01  2.480403700000E-01
     72 T   6 C     4.459599800000E-01 -4.460417700000E-01 -2.519596400000E-01
     73 T   8 O    -4.392633200000E-01  2.803706300000E-01  2.496325800000E-01
     74 T   8 O    -4.392633200000E-01  2.803706300000E-01 -2.503674200000E-01
     75 T   8 O    -2.803183000000E-01  2.803783300000E-01  2.526595300000E-01
     76 T   8 O    -2.803183000000E-01  2.803783300000E-01 -2.473404600000E-01
     77 T   8 O    -2.803205800000E-01  4.393234600000E-01  2.480928700000E-01
     78 T   8 O    -2.803205800000E-01  4.393234600000E-01 -2.519071300000E-01
     79 T   8 O     2.803245100000E-01 -2.803488900000E-01  2.496325900000E-01
     80 T   8 O     2.803245100000E-01 -2.803488900000E-01 -2.503674100000E-01
     81 T   8 O     2.803439700000E-01 -4.393043900000E-01  2.526595300000E-01
     82 T   8 O     2.803439700000E-01 -4.393043900000E-01 -2.473404700000E-01
     83 T   8 O     4.392638400000E-01 -2.803645800000E-01  2.480928600000E-01
     84 T   8 O     4.392638400000E-01 -2.803645800000E-01 -2.519071400000E-01

 T = ATOM BELONGING TO THE ASYMMETRIC UNIT

 ****    1 SYMMOPS - TRANSLATORS IN FRACTIONAL UNITS
 **** MATRICES AND TRANSLATORS IN THE CRYSTALLOGRAPHIC REFERENCE FRAME
   V INV                    ROTATION MATRICES                   TRANSLATORS
   1   1  1.00  0.00  0.00  0.00  1.00  0.00  0.00  0.00  1.00  0.00  0.00  0.00

 DIRECT LATTICE VECTORS CARTESIAN COMPONENTS (ANGSTROM)
          X                    Y                    Z
   0.130113578931E+02  -0.751088897922E+01   0.000000000000E+00
   0.000000000000E+00   0.150239160000E+02   0.000000000000E+00
  -0.148798465207E-04  -0.394618943860E-04   0.699999999987E+01


 CARTESIAN COORDINATES - PRIMITIVE CELL
 *******************************************************************************
 *      ATOM          X(ANGSTROM)         Y(ANGSTROM)         Z(ANGSTROM)
 *******************************************************************************
    1     5 B    -5.026544485228E+00  6.316802524718E+00  1.754776729968E+00
    2     5 B    -5.026537045305E+00  6.316822255666E+00 -1.745223269968E+00
    3     5 B    -2.957014368052E+00  7.511852091771E+00  1.754776799968E+00
    4     5 B    -2.957006928128E+00  7.511871822718E+00 -1.745223199968E+00
    5     5 B    -5.026600022377E+00 -6.317640937934E+00  1.744733549968E+00
    6     5 B    -5.026592582454E+00 -6.317621206987E+00 -1.755266379968E+00
    7     5 B     2.956895660710E+00 -7.511640893007E+00  1.754776799968E+00
    8     5 B     2.956903100634E+00 -7.511621162060E+00 -1.745223199968E+00
    9     5 B     5.027106402018E+00  6.316920761880E+00  1.754776729968E+00
   10     5 B     5.027113841942E+00  6.316940492827E+00 -1.745223269968E+00
   11     5 B     5.026849839389E+00 -6.315953093665E+00  1.744733619968E+00
   12     5 B     5.026857279312E+00 -6.315933362718E+00 -1.755266379968E+00
   13     1 H    -1.261537846051E+00  5.369557952060E+00  1.733955229969E+00
   14     1 H    -1.261530406127E+00  5.369577683007E+00 -1.766044769968E+00
   15     1 H     1.257342775570E+00 -5.367408149391E+00  1.730771279969E+00
   16     1 H     1.257350215493E+00 -5.367388418443E+00 -1.769228789968E+00
   17     1 H    -1.262477258281E+00 -5.369860575884E+00  1.730281209969E+00
   18     1 H    -1.262469818357E+00 -5.369840844937E+00 -1.769718789968E+00
   19     1 H     1.258665380882E+00  5.368391997772E+00  1.730403429969E+00
   20     1 H     1.258672820805E+00  5.368411728719E+00 -1.769596569968E+00
   21     1 H    -4.020091775027E+00  3.777993136383E+00  1.766044909968E+00
   22     1 H    -4.020084335104E+00  3.778012867331E+00 -1.733955089969E+00
   23     1 H     4.019591389885E+00 -3.771096546471E+00  1.769229139968E+00
   24     1 H     4.019598829808E+00 -3.771076815523E+00 -1.730770929969E+00
   25     1 H     5.280915936062E+00 -1.590383664204E+00  1.769719419968E+00
   26     1 H     5.280923375986E+00 -1.590363933257E+00 -1.730280579969E+00
   27     1 H    -5.278552790151E+00  1.594964229472E+00  1.769596359968E+00
   28     1 H    -5.278545350227E+00  1.594983960420E+00 -1.730403639969E+00
   29     1 H    -4.019566828637E+00 -3.778586872024E+00  1.733955439969E+00
   30     1 H    -4.019559388714E+00 -3.778567141076E+00 -1.766044629968E+00
   31     1 H     4.020009266337E+00  3.773252741719E+00  1.730771069969E+00
   32     1 H     4.020016706260E+00  3.773272472666E+00 -1.769228929968E+00
   33     1 H     5.280533225747E+00  1.591501348007E+00  1.730280789969E+00
   34     1 H     5.280540665671E+00  1.591521078954E+00 -1.769719209968E+00
   35     1 H    -5.278830239103E+00 -1.595795696973E+00  1.730403849969E+00
   36     1 H    -5.278822799180E+00 -1.595775966025E+00 -1.769596149968E+00
   37     6 C    -1.406657576283E+00  7.511810584744E+00  1.744366119968E+00
   38     6 C    -1.406650136360E+00  7.511830315692E+00 -1.755633879968E+00
   39     6 C    -6.962530278628E-01  6.303082887312E+00  1.734445159969E+00
   40     6 C    -6.962455879395E-01  6.303102618259E+00 -1.765554839968E+00
   41     6 C     6.946482514824E-01 -6.302617071447E+00  1.733588149969E+00
   42     6 C     6.946556914056E-01 -6.302597340500E+00 -1.766411849968E+00
   43     6 C    -6.967344517504E-01 -6.303108578175E+00  1.736160159968E+00
   44     6 C    -6.967270118272E-01 -6.303088847228E+00 -1.763839839968E+00
   45     6 C     6.951455541731E-01  6.303133005810E+00  1.729546139969E+00
   46     6 C     6.951529940964E-01  6.303152736757E+00 -1.770453859968E+00
   47     6 C     1.405689939282E+00 -7.511586597577E+00  1.736282589968E+00
   48     6 C     1.405697379206E+00 -7.511566866629E+00 -1.763717479968E+00
   49     6 C     7.208801448543E+00 -2.536224614076E+00  1.755634159968E+00
   50     6 C     7.208808888467E+00 -2.536204883129E+00 -1.744365839968E+00
   51     6 C    -5.111153334997E+00  3.755053547925E+00  1.765554909968E+00
   52     6 C    -5.111145895073E+00  3.755073278872E+00 -1.734445089969E+00
   53     6 C     5.110840320438E+00 -3.751605363415E+00  1.766412199968E+00
   54     6 C     5.110847760361E+00 -3.751585632468E+00 -1.733587799969E+00
   55     6 C     5.806803677224E+00 -2.546701543680E+00  1.763840259968E+00
   56     6 C     5.806811117148E+00 -2.546681812733E+00 -1.736159739968E+00
   57     6 C    -5.806753549731E+00  2.550050061225E+00  1.770453929968E+00
   58     6 C    -5.806746109808E+00  2.550069792173E+00 -1.729546139969E+00
   59     6 C     5.802123882392E+00 -4.972027185443E+00  1.763717619968E+00
   60     6 C     5.802131322315E+00 -4.972007454495E+00 -1.736282379968E+00
   61     6 C     7.208872384396E+00  2.537402443950E+00  1.744366119968E+00
   62     6 C     7.208879824320E+00  2.537422174897E+00 -1.755633879968E+00
   63     6 C    -5.110732091212E+00 -3.756098133880E+00  1.734445369969E+00
   64     6 C    -5.110724651289E+00 -3.756078402934E+00 -1.765554559968E+00
   65     6 C     5.111161770752E+00  3.752788606806E+00  1.733587939969E+00
   66     6 C     5.111169210675E+00  3.752808337753E+00 -1.766412059968E+00
   67     6 C     5.806799572430E+00  2.547717573651E+00  1.736159879968E+00
   68     6 C     5.806807012353E+00  2.547737304598E+00 -1.763840119968E+00
   69     6 C    -5.806413736220E+00 -2.551149310766E+00  1.729546349969E+00
   70     6 C    -5.806406296296E+00 -2.551129579819E+00 -1.770453649968E+00
   71     6 C     5.802541214958E+00  4.973056227932E+00  1.736282589968E+00
   72     6 C     5.802548654881E+00  4.973075958880E+00 -1.763717479968E+00
   73     8 O     7.295941912750E+00  6.239929581478E-04  1.747428059968E+00
   74     8 O     7.295949352673E+00  6.437239053408E-04 -1.752571939968E+00
   75     8 O    -3.647325484808E+00  6.317810137859E+00  1.768616709968E+00
   76     8 O    -3.647318044885E+00  6.317829868806E+00 -1.731383219969E+00
   77     8 O    -3.647355082753E+00 -6.318110275376E+00  1.736650089968E+00
   78     8 O    -3.647347642830E+00 -6.318090544429E+00 -1.763349909968E+00
   79     8 O     3.647398811311E+00 -6.317434297791E+00  1.747428129968E+00
   80     8 O     3.647406251234E+00 -6.317414566844E+00 -1.752571869968E+00
   81     8 O     3.647651967295E+00  6.318201341122E+00  1.768616709968E+00
   82     8 O     3.647659407219E+00  6.318221072069E+00 -1.731383289969E+00
   83     8 O    -7.295942552922E+00 -5.566451173632E-04  1.736650019968E+00
   84     8 O    -7.295935112999E+00 -5.369141701685E-04 -1.763349979968E+00

 *******************************************************************************
 STARTING BASIS SET HANDLING 
 *******************************************************************************

 Loading internal basis set: SOLDEF2MSVP         

 Please cite in your publication:
 L. Dona', J. G. Brandenburg and B. Civalleri, J. Chem. Phys., 151, 121101 (2019
 )                                                                              
                                                                                
                    

 *******************************************************************************
 LOCAL ATOMIC FUNCTIONS BASIS SET
 *******************************************************************************
   ATOM   X(AU)   Y(AU)   Z(AU)  N. TYPE  EXPONENT  S COEF   P COEF   D/F/G COEF
 *******************************************************************************
   1 B   -9.499  11.937   3.316
                                  1 S  
                                         2.410E+03 1.755E-03 0.000E+00 0.000E+00
                                         3.619E+02 1.344E-02 0.000E+00 0.000E+00
                                         8.231E+01 6.637E-02 0.000E+00 0.000E+00
                                         2.311E+01 2.303E-01 0.000E+00 0.000E+00
                                         7.252E+00 5.150E-01 0.000E+00 0.000E+00
                                  2 S  
                                         2.367E+00 1.000E+00 0.000E+00 0.000E+00
                                  3 S  
                                         5.533E-01 1.000E+00 0.000E+00 0.000E+00
                                  4 S  
                                         1.716E-01 1.000E+00 0.000E+00 0.000E+00
                           5-     7 P  
                                         6.002E+00 0.000E+00-3.555E-02 0.000E+00
                                         1.240E+00 0.000E+00-1.983E-01 0.000E+00
                                         3.367E-01 0.000E+00-5.048E-01 0.000E+00
                           8-    10 P  
                                         1.256E-01 0.000E+00 1.000E+00 0.000E+00
                          11-    15 D  
                                         8.880E-01 0.000E+00 0.000E+00 1.000E+00
   2 B   -9.499  11.937  -3.298
   3 B   -5.588  14.195   3.316
   4 B   -5.588  14.195  -3.298
   5 B   -9.499 -11.939   3.297
   6 B   -9.499 -11.939  -3.317
   7 B    5.588 -14.195   3.316
   8 B    5.588 -14.195  -3.298
   9 B    9.500  11.937   3.316
  10 B    9.500  11.937  -3.298
  11 B    9.499 -11.935   3.297
  12 B    9.499 -11.935  -3.317
  13 H   -2.384  10.147   3.277
                                181 S  
                                         1.874E+01 1.968E-02 0.000E+00 0.000E+00
                                         2.826E+00 1.380E-01 0.000E+00 0.000E+00
                                         6.401E-01 4.783E-01 0.000E+00 0.000E+00
                                182 S  
                                         1.756E-01 1.000E+00 0.000E+00 0.000E+00
  14 H   -2.384  10.147  -3.337
  15 H    2.376 -10.143   3.271
  16 H    2.376 -10.143  -3.343
  17 H   -2.386 -10.148   3.270
  18 H   -2.386 -10.148  -3.344
  19 H    2.379  10.145   3.270
  20 H    2.379  10.145  -3.344
  21 H   -7.597   7.139   3.337
  22 H   -7.597   7.139  -3.277
  23 H    7.596  -7.126   3.343
  24 H    7.596  -7.126  -3.271
  25 H    9.979  -3.005   3.344
  26 H    9.979  -3.005  -3.270
  27 H   -9.975   3.014   3.344
  28 H   -9.975   3.014  -3.270
  29 H   -7.596  -7.140   3.277
  30 H   -7.596  -7.140  -3.337
  31 H    7.597   7.130   3.271
  32 H    7.597   7.130  -3.343
  33 H    9.979   3.008   3.270
  34 H    9.979   3.008  -3.344
  35 H   -9.976  -3.016   3.270
  36 H   -9.976  -3.016  -3.344
  37 C   -2.658  14.195   3.296
                                229 S  
                                         3.624E+03 1.634E-03 0.000E+00 0.000E+00
                                         5.440E+02 1.252E-02 0.000E+00 0.000E+00
                                         1.237E+02 6.211E-02 0.000E+00 0.000E+00
                                         3.476E+01 2.182E-01 0.000E+00 0.000E+00
                                         1.093E+01 4.980E-01 0.000E+00 0.000E+00
                                230 S  
                                         3.574E+00 1.000E+00 0.000E+00 0.000E+00
                                231 S  
                                         7.742E-01 1.000E+00 0.000E+00 0.000E+00
                                232 S  
                                         2.330E-01 1.000E+00 0.000E+00 0.000E+00
                         233-   235 P  
                                         9.443E+00 0.000E+00 3.790E-02 0.000E+00
                                         2.002E+00 0.000E+00 2.082E-01 0.000E+00
                                         5.463E-01 0.000E+00 5.047E-01 0.000E+00
                         236-   238 P  
                                         1.820E-01 0.000E+00 1.000E+00 0.000E+00
                         239-   243 D  
                                         8.880E-01 0.000E+00 0.000E+00 1.000E+00
  38 C   -2.658  14.195  -3.318
  39 C   -1.316  11.911   3.278
  40 C   -1.316  11.911  -3.336
  41 C    1.313 -11.910   3.276
  42 C    1.313 -11.910  -3.338
  43 C   -1.317 -11.911   3.281
  44 C   -1.317 -11.911  -3.333
  45 C    1.314  11.911   3.268
  46 C    1.314  11.911  -3.346
  47 C    2.656 -14.195   3.281
  48 C    2.656 -14.195  -3.333
  49 C   13.623  -4.793   3.318
  50 C   13.623  -4.793  -3.296
  51 C   -9.659   7.096   3.336
  52 C   -9.659   7.096  -3.278
  53 C    9.658  -7.090   3.338
  54 C    9.658  -7.089  -3.276
  55 C   10.973  -4.813   3.333
  56 C   10.973  -4.813  -3.281
  57 C  -10.973   4.819   3.346
  58 C  -10.973   4.819  -3.268
  59 C   10.964  -9.396   3.333
  60 C   10.964  -9.396  -3.281
  61 C   13.623   4.795   3.296
  62 C   13.623   4.795  -3.318
  63 C   -9.658  -7.098   3.278
  64 C   -9.658  -7.098  -3.336
  65 C    9.659   7.092   3.276
  66 C    9.659   7.092  -3.338
  67 C   10.973   4.814   3.281
  68 C   10.973   4.815  -3.333
  69 C  -10.973  -4.821   3.268
  70 C  -10.973  -4.821  -3.346
  71 C   10.965   9.398   3.281
  72 C   10.965   9.398  -3.333
  73 O   13.787   0.001   3.302
                                769 S  
                                         6.773E+03 1.727E-03 0.000E+00 0.000E+00
                                         1.017E+03 1.325E-02 0.000E+00 0.000E+00
                                         2.313E+02 6.603E-02 0.000E+00 0.000E+00
                                         6.501E+01 2.353E-01 0.000E+00 0.000E+00
                                         2.050E+01 5.498E-01 0.000E+00 0.000E+00
                                770 S  
                                         6.716E+00 1.000E+00 0.000E+00 0.000E+00
                                771 S  
                                         1.147E+00 1.000E+00 0.000E+00 0.000E+00
                                772 S  
                                         3.342E-01 1.000E+00 0.000E+00 0.000E+00
                         773-   775 P  
                                         1.769E+01 0.000E+00 4.359E-02 0.000E+00
                                         3.854E+00 0.000E+00 2.318E-01 0.000E+00
                                         1.047E+00 0.000E+00 5.146E-01 0.000E+00
                         776-   778 P  
                                         2.759E-01 0.000E+00 1.000E+00 0.000E+00
                         779-   783 D  
                                         8.000E-01 0.000E+00 0.000E+00 1.000E+00
  74 O   13.787   0.001  -3.312
  75 O   -6.892  11.939   3.342
  76 O   -6.892  11.939  -3.272
  77 O   -6.893 -11.939   3.282
  78 O   -6.892 -11.939  -3.332
  79 O    6.893 -11.938   3.302
  80 O    6.893 -11.938  -3.312
  81 O    6.893  11.940   3.342
  82 O    6.893  11.940  -3.272
  83 O  -13.787  -0.001   3.282
  84 O  -13.787  -0.001  -3.332

 *******************************************************************************
 FINISHED BASIS SET HANDLING 
 *******************************************************************************

 INFORMATION **** SET_MPP **** PCRYSTAL CALCULATION
 INFORMATION **** READM2 **** NEW DEFAULT: FOCK/KS MATRIX MIXING SET TO 30 %
 INFORMATION **** READM2 **** NEW DEFAULT: FULL DIRECT SCF MODE
 INFORMATION **** READM2 **** NEW DEFAULT: COULOMB BIPOLAR BUFFER SET TO 32 Mb
 INFORMATION **** READM2 **** NEW DEFAULT: EXCHANGE BIPOLAR BUFFER SET TO 32 Mb

 *******************************************************************************
 NEW DEFAULT: DFT INTEGRATION GRID INCREASED TO XLGRID
 NEW DEFAULT: DIIS ACCELERATOR ACTIVE
 USE KEYWORD NODIIS TO TURN IT OFF
 *******************************************************************************

 WARNING **** RDDFTP **** HSEsol-HJS ACTIVE
 RANGE SEPARATION - OMEGA:   0.110000000000000     
 WARNING **** RDDFTP **** HSEsol-3c has to be combined with sol-def2-mSVP basis set
 *******************************************************************************
 N. OF ATOMS PER CELL        84  COULOMB OVERLAP TOL         (T1) 10**   -6
 NUMBER OF SHELLS           468  COULOMB PENETRATION TOL     (T2) 10**   -6
 NUMBER OF AO               948  EXCHANGE OVERLAP TOL        (T3) 10**   -6
 N. OF ELECTRONS PER CELL   396  EXCHANGE PSEUDO OVP (F(G))  (T4) 10**   -6
 CORE ELECTRONS PER CELL    120  EXCHANGE PSEUDO OVP (P(G))  (T5) 10**  -12
 N. OF SYMMETRY OPERATORS     1  POLE ORDER IN MONO ZONE                  4
 *******************************************************************************
 TYPE OF CALCULATION :  RESTRICTED CLOSED SHELL
 KOHN-SHAM HAMILTONIAN

 (EXCHANGE)[CORRELATION] FUNCTIONAL:(HSEsol GGA)[PBEsol]

 RANGE-SEPARATED HYBRID FUNCTIONAL 
 OMEGA (SHORT-RANGE)[LONG-RANGE]:(    0.1100)[    0.0000]

 HYBRID EXCHANGE - PERCENTAGE OF FOCK EXCHANGE    25.0000

 CAPPA:IS1  2;IS2  2;IS3  8; K PTS MONK NET  20; SYMMOPS:K SPACE   2;G SPACE   1

 *******************************************************************************
 MAX NUMBER OF SCF CYCLES      50  CONVERGENCE ON DELTAP        10**-16
 WEIGHT OF F(I) IN F(I+1)      30% CONVERGENCE ON ENERGY        10**- 6
 SHRINK. FACT.(MONKH.)    2  2  8  NUMBER OF K POINTS IN THE IBZ     20
 SHRINKING FACTOR(GILAT NET)    8  NUMBER OF K POINTS(GILAT NET)   1028
 *******************************************************************************
 *** K POINTS COORDINATES (OBLIQUE COORDINATES IN UNITS OF IS =  2)
   1-R(  0  0  0)   2-R(  1  0  0)   3-R(  0  1  0)   4-R(  1  1  0)
   5-C(  0  0  1)   6-C(  1  0  1)   7-C(  0  1  1)   8-C(  1  1  1)
   9-C(  0  0  2)  10-C(  1  0  2)  11-C(  0  1  2)  12-C(  1  1  2)
  13-C(  0  0  3)  14-C(  1  0  3)  15-C(  0  1  3)  16-C(  1  1  3)
  17-R(  0  0  4)  18-R(  1  0  4)  19-R(  0  1  4)  20-R(  1  1  4)

 DIRECT LATTICE VECTORS COMPON. (A.U.)     RECIP. LATTICE VECTORS COMPON. (A.U.) 
        X            Y            Z              X            Y            Z
   24.5879030  -14.1935232    0.0000000      0.2555397    0.0000000    0.0000005
    0.0000000   28.3910867    0.0000000      0.1277517    0.2213084    0.0000015
   -0.0000281   -0.0000746   13.2280829      0.0000000    0.0000000    0.4749884

 DISK SPACE FOR EIGENVECTORS (FTN 10)    28758528 REALS

 SYMMETRY ADAPTION OF THE BLOCH FUNCTIONS DISABLED
 TTTTTTTTTTTTTTTTTTTTTTTTTTTTTT gordsh1     TELAPSE        0.05 TCPU        0.05

 MATRIX SIZE: P(G)  769756, F(G)  159950, P(G) IRR  386924, F(G) IRR  160982
 MAX G-VECTOR INDEX FOR 1- AND 2-ELECTRON INTEGRALS  67

 TTTTTTTTTTTTTTTTTTTTTTTTTTTTTT INPUT       TELAPSE        2.96 TCPU        2.96

 NEIGHBORS OF THE NON-EQUIVALENT ATOMS

 N = NUMBER OF NEIGHBORS AT DISTANCE R
    ATOM  N     R/ANG      R/AU   NEIGHBORS (ATOM LABELS AND CELL INDICES)
   1 B    1     1.3791     2.6061   73 O   -1 0 0
   1 B    1     1.3793     2.6065   75 O    0 0 0
   1 B    1     1.5503     2.9297   49 C   -1 0 0
   1 B    1     2.3895     4.5155    5 B    0 1 0
   1 B    1     2.3898     4.5160    3 B    0 0 0
   1 B    1     2.5632     4.8437   51 C    0 0 0

   2 B    1     1.3791     2.6061   74 O   -1 0 0
   2 B    1     1.3793     2.6065   76 O    0 0 0
   2 B    1     1.5503     2.9297   50 C   -1 0 0
   2 B    1     2.3895     4.5155    6 B    0 1 0
   2 B    1     2.3898     4.5160    4 B    0 0 0
   2 B    1     2.5632     4.8437   52 C    0 0 0

   3 B    1     1.3793     2.6065   77 O    0 1 0
   3 B    1     1.3793     2.6065   75 O    0 0 0
   3 B    1     1.5504     2.9298   37 C    0 0 0
   3 B    1     2.3895     4.5156    5 B    0 1 0
   3 B    1     2.3898     4.5160    1 B    0 0 0
   3 B    1     2.5634     4.8440   43 C    0 1 0

   4 B    1     1.3793     2.6065   78 O    0 1 0
   4 B    1     1.3793     2.6065   76 O    0 0 0
   4 B    1     1.5504     2.9298   38 C    0 0 0
   4 B    1     2.3895     4.5156    6 B    0 1 0
   4 B    1     2.3898     4.5160    2 B    0 0 0
   4 B    1     2.5634     4.8440   44 C    0 1 0

   5 B    1     1.3791     2.6061   73 O   -1-1 0
   5 B    1     1.3793     2.6064   77 O    0 0 0
   5 B    1     1.5502     2.9294   61 C   -1-1 0
   5 B    1     2.3895     4.5155    1 B    0-1 0
   5 B    1     2.3895     4.5156    3 B    0-1 0
   5 B    1     2.5629     4.8433   63 C    0 0 0

   6 B    1     1.3791     2.6061   74 O   -1-1 0
   6 B    1     1.3793     2.6064   78 O    0 0 0
   6 B    1     1.5502     2.9294   62 C   -1-1 0
   6 B    1     2.3895     4.5155    2 B    0-1 0
   6 B    1     2.3895     4.5156    4 B    0-1 0
   6 B    1     2.5629     4.8433   64 C    0 0 0

   7 B    1     1.3795     2.6068   79 O    0 0 0
   7 B    1     1.3795     2.6070   81 O    0-1 0
   7 B    1     1.5513     2.9316   47 C    0 0 0
   7 B    1     2.3905     4.5174   11 B    0 0 0
   7 B    1     2.3905     4.5175    9 B    0-1 0
   7 B    1     2.5648     4.8468   45 C    0-1 0

   8 B    1     1.3795     2.6068   80 O    0 0 0
   8 B    1     1.3795     2.6070   82 O    0-1 0
   8 B    1     1.5513     2.9316   48 C    0 0 0
   8 B    1     2.3905     4.5174   12 B    0 0 0
   8 B    1     2.3905     4.5175   10 B    0-1 0
   8 B    1     2.5648     4.8468   46 C    0-1 0

   9 B    1     1.3795     2.6069   81 O    0 0 0
   9 B    1     1.3797     2.6072   83 O    1 1 0
   9 B    1     1.5516     2.9322   71 C    0 0 0
   9 B    1     2.3905     4.5175    7 B    0 1 0
   9 B    1     2.3911     4.5185   11 B    0 1 0
   9 B    1     2.5651     4.8473   69 C    1 1 0

  10 B    1     1.3795     2.6069   82 O    0 0 0
  10 B    1     1.3797     2.6072   84 O    1 1 0
  10 B    1     1.5516     2.9322   72 C    0 0 0
  10 B    1     2.3905     4.5175    8 B    0 1 0
  10 B    1     2.3911     4.5185   12 B    0 1 0
  10 B    1     2.5651     4.8473   70 C    1 1 0

  11 B    1     1.3795     2.6068   79 O    0 0 0
  11 B    1     1.3796     2.6071   83 O    1 0 0
  11 B    1     1.5516     2.9322   59 C    0 0 0
  11 B    1     2.3905     4.5174    7 B    0 0 0
  11 B    1     2.3911     4.5185    9 B    0-1 0
  11 B    1     2.5651     4.8473   57 C    1 0 0

  12 B    1     1.3795     2.6068   80 O    0 0 0
  12 B    1     1.3796     2.6071   84 O    1 0 0
  12 B    1     1.5516     2.9322   60 C    0 0 0
  12 B    1     2.3905     4.5174    8 B    0 0 0
  12 B    1     2.3911     4.5185   10 B    0-1 0
  12 B    1     2.5651     4.8473   58 C    1 0 0

  13 H    1     1.0913     2.0623   39 C    0 0 0
  13 H    1     2.1472     4.0576   37 C    0 0 0
  13 H    1     2.1680     4.0969   45 C    0 0 0
  13 H    1     2.5202     4.7625   19 H    0 0 0
  13 H    1     2.5676     4.8520   75 O    0 0 0
  13 H    1     2.7321     5.1630    3 B    0 0 0

  14 H    1     1.0913     2.0623   40 C    0 0 0
  14 H    1     2.1472     4.0576   38 C    0 0 0
  14 H    1     2.1680     4.0969   46 C    0 0 0
  14 H    1     2.5202     4.7625   20 H    0 0 0
  14 H    1     2.5676     4.8520   76 O    0 0 0
  14 H    1     2.7321     5.1630    4 B    0 0 0

  15 H    1     1.0914     2.0625   41 C    0 0 0
  15 H    1     2.1493     4.0616   47 C    0 0 0
  15 H    1     2.1666     4.0942   43 C    0 0 0
  15 H    1     2.5198     4.7618   17 H    0 0 0
  15 H    1     2.5720     4.8604   79 O    0 0 0
  15 H    1     2.7362     5.1707    7 B    0 0 0

  16 H    1     1.0914     2.0625   42 C    0 0 0
  16 H    1     2.1493     4.0616   48 C    0 0 0
  16 H    1     2.1666     4.0942   44 C    0 0 0
  16 H    1     2.5198     4.7618   18 H    0 0 0
  16 H    1     2.5720     4.8604   80 O    0 0 0
  16 H    1     2.7362     5.1707    8 B    0 0 0

  17 H    1     1.0914     2.0624   43 C    0 0 0
  17 H    1     2.1471     4.0575   37 C    0-1 0
  17 H    1     2.1680     4.0970   41 C    0 0 0
  17 H    1     2.5198     4.7618   15 H    0 0 0
  17 H    1     2.5665     4.8500   77 O    0 0 0
  17 H    1     2.7315     5.1618    3 B    0-1 0

  18 H    1     1.0914     2.0624   44 C    0 0 0
  18 H    1     2.1471     4.0575   38 C    0-1 0
  18 H    1     2.1680     4.0970   42 C    0 0 0
  18 H    1     2.5198     4.7618   16 H    0 0 0
  18 H    1     2.5665     4.8500   78 O    0 0 0
  18 H    1     2.7315     5.1618    4 B    0-1 0

  19 H    1     1.0915     2.0626   45 C    0 0 0
  19 H    1     2.1490     4.0610   47 C    0 1 0
  19 H    1     2.1669     4.0948   39 C    0 0 0
  19 H    1     2.5202     4.7625   13 H    0 0 0
  19 H    1     2.5712     4.8588   81 O    0 0 0
  19 H    1     2.7351     5.1686    7 B    0 1 0

  20 H    1     1.0915     2.0626   46 C    0 0 0
  20 H    1     2.1490     4.0610   48 C    0 1 0
  20 H    1     2.1669     4.0948   40 C    0 0 0
  20 H    1     2.5202     4.7625   14 H    0 0 0
  20 H    1     2.5712     4.8588   82 O    0 0 0
  20 H    1     2.7351     5.1686    8 B    0 1 0

  21 H    1     1.0913     2.0623   51 C    0 0 0
  21 H    1     2.1469     4.0571   49 C   -1 0 0
  21 H    1     2.1680     4.0968   57 C    0 0 0
  21 H    1     2.5198     4.7617   27 H    0 0 0
  21 H    1     2.5670     4.8510   75 O    0 0 0
  21 H    1     2.7310     5.1609    1 B    0 0 0

  22 H    1     1.0913     2.0623   52 C    0 0 0
  22 H    1     2.1469     4.0571   50 C   -1 0 0
  22 H    1     2.1680     4.0968   58 C    0 0 0
  22 H    1     2.5198     4.7617   28 H    0 0 0
  22 H    1     2.5670     4.8510   76 O    0 0 0
  22 H    1     2.7310     5.1609    2 B    0 0 0

  23 H    1     1.0914     2.0625   53 C    0 0 0
  23 H    1     2.1493     4.0617   59 C    0 0 0
  23 H    1     2.1664     4.0939   55 C    0 0 0
  23 H    1     2.5192     4.7606   25 H    0 0 0
  23 H    1     2.5735     4.8632   79 O    0 0 0
  23 H    1     2.7371     5.1723   11 B    0 0 0

  24 H    1     1.0914     2.0625   54 C    0 0 0
  24 H    1     2.1493     4.0617   60 C    0 0 0
  24 H    1     2.1664     4.0939   56 C    0 0 0
  24 H    1     2.5192     4.7606   26 H    0 0 0
  24 H    1     2.5735     4.8632   80 O    0 0 0
  24 H    1     2.7371     5.1723   12 B    0 0 0

  25 H    1     1.0914     2.0624   55 C    0 0 0
  25 H    1     2.1475     4.0581   49 C    0 0 0
  25 H    1     2.1679     4.0967   53 C    0 0 0
  25 H    1     2.5192     4.7606   23 H    0 0 0
  25 H    1     2.5675     4.8519   73 O    0 0 0
  25 H    1     2.7328     5.1643    1 B    1 0 0

  26 H    1     1.0914     2.0624   56 C    0 0 0
  26 H    1     2.1475     4.0581   50 C    0 0 0
  26 H    1     2.1679     4.0967   54 C    0 0 0
  26 H    1     2.5192     4.7606   24 H    0 0 0
  26 H    1     2.5675     4.8519   74 O    0 0 0
  26 H    1     2.7328     5.1643    2 B    1 0 0

  27 H    1     1.0914     2.0625   57 C    0 0 0
  27 H    1     2.1491     4.0612   59 C   -1 0 0
  27 H    1     2.1666     4.0942   51 C    0 0 0
  27 H    1     2.5198     4.7617   21 H    0 0 0
  27 H    1     2.5723     4.8609   83 O    0 0 0
  27 H    1     2.7355     5.1693   11 B   -1 0 0

  28 H    1     1.0914     2.0625   58 C    0 0 0
  28 H    1     2.1491     4.0612   60 C   -1 0 0
  28 H    1     2.1666     4.0942   52 C    0 0 0
  28 H    1     2.5198     4.7617   22 H    0 0 0
  28 H    1     2.5723     4.8609   84 O    0 0 0
  28 H    1     2.7355     5.1693   12 B   -1 0 0

  29 H    1     1.0914     2.0624   63 C    0 0 0
  29 H    1     2.1475     4.0582   61 C   -1-1 0
  29 H    1     2.1678     4.0966   69 C    0 0 0
  29 H    1     2.5200     4.7621   35 H    0 0 0
  29 H    1     2.5667     4.8503   77 O    0 0 0
  29 H    1     2.7315     5.1618    5 B    0 0 0

  30 H    1     1.0914     2.0624   64 C    0 0 0
  30 H    1     2.1475     4.0582   62 C   -1-1 0
  30 H    1     2.1678     4.0966   70 C    0 0 0
  30 H    1     2.5200     4.7621   36 H    0 0 0
  30 H    1     2.5667     4.8503   78 O    0 0 0
  30 H    1     2.7315     5.1618    6 B    0 0 0

  31 H    1     1.0913     2.0623   65 C    0 0 0
  31 H    1     2.1487     4.0605   71 C    0 0 0
  31 H    1     2.1667     4.0945   67 C    0 0 0
  31 H    1     2.5197     4.7616   33 H    0 0 0
  31 H    1     2.5723     4.8610   81 O    0 0 0
  31 H    1     2.7359     5.1701    9 B    0 0 0

  32 H    1     1.0913     2.0623   66 C    0 0 0
  32 H    1     2.1487     4.0605   72 C    0 0 0
  32 H    1     2.1667     4.0945   68 C    0 0 0
  32 H    1     2.5197     4.7616   34 H    0 0 0
  32 H    1     2.5723     4.8610   82 O    0 0 0
  32 H    1     2.7359     5.1701   10 B    0 0 0

  33 H    1     1.0915     2.0626   67 C    0 0 0
  33 H    1     2.1479     4.0589   61 C    0 0 0
  33 H    1     2.1679     4.0968   65 C    0 0 0
  33 H    1     2.5197     4.7616   31 H    0 0 0
  33 H    1     2.5677     4.8522   73 O    0 0 0
  33 H    1     2.7331     5.1648    5 B    1 1 0

  34 H    1     1.0915     2.0626   68 C    0 0 0
  34 H    1     2.1479     4.0589   62 C    0 0 0
  34 H    1     2.1679     4.0968   66 C    0 0 0
  34 H    1     2.5197     4.7616   32 H    0 0 0
  34 H    1     2.5677     4.8522   74 O    0 0 0
  34 H    1     2.7331     5.1648    6 B    1 1 0

  35 H    1     1.0914     2.0624   69 C    0 0 0
  35 H    1     2.1486     4.0602   71 C   -1-1 0
  35 H    1     2.1668     4.0947   63 C    0 0 0
  35 H    1     2.5200     4.7621   29 H    0 0 0
  35 H    1     2.5717     4.8598   83 O    0 0 0
  35 H    1     2.7349     5.1682    9 B   -1-1 0

  36 H    1     1.0914     2.0624   70 C    0 0 0
  36 H    1     2.1486     4.0602   72 C   -1-1 0
  36 H    1     2.1668     4.0947   64 C    0 0 0
  36 H    1     2.5200     4.7621   30 H    0 0 0
  36 H    1     2.5717     4.8598   84 O    0 0 0
  36 H    1     2.7349     5.1682   10 B   -1-1 0

  37 C    1     1.4020     2.6495   43 C    0 1 0
  37 C    1     1.4021     2.6495   39 C    0 0 0
  37 C    1     1.5504     2.9298    3 B    0 0 0
  37 C    1     2.1471     4.0575   17 H    0 1 0
  37 C    1     2.1472     4.0576   13 H    0 0 0
  37 C    1     2.4246     4.5817   41 C    0 1 0

  38 C    1     1.4020     2.6495   44 C    0 1 0
  38 C    1     1.4021     2.6495   40 C    0 0 0
  38 C    1     1.5504     2.9298    4 B    0 0 0
  38 C    1     2.1471     4.0575   18 H    0 1 0
  38 C    1     2.1472     4.0576   14 H    0 0 0
  38 C    1     2.4246     4.5817   42 C    0 1 0

  39 C    1     1.0913     2.0623   13 H    0 0 0
  39 C    1     1.3914     2.6294   45 C    0 0 0
  39 C    1     1.4021     2.6495   37 C    0 0 0
  39 C    1     2.1669     4.0948   19 H    0 0 0
  39 C    1     2.4177     4.5688   43 C    0 1 0
  39 C    1     2.4250     4.5825   47 C    0 1 0

  40 C    1     1.0913     2.0623   14 H    0 0 0
  40 C    1     1.3914     2.6294   46 C    0 0 0
  40 C    1     1.4021     2.6495   38 C    0 0 0
  40 C    1     2.1669     4.0948   20 H    0 0 0
  40 C    1     2.4177     4.5688   44 C    0 1 0
  40 C    1     2.4250     4.5825   48 C    0 1 0

  41 C    1     1.0914     2.0625   15 H    0 0 0
  41 C    1     1.3914     2.6293   43 C    0 0 0
  41 C    1     1.4026     2.6505   47 C    0 0 0
  41 C    1     2.1680     4.0970   17 H    0 0 0
  41 C    1     2.4182     4.5697   45 C    0-1 0
  41 C    1     2.4246     4.5817   37 C    0-1 0

  42 C    1     1.0914     2.0625   16 H    0 0 0
  42 C    1     1.3914     2.6293   44 C    0 0 0
  42 C    1     1.4026     2.6505   48 C    0 0 0
  42 C    1     2.1680     4.0970   18 H    0 0 0
  42 C    1     2.4182     4.5697   46 C    0-1 0
  42 C    1     2.4246     4.5817   38 C    0-1 0

  43 C    1     1.0914     2.0624   17 H    0 0 0
  43 C    1     1.3914     2.6293   41 C    0 0 0
  43 C    1     1.4020     2.6495   37 C    0-1 0
  43 C    1     2.1666     4.0942   15 H    0 0 0
  43 C    1     2.4177     4.5688   39 C    0-1 0
  43 C    1     2.4250     4.5826   47 C    0 0 0

  44 C    1     1.0914     2.0624   18 H    0 0 0
  44 C    1     1.3914     2.6293   42 C    0 0 0
  44 C    1     1.4020     2.6495   38 C    0-1 0
  44 C    1     2.1666     4.0942   16 H    0 0 0
  44 C    1     2.4177     4.5688   40 C    0-1 0
  44 C    1     2.4250     4.5826   48 C    0 0 0

  45 C    1     1.0915     2.0626   19 H    0 0 0
  45 C    1     1.3914     2.6294   39 C    0 0 0
  45 C    1     1.4025     2.6504   47 C    0 1 0
  45 C    1     2.1680     4.0969   13 H    0 0 0
  45 C    1     2.4182     4.5697   41 C    0 1 0
  45 C    1     2.4246     4.5818   37 C    0 0 0

  46 C    1     1.0915     2.0626   20 H    0 0 0
  46 C    1     1.3914     2.6294   40 C    0 0 0
  46 C    1     1.4025     2.6504   48 C    0 1 0
  46 C    1     2.1680     4.0969   14 H    0 0 0
  46 C    1     2.4182     4.5697   42 C    0 1 0
  46 C    1     2.4246     4.5818   38 C    0 0 0

  47 C    1     1.4025     2.6504   45 C    0-1 0
  47 C    1     1.4026     2.6505   41 C    0 0 0
  47 C    1     1.5513     2.9316    7 B    0 0 0
  47 C    1     2.1490     4.0610   19 H    0-1 0
  47 C    1     2.1493     4.0616   15 H    0 0 0
  47 C    1     2.4250     4.5825   39 C    0-1 0

  48 C    1     1.4025     2.6504   46 C    0-1 0
  48 C    1     1.4026     2.6505   42 C    0 0 0
  48 C    1     1.5513     2.9316    8 B    0 0 0
  48 C    1     2.1490     4.0610   20 H    0-1 0
  48 C    1     2.1493     4.0616   16 H    0 0 0
  48 C    1     2.4250     4.5825   40 C    0-1 0

  49 C    1     1.4020     2.6494   51 C    1 0 0
  49 C    1     1.4021     2.6495   55 C    0 0 0
  49 C    1     1.5503     2.9297    1 B    1 0 0
  49 C    1     2.1469     4.0571   21 H    1 0 0
  49 C    1     2.1475     4.0581   25 H    0 0 0
  49 C    1     2.4246     4.5818   53 C    0 0 0

  50 C    1     1.4020     2.6494   52 C    1 0 0
  50 C    1     1.4021     2.6495   56 C    0 0 0
  50 C    1     1.5503     2.9297    2 B    1 0 0
  50 C    1     2.1469     4.0571   22 H    1 0 0
  50 C    1     2.1475     4.0581   26 H    0 0 0
  50 C    1     2.4246     4.5818   54 C    0 0 0

  51 C    1     1.0913     2.0623   21 H    0 0 0
  51 C    1     1.3914     2.6293   57 C    0 0 0
  51 C    1     1.4020     2.6494   49 C   -1 0 0
  51 C    1     2.1666     4.0942   27 H    0 0 0
  51 C    1     2.4175     4.5684   55 C   -1 0 0
  51 C    1     2.4251     4.5828   59 C   -1 0 0

  52 C    1     1.0913     2.0623   22 H    0 0 0
  52 C    1     1.3914     2.6293   58 C    0 0 0
  52 C    1     1.4020     2.6494   50 C   -1 0 0
  52 C    1     2.1666     4.0942   28 H    0 0 0
  52 C    1     2.4175     4.5684   56 C   -1 0 0
  52 C    1     2.4251     4.5828   60 C   -1 0 0

  53 C    1     1.0914     2.0625   23 H    0 0 0
  53 C    1     1.3915     2.6295   55 C    0 0 0
  53 C    1     1.4026     2.6505   59 C    0 0 0
  53 C    1     2.1679     4.0967   25 H    0 0 0
  53 C    1     2.4179     4.5691   57 C    1 0 0
  53 C    1     2.4246     4.5818   49 C    0 0 0

  54 C    1     1.0914     2.0625   24 H    0 0 0
  54 C    1     1.3915     2.6295   56 C    0 0 0
  54 C    1     1.4026     2.6505   60 C    0 0 0
  54 C    1     2.1679     4.0967   26 H    0 0 0
  54 C    1     2.4179     4.5691   58 C    1 0 0
  54 C    1     2.4246     4.5818   50 C    0 0 0

  55 C    1     1.0914     2.0624   25 H    0 0 0
  55 C    1     1.3915     2.6295   53 C    0 0 0
  55 C    1     1.4021     2.6495   49 C    0 0 0
  55 C    1     2.1664     4.0939   23 H    0 0 0
  55 C    1     2.4175     4.5684   51 C    1 0 0
  55 C    1     2.4253     4.5832   59 C    0 0 0

  56 C    1     1.0914     2.0624   26 H    0 0 0
  56 C    1     1.3915     2.6295   54 C    0 0 0
  56 C    1     1.4021     2.6495   50 C    0 0 0
  56 C    1     2.1664     4.0939   24 H    0 0 0
  56 C    1     2.4175     4.5684   52 C    1 0 0
  56 C    1     2.4253     4.5832   60 C    0 0 0

  57 C    1     1.0914     2.0625   27 H    0 0 0
  57 C    1     1.3914     2.6293   51 C    0 0 0
  57 C    1     1.4025     2.6504   59 C   -1 0 0
  57 C    1     2.1680     4.0968   21 H    0 0 0
  57 C    1     2.4179     4.5691   53 C   -1 0 0
  57 C    1     2.4247     4.5819   49 C   -1 0 0

  58 C    1     1.0914     2.0625   28 H    0 0 0
  58 C    1     1.3914     2.6293   52 C    0 0 0
  58 C    1     1.4025     2.6504   60 C   -1 0 0
  58 C    1     2.1680     4.0968   22 H    0 0 0
  58 C    1     2.4179     4.5691   54 C   -1 0 0
  58 C    1     2.4247     4.5819   50 C   -1 0 0

  59 C    1     1.4025     2.6504   57 C    1 0 0
  59 C    1     1.4026     2.6505   53 C    0 0 0
  59 C    1     1.5516     2.9322   11 B    0 0 0
  59 C    1     2.1491     4.0612   27 H    1 0 0
  59 C    1     2.1493     4.0617   23 H    0 0 0
  59 C    1     2.4251     4.5828   51 C    1 0 0

  60 C    1     1.4025     2.6504   58 C    1 0 0
  60 C    1     1.4026     2.6505   54 C    0 0 0
  60 C    1     1.5516     2.9322   12 B    0 0 0
  60 C    1     2.1491     4.0612   28 H    1 0 0
  60 C    1     2.1493     4.0617   24 H    0 0 0
  60 C    1     2.4251     4.5828   52 C    1 0 0

  61 C    1     1.4021     2.6496   63 C    1 1 0
  61 C    1     1.4021     2.6497   67 C    0 0 0
  61 C    1     1.5502     2.9294    5 B    1 1 0
  61 C    1     2.1475     4.0582   29 H    1 1 0
  61 C    1     2.1479     4.0589   33 H    0 0 0
  61 C    1     2.4244     4.5814   65 C    0 0 0

  62 C    1     1.4021     2.6496   64 C    1 1 0
  62 C    1     1.4021     2.6497   68 C    0 0 0
  62 C    1     1.5502     2.9294    6 B    1 1 0
  62 C    1     2.1475     4.0582   30 H    1 1 0
  62 C    1     2.1479     4.0589   34 H    0 0 0
  62 C    1     2.4244     4.5814   66 C    0 0 0

  63 C    1     1.0914     2.0624   29 H    0 0 0
  63 C    1     1.3914     2.6293   69 C    0 0 0
  63 C    1     1.4021     2.6496   61 C   -1-1 0
  63 C    1     2.1668     4.0947   35 H    0 0 0
  63 C    1     2.4179     4.5692   67 C   -1-1 0
  63 C    1     2.4251     4.5827   71 C   -1-1 0

  64 C    1     1.0914     2.0624   30 H    0 0 0
  64 C    1     1.3914     2.6293   70 C    0 0 0
  64 C    1     1.4021     2.6496   62 C   -1-1 0
  64 C    1     2.1668     4.0947   36 H    0 0 0
  64 C    1     2.4179     4.5692   68 C   -1-1 0
  64 C    1     2.4251     4.5827   72 C   -1-1 0

  65 C    1     1.0913     2.0623   31 H    0 0 0
  65 C    1     1.3914     2.6294   67 C    0 0 0
  65 C    1     1.4025     2.6504   71 C    0 0 0
  65 C    1     2.1679     4.0968   33 H    0 0 0
  65 C    1     2.4178     4.5690   69 C    1 1 0
  65 C    1     2.4244     4.5814   61 C    0 0 0

  66 C    1     1.0913     2.0623   32 H    0 0 0
  66 C    1     1.3914     2.6294   68 C    0 0 0
  66 C    1     1.4025     2.6504   72 C    0 0 0
  66 C    1     2.1679     4.0968   34 H    0 0 0
  66 C    1     2.4178     4.5690   70 C    1 1 0
  66 C    1     2.4244     4.5814   62 C    0 0 0

  67 C    1     1.0915     2.0626   33 H    0 0 0
  67 C    1     1.3914     2.6294   65 C    0 0 0
  67 C    1     1.4021     2.6497   61 C    0 0 0
  67 C    1     2.1667     4.0945   31 H    0 0 0
  67 C    1     2.4179     4.5692   63 C    1 1 0
  67 C    1     2.4253     4.5832   71 C    0 0 0

  68 C    1     1.0915     2.0626   34 H    0 0 0
  68 C    1     1.3914     2.6294   66 C    0 0 0
  68 C    1     1.4021     2.6497   62 C    0 0 0
  68 C    1     2.1667     4.0945   32 H    0 0 0
  68 C    1     2.4179     4.5692   64 C    1 1 0
  68 C    1     2.4253     4.5832   72 C    0 0 0

  69 C    1     1.0914     2.0624   35 H    0 0 0
  69 C    1     1.3914     2.6293   63 C    0 0 0
  69 C    1     1.4025     2.6503   71 C   -1-1 0
  69 C    1     2.1678     4.0966   29 H    0 0 0
  69 C    1     2.4178     4.5690   65 C   -1-1 0
  69 C    1     2.4245     4.5817   61 C   -1-1 0

  70 C    1     1.0914     2.0624   36 H    0 0 0
  70 C    1     1.3914     2.6293   64 C    0 0 0
  70 C    1     1.4025     2.6503   72 C   -1-1 0
  70 C    1     2.1678     4.0966   30 H    0 0 0
  70 C    1     2.4178     4.5690   66 C   -1-1 0
  70 C    1     2.4245     4.5817   62 C   -1-1 0

  71 C    1     1.4025     2.6503   69 C    1 1 0
  71 C    1     1.4025     2.6504   65 C    0 0 0
  71 C    1     1.5516     2.9322    9 B    0 0 0
  71 C    1     2.1486     4.0602   35 H    1 1 0
  71 C    1     2.1487     4.0605   31 H    0 0 0
  71 C    1     2.4251     4.5827   63 C    1 1 0

  72 C    1     1.4025     2.6503   70 C    1 1 0
  72 C    1     1.4025     2.6504   66 C    0 0 0
  72 C    1     1.5516     2.9322   10 B    0 0 0
  72 C    1     2.1486     4.0602   36 H    1 1 0
  72 C    1     2.1487     4.0605   32 H    0 0 0
  72 C    1     2.4251     4.5827   64 C    1 1 0

  73 O    1     1.3791     2.6061    1 B    1 0 0
  73 O    1     1.3791     2.6061    5 B    1 1 0
  73 O    1     2.3880     4.5126   75 O    1 0 0
  73 O    1     2.3882     4.5130   77 O    1 1 0
  73 O    1     2.5383     4.7966   61 C    0 0 0
  73 O    1     2.5384     4.7968   49 C    0 0 0

  74 O    1     1.3791     2.6061    2 B    1 0 0
  74 O    1     1.3791     2.6061    6 B    1 1 0
  74 O    1     2.3880     4.5126   76 O    1 0 0
  74 O    1     2.3882     4.5130   78 O    1 1 0
  74 O    1     2.5383     4.7966   62 C    0 0 0
  74 O    1     2.5384     4.7968   50 C    0 0 0

  75 O    1     1.3793     2.6065    1 B    0 0 0
  75 O    1     1.3793     2.6065    3 B    0 0 0
  75 O    1     2.3880     4.5126   73 O   -1 0 0
  75 O    1     2.3882     4.5131   77 O    0 1 0
  75 O    1     2.5391     4.7981   37 C    0 0 0
  75 O    1     2.5395     4.7990   49 C   -1 0 0

  76 O    1     1.3793     2.6065    2 B    0 0 0
  76 O    1     1.3793     2.6065    4 B    0 0 0
  76 O    1     2.3880     4.5126   74 O   -1 0 0
  76 O    1     2.3882     4.5131   78 O    0 1 0
  76 O    1     2.5391     4.7981   38 C    0 0 0
  76 O    1     2.5395     4.7990   50 C   -1 0 0

  77 O    1     1.3793     2.6064    5 B    0 0 0
  77 O    1     1.3793     2.6065    3 B    0-1 0
  77 O    1     2.3882     4.5130   73 O   -1-1 0
  77 O    1     2.3882     4.5131   75 O    0-1 0
  77 O    1     2.5390     4.7980   37 C    0-1 0
  77 O    1     2.5391     4.7982   61 C   -1-1 0

  78 O    1     1.3793     2.6064    6 B    0 0 0
  78 O    1     1.3793     2.6065    4 B    0-1 0
  78 O    1     2.3882     4.5130   74 O   -1-1 0
  78 O    1     2.3882     4.5131   76 O    0-1 0
  78 O    1     2.5390     4.7980   38 C    0-1 0
  78 O    1     2.5391     4.7982   62 C   -1-1 0

  79 O    1     1.3795     2.6068   11 B    0 0 0
  79 O    1     1.3795     2.6068    7 B    0 0 0
  79 O    1     2.3880     4.5126   83 O    1 0 0
  79 O    1     2.3884     4.5134   81 O    0-1 0
  79 O    1     2.5400     4.7998   47 C    0 0 0
  79 O    1     2.5403     4.8005   59 C    0 0 0

  80 O    1     1.3795     2.6068   12 B    0 0 0
  80 O    1     1.3795     2.6068    8 B    0 0 0
  80 O    1     2.3880     4.5126   84 O    1 0 0
  80 O    1     2.3884     4.5134   82 O    0-1 0
  80 O    1     2.5400     4.7998   48 C    0 0 0
  80 O    1     2.5403     4.8005   60 C    0 0 0

  81 O    1     1.3795     2.6069    9 B    0 0 0
  81 O    1     1.3795     2.6070    7 B    0 1 0
  81 O    1     2.3881     4.5128   83 O    1 1 0
  81 O    1     2.3884     4.5134   79 O    0 1 0
  81 O    1     2.5404     4.8006   47 C    0 1 0
  81 O    1     2.5405     4.8008   71 C    0 0 0

  82 O    1     1.3795     2.6069   10 B    0 0 0
  82 O    1     1.3795     2.6070    8 B    0 1 0
  82 O    1     2.3881     4.5128   84 O    1 1 0
  82 O    1     2.3884     4.5134   80 O    0 1 0
  82 O    1     2.5404     4.8006   48 C    0 1 0
  82 O    1     2.5405     4.8008   72 C    0 0 0

  83 O    1     1.3796     2.6071   11 B   -1 0 0
  83 O    1     1.3797     2.6072    9 B   -1-1 0
  83 O    1     2.3880     4.5126   79 O   -1 0 0
  83 O    1     2.3881     4.5128   81 O   -1-1 0
  83 O    1     2.5409     4.8016   71 C   -1-1 0
  83 O    1     2.5410     4.8019   59 C   -1 0 0

  84 O    1     1.3796     2.6071   12 B   -1 0 0
  84 O    1     1.3797     2.6072   10 B   -1-1 0
  84 O    1     2.3880     4.5126   80 O   -1 0 0
  84 O    1     2.3881     4.5128   82 O   -1-1 0
  84 O    1     2.5409     4.8016   72 C   -1-1 0
  84 O    1     2.5410     4.8019   60 C   -1 0 0


 SYMMETRY ALLOWED INTERNAL DEGREE(S) OF FREEDOM: 249
 TTTTTTTTTTTTTTTTTTTTTTTTTTTTTT SYMM        TELAPSE        2.97 TCPU        2.96
 TTTTTTTTTTTTTTTTTTTTTTTTTTTTTT INT_SCREEN  TELAPSE        3.16 TCPU        3.16

 DFT PARAMETERS

     ATOM       ELECTRONS   NET CHARGE   R(ANGSTROM)
   1   5  B       5.0000      0.0000     0.89000000
  13   1  H       1.0000      0.0000     1.11000000
  37   6  C       6.0000      0.0000     0.77000000
  73   8  O       8.0000      0.0000     0.74000000

 SIZE OF GRID=    2515614
 TTTTTTTTTTTTTTTTTTTTTTTTTTTTTT MAKE_GRID2  TELAPSE       27.35 TCPU       27.32
 BECKE WEIGHT FUNCTION
 RADSAFE =     2.00
 TOLERANCES - DENSITY:10**- 6; POTENTIAL:10**- 9; GRID WGT:10**-14

 RADIAL INTEGRATION  - INTERVALS (POINTS,UPPER LIMIT):            1( 75,  4.0*R)

 ANGULAR INTEGRATION - INTERVALS (ACCURACY LEVEL [N. POINTS] UPPER LIMIT):
  1(  4[  86]   0.2)  2(  8[ 194]   0.5)  3( 12[ 350]   0.9)  4( 16[ 974]   3.5)
  5( 12[ 350]9999.0)
 TTTTTTTTTTTTTTTTTTTTTTTTTTTTTT INT_CALC    TELAPSE       27.66 TCPU       27.63
 EEEEEEEEEE INT_CALC TERMINATION  DATE 19 02 2026 TIME 20:06:40.1

 *******************************************************************************
 cof-1_z35_L000_serr                                                             
 CRYSTAL - SCF - TYPE OF CALCULATION :  RESTRICTED CLOSED SHELL
 *******************************************************************************

 CAPPA:IS1  2;IS2  2;IS3  8; K PTS MONK NET  20; SYMMOPS:K SPACE   2;G SPACE   1

 TTTTTTTTTTTTTTTTTTTTTTTTTTTTTT SDIK        TELAPSE       29.67 TCPU       57.30

 AAAAAAAAAAAAAAAAAAAAAAAAAAAAAAAAAAAAAAAAAAAAAAAAAAAAAAAAAAAAAAAAAAAAAAAAAAAAAAA
         ATOMIC WAVEFUNCTION(S)


 NUCLEAR CHARGE  5.0  SYMMETRY SPECIES            S    P
 N. ELECTRONS    5.0  NUMBER OF PRIMITIVE GTOS    8    4
                      NUMBER OF CONTRACTED GTOS   4    2
                      NUMBER OF CLOSED SHELLS     2    0
                      OPEN SHELL OCCUPATION       0    1

  ZNUC  SCFIT    TOTAL HF ENERGY   KINETIC ENERGY   VIRIAL THEOREM ACCURACY
   5.0    11    -2.451164084E+01  2.462155050E+01 -1.995536038E+00  1.5E-06

 NUCLEAR CHARGE  1.0  SYMMETRY SPECIES            S
 N. ELECTRONS    1.0  NUMBER OF PRIMITIVE GTOS    4
                      NUMBER OF CONTRACTED GTOS   2
                      NUMBER OF CLOSED SHELLS     0
                      OPEN SHELL OCCUPATION       1

  ZNUC  SCFIT    TOTAL HF ENERGY   KINETIC ENERGY   VIRIAL THEOREM ACCURACY
   1.0     1    -4.977266687E-01  5.190767460E-01 -1.958869132E+00  0.0E+00

 NUCLEAR CHARGE  6.0  SYMMETRY SPECIES            S    P
 N. ELECTRONS    6.0  NUMBER OF PRIMITIVE GTOS    8    4
                      NUMBER OF CONTRACTED GTOS   4    2
                      NUMBER OF CLOSED SHELLS     2    0
                      OPEN SHELL OCCUPATION       0    2

  ZNUC  SCFIT    TOTAL HF ENERGY   KINETIC ENERGY   VIRIAL THEOREM ACCURACY
   6.0     9    -3.766704647E+01  3.775180683E+01 -1.997754800E+00  1.1E-06

 NUCLEAR CHARGE  8.0  SYMMETRY SPECIES            S    P
 N. ELECTRONS    8.0  NUMBER OF PRIMITIVE GTOS    8    4
                      NUMBER OF CONTRACTED GTOS   4    2
                      NUMBER OF CLOSED SHELLS     2    0
                      OPEN SHELL OCCUPATION       0    4

  ZNUC  SCFIT    TOTAL HF ENERGY   KINETIC ENERGY   VIRIAL THEOREM ACCURACY
   8.0    12    -7.477373220E+01  7.477365593E+01 -2.000001020E+00  3.8E-06

 AAAAAAAAAAAAAAAAAAAAAAAAAAAAAAAAAAAAAAAAAAAAAAAAAAAAAAAAAAAAAAAAAAAAAAAAAAAAAAA

 CHARGE NORMALIZATION FACTOR   1.00000000
 TOTAL ATOMIC CHARGES:
   5.0000000   5.0000000   5.0000000   5.0000000   5.0000000   5.0000000
   5.0000000   5.0000000   5.0000000   5.0000000   5.0000000   5.0000000
   1.0000000   1.0000000   1.0000000   1.0000000   1.0000000   1.0000000
   1.0000000   1.0000000   1.0000000   1.0000000   1.0000000   1.0000000
   1.0000000   1.0000000   1.0000000   1.0000000   1.0000000   1.0000000
   1.0000000   1.0000000   1.0000000   1.0000000   1.0000000   1.0000000
   6.0000000   6.0000000   6.0000000   6.0000000   6.0000000   6.0000000
   6.0000000   6.0000000   6.0000000   6.0000000   6.0000000   6.0000000
   6.0000000   6.0000000   6.0000000   6.0000000   6.0000000   6.0000000
   6.0000000   6.0000000   6.0000000   6.0000000   6.0000000   6.0000000
   6.0000000   6.0000000   6.0000000   6.0000000   6.0000000   6.0000000
   6.0000000   6.0000000   6.0000000   6.0000000   6.0000000   6.0000000
   8.0000000   8.0000000   8.0000000   8.0000000   8.0000000   8.0000000
   8.0000000   8.0000000   8.0000000   8.0000000   8.0000000   8.0000000
 TTTTTTTTTTTTTTTTTTTTTTTTTTTTTT MOQGAD      TELAPSE       29.78 TCPU       60.80
 TTTTTTTTTTTTTTTTTTTTTTTTTTTTTT SHELLXN     TELAPSE       56.47 TCPU      913.96
 TTTTTTTTTTTTTTTTTTTTTTTTTTTTTT MONMO3      TELAPSE       57.19 TCPU      936.72
 NUMERICALLY INTEGRATED DENSITY    396.0000427583
 TTTTTTTTTTTTTTTTTTTTTTTTTTTTTT NUMDFT      TELAPSE       58.83 TCPU      989.31
 CYC   0 ETOT(AU) -2.591973294925E+03 DETOT -2.59E+03 tst  0.00E+00 PX  1.00E+00
 TTTTTTTTTTTTTTTTTTTTTTTTTTTTTT DIIS        TELAPSE       58.95 TCPU      992.90
 TTTTTTTTTTTTTTTTTTTTTTTTTTTTTT FDIK        TELAPSE       60.82 TCPU     1052.68
 INSULATING STATE
 TOP OF VALENCE BANDS -    BAND    198; K    1; EIG -2.9175286E-01 AU
 BOTTOM OF VIRTUAL BANDS - BAND    199; K    1; EIG -1.8259871E-01 AU
 DIRECT ENERGY BAND GAP:   2.9702 eV
 TTTTTTTTTTTTTTTTTTTTTTTTTTTTTT PDIG        TELAPSE       62.45 TCPU     1059.69
 CHARGE NORMALIZATION FACTOR   1.00000000
 TOTAL ATOMIC CHARGES:
   4.1167947   4.1167947   4.1166593   4.1166593   4.1169111   4.1169111
   4.1166909   4.1166909   4.1165334   4.1165334   4.1166901   4.1166901
   0.7864143   0.7864143   0.7865244   0.7865244   0.7863722   0.7863721
   0.7864861   0.7864861   0.7863944   0.7863944   0.7865542   0.7865542
   0.7863852   0.7863852   0.7865165   0.7865165   0.7863717   0.7863717
   0.7865539   0.7865539   0.7863664   0.7863664   0.7865185   0.7865185
   6.0587424   6.0587424   6.2730151   6.2730151   6.2729640   6.2729640
   6.2729526   6.2729526   6.2728602   6.2728602   6.0579399   6.0579399
   6.0588227   6.0588227   6.2729653   6.2729653   6.2730383   6.2730383
   6.2729094   6.2729094   6.2730590   6.2730590   6.0574654   6.0574654
   6.0591216   6.0591216   6.2726866   6.2726866   6.2732494   6.2732494
   6.2726064   6.2726064   6.2732363   6.2732363   6.0574282   6.0574282
   8.7059524   8.7059524   8.7060511   8.7060511   8.7059959   8.7059959
   8.7063321   8.7063321   8.7063606   8.7063606   8.7065078   8.7065078
 TTTTTTTTTTTTTTTTTTTTTTTTTTTTTT MOQGAD      TELAPSE       62.56 TCPU     1059.80
 TTTTTTTTTTTTTTTTTTTTTTTTTTTTTT SHELLXN     TELAPSE       90.38 TCPU     1947.52
 TTTTTTTTTTTTTTTTTTTTTTTTTTTTTT MONMO3      TELAPSE       91.06 TCPU     1969.35
 NUMERICALLY INTEGRATED DENSITY    396.0000106238
 TTTTTTTTTTTTTTTTTTTTTTTTTTTTTT NUMDFT      TELAPSE       92.69 TCPU     2021.58
 CYC   1 ETOT(AU) -2.577598249310E+03 DETOT  1.44E+01 tst  0.00E+00 PX  1.00E+00
 TTTTTTTTTTTTTTTTTTTTTTTTTTTTTT DIIS        TELAPSE       92.83 TCPU     2026.02
 DIIS TEST: 0.23475E+01 AT SCF   CYCLE   1 - MIX   30 %
 TTTTTTTTTTTTTTTTTTTTTTTTTTTTTT FDIK        TELAPSE       94.67 TCPU     2084.67
 INSULATING STATE
 TOP OF VALENCE BANDS -    BAND    198; K    1; EIG -1.8826378E-01 AU
 BOTTOM OF VIRTUAL BANDS - BAND    199; K    1; EIG -1.0684820E-01 AU
 DIRECT ENERGY BAND GAP:   2.2154 eV
 TTTTTTTTTTTTTTTTTTTTTTTTTTTTTT PDIG        TELAPSE       96.30 TCPU     2091.68
 CHARGE NORMALIZATION FACTOR   1.00000000
 TOTAL ATOMIC CHARGES:
   4.6901496   4.6901496   4.6900672   4.6900672   4.6900542   4.6900542
   4.6907480   4.6907480   4.6907943   4.6907943   4.6908749   4.6908749
   0.9252530   0.9252530   0.9253167   0.9253167   0.9252367   0.9252367
   0.9252680   0.9252680   0.9252562   0.9252562   0.9253374   0.9253374
   0.9252476   0.9252476   0.9253050   0.9253050   0.9252140   0.9252140
   0.9253455   0.9253455   0.9252027   0.9252027   0.9253350   0.9253350
   5.8663504   5.8663504   6.1207226   6.1207226   6.1213083   6.1213083
   6.1206233   6.1206233   6.1212942   6.1212942   5.8692841   5.8692841
   5.8661984   5.8661984   6.1204174   6.1204174   6.1212989   6.1212989
   6.1206943   6.1206943   6.1212077   6.1212077   5.8696812   5.8696812
   5.8663131   5.8663131   6.1206771   6.1206771   6.1211385   6.1211385
   6.1209199   6.1209199   6.1210727   6.1210727   5.8694327   5.8694327
   8.3490777   8.3490777   8.3494667   8.3494667   8.3494464   8.3494464
   8.3489162   8.3489162   8.3490887   8.3490887   8.3493634   8.3493634
 TTTTTTTTTTTTTTTTTTTTTTTTTTTTTT MOQGAD      TELAPSE       96.41 TCPU     2091.79
 TTTTTTTTTTTTTTTTTTTTTTTTTTTTTT SHELLXN     TELAPSE      124.11 TCPU     2975.87
 TTTTTTTTTTTTTTTTTTTTTTTTTTTTTT MONMO3      TELAPSE      124.82 TCPU     2998.53
 NUMERICALLY INTEGRATED DENSITY    396.0000269961
 TTTTTTTTTTTTTTTTTTTTTTTTTTTTTT NUMDFT      TELAPSE      126.51 TCPU     3052.35
 CYC   2 ETOT(AU) -2.577984024289E+03 DETOT -3.86E-01 tst  4.46E-03 PX  1.56E-01
 TTTTTTTTTTTTTTTTTTTTTTTTTTTTTT DIIS        TELAPSE      126.67 TCPU     3057.55
 DIIS TEST: 0.10415E+01 AT SCF   CYCLE   2 - DIIS ACTIVE - HISTORY:     2 CYCLES
 TTTTTTTTTTTTTTTTTTTTTTTTTTTTTT FDIK        TELAPSE      128.53 TCPU     3116.95
 INSULATING STATE
 TOP OF VALENCE BANDS -    BAND    198; K    1; EIG -2.0734919E-01 AU
 BOTTOM OF VIRTUAL BANDS - BAND    199; K    1; EIG -1.0152943E-01 AU
 DIRECT ENERGY BAND GAP:   2.8795 eV
 TTTTTTTTTTTTTTTTTTTTTTTTTTTTTT PDIG        TELAPSE      130.18 TCPU     3123.98
 CHARGE NORMALIZATION FACTOR   1.00000000
 TOTAL ATOMIC CHARGES:
   4.4643903   4.4643903   4.4641899   4.4641899   4.4643092   4.4643092
   4.4636123   4.4636123   4.4634666   4.4634666   4.4635339   4.4635339
   0.8940475   0.8940475   0.8941492   0.8941492   0.8940239   0.8940239
   0.8941164   0.8941164   0.8939961   0.8939961   0.8942252   0.8942252
   0.8940558   0.8940558   0.8941260   0.8941260   0.8940131   0.8940131
   0.8941790   0.8941790   0.8940632   0.8940632   0.8941263   0.8941263
   5.9001046   5.9001046   6.1673211   6.1673211   6.1663793   6.1663793
   6.1673051   6.1673051   6.1662890   6.1662890   5.8979875   5.8979875
   5.9003487   5.9003487   6.1673381   6.1673381   6.1663179   6.1663179
   6.1673887   6.1673887   6.1663123   6.1663123   5.8975179   5.8975179
   5.9004978   5.9004978   6.1672110   6.1672110   6.1664611   6.1664611
   6.1672261   6.1672261   6.1663955   6.1663955   5.8975148   5.8975148
   8.5151201   8.5151201   8.5152620   8.5152620   8.5152654   8.5152654
   8.5151933   8.5151933   8.5152440   8.5152440   8.5153750   8.5153750
 TTTTTTTTTTTTTTTTTTTTTTTTTTTTTT MOQGAD      TELAPSE      130.29 TCPU     3124.09
 TTTTTTTTTTTTTTTTTTTTTTTTTTTTTT SHELLXN     TELAPSE      158.07 TCPU     4010.64
 TTTTTTTTTTTTTTTTTTTTTTTTTTTTTT MONMO3      TELAPSE      158.78 TCPU     4033.34
 NUMERICALLY INTEGRATED DENSITY    396.0000199033
 TTTTTTTTTTTTTTTTTTTTTTTTTTTTTT NUMDFT      TELAPSE      160.44 TCPU     4086.42
 CYC   3 ETOT(AU) -2.578197857364E+03 DETOT -2.14E-01 tst  7.22E-04 PX  5.71E-02
 TTTTTTTTTTTTTTTTTTTTTTTTTTTTTT DIIS        TELAPSE      160.63 TCPU     4092.43
 DIIS TEST: 0.20592E-01 AT SCF   CYCLE   3 - DIIS ACTIVE - HISTORY:     3 CYCLES
 TTTTTTTTTTTTTTTTTTTTTTTTTTTTTT FDIK        TELAPSE      162.49 TCPU     4151.75
 INSULATING STATE
 TOP OF VALENCE BANDS -    BAND    198; K    1; EIG -2.1556056E-01 AU
 BOTTOM OF VIRTUAL BANDS - BAND    199; K    1; EIG -1.1220135E-01 AU
 DIRECT ENERGY BAND GAP:   2.8125 eV
 TTTTTTTTTTTTTTTTTTTTTTTTTTTTTT PDIG        TELAPSE      164.12 TCPU     4158.78
 CHARGE NORMALIZATION FACTOR   1.00000000
 TOTAL ATOMIC CHARGES:
   4.4742848   4.4742848   4.4741721   4.4741721   4.4742352   4.4742352
   4.4753722   4.4753722   4.4752893   4.4752893   4.4754032   4.4754032
   0.8793713   0.8793713   0.8794073   0.8794073   0.8793569   0.8793569
   0.8793596   0.8793596   0.8793775   0.8793775   0.8794332   0.8794332
   0.8793981   0.8793981   0.8793684   0.8793684   0.8793553   0.8793553
   0.8794193   0.8794193   0.8793691   0.8793691   0.8793929   0.8793929
   5.9524613   5.9524613   6.1581193   6.1581193   6.1601094   6.1601094
   6.1580713   6.1580713   6.1601331   6.1601331   5.9586408   5.9586408
   5.9521413   5.9521413   6.1578695   6.1578695   6.1602341   6.1602341
   6.1579046   6.1579046   6.1603033   6.1603033   5.9589196   5.9589196
   5.9524158   5.9524158   6.1579521   6.1579521   6.1602217   6.1602217
   6.1579392   6.1579392   6.1602570   6.1602570   5.9586787   5.9586787
   8.4924285   8.4924285   8.4927494   8.4927494   8.4927357   8.4927357
   8.4926129   8.4926129   8.4927092   8.4927092   8.4930267   8.4930267
 TTTTTTTTTTTTTTTTTTTTTTTTTTTTTT MOQGAD      TELAPSE      164.26 TCPU     4158.89
 TTTTTTTTTTTTTTTTTTTTTTTTTTTTTT SHELLXN     TELAPSE      191.88 TCPU     5040.45
 TTTTTTTTTTTTTTTTTTTTTTTTTTTTTT MONMO3      TELAPSE      192.57 TCPU     5062.59
 NUMERICALLY INTEGRATED DENSITY    396.0000194931
 TTTTTTTTTTTTTTTTTTTTTTTTTTTTTT NUMDFT      TELAPSE      194.23 TCPU     5115.44
 CYC   4 ETOT(AU) -2.578201783238E+03 DETOT -3.93E-03 tst  3.48E-05 PX  1.31E-02
 TTTTTTTTTTTTTTTTTTTTTTTTTTTTTT DIIS        TELAPSE      194.43 TCPU     5121.98
 DIIS TEST: 0.72333E-02 AT SCF   CYCLE   4 - DIIS ACTIVE - HISTORY:     4 CYCLES
 TTTTTTTTTTTTTTTTTTTTTTTTTTTTTT FDIK        TELAPSE      196.30 TCPU     5181.64
 INSULATING STATE
 TOP OF VALENCE BANDS -    BAND    198; K    1; EIG -2.1478631E-01 AU
 BOTTOM OF VIRTUAL BANDS - BAND    199; K    1; EIG -1.1050898E-01 AU
 DIRECT ENERGY BAND GAP:   2.8375 eV
 TTTTTTTTTTTTTTTTTTTTTTTTTTTTTT PDIG        TELAPSE      197.93 TCPU     5188.64
 CHARGE NORMALIZATION FACTOR   1.00000000
 TOTAL ATOMIC CHARGES:
   4.4764085   4.4764085   4.4762235   4.4762235   4.4763283   4.4763283
   4.4753132   4.4753132   4.4751956   4.4751956   4.4752707   4.4752707
   0.8818634   0.8818634   0.8820480   0.8820480   0.8818370   0.8818370
   0.8820164   0.8820164   0.8818208   0.8818208   0.8821195   0.8821195
   0.8818530   0.8818530   0.8820434   0.8820434   0.8818216   0.8818216
   0.8820859   0.8820859   0.8818474   0.8818474   0.8820490   0.8820490
   5.9291334   5.9291334   6.1683577   6.1683577   6.1660813   6.1660813
   6.1683429   6.1683429   6.1660230   6.1660230   5.9235287   5.9235287
   5.9294141   5.9294141   6.1683297   6.1683297   6.1660181   6.1660181
   6.1684952   6.1684952   6.1659302   6.1659302   5.9231228   5.9231228
   5.9295146   5.9295146   6.1682665   6.1682665   6.1661259   6.1661259
   6.1684038   6.1684038   6.1659823   6.1659823   5.9231032   5.9231032
   8.4995925   8.4995925   8.4997564   8.4997564   8.4997446   8.4997446
   8.4994310   8.4994310   8.4995100   8.4995100   8.4996469   8.4996469
 TTTTTTTTTTTTTTTTTTTTTTTTTTTTTT MOQGAD      TELAPSE      198.04 TCPU     5188.75
 TTTTTTTTTTTTTTTTTTTTTTTTTTTTTT SHELLXN     TELAPSE      225.84 TCPU     6075.85
 TTTTTTTTTTTTTTTTTTTTTTTTTTTTTT MONMO3      TELAPSE      226.55 TCPU     6098.66
 NUMERICALLY INTEGRATED DENSITY    396.0000198171
 TTTTTTTTTTTTTTTTTTTTTTTTTTTTTT NUMDFT      TELAPSE      228.24 TCPU     6152.47
 CYC   5 ETOT(AU) -2.578203280002E+03 DETOT -1.50E-03 tst  8.85E-06 PX  8.04E-03
 TTTTTTTTTTTTTTTTTTTTTTTTTTTTTT DIIS        TELAPSE      228.47 TCPU     6159.38
 DIIS TEST: 0.54676E-03 AT SCF   CYCLE   5 - DIIS ACTIVE - HISTORY:     5 CYCLES
 TTTTTTTTTTTTTTTTTTTTTTTTTTTTTT FDIK        TELAPSE      230.36 TCPU     6219.55
 INSULATING STATE
 TOP OF VALENCE BANDS -    BAND    198; K    1; EIG -2.1436650E-01 AU
 BOTTOM OF VIRTUAL BANDS - BAND    199; K    1; EIG -1.1004517E-01 AU
 DIRECT ENERGY BAND GAP:   2.8387 eV
 TTTTTTTTTTTTTTTTTTTTTTTTTTTTTT PDIG        TELAPSE      232.00 TCPU     6226.57
 CHARGE NORMALIZATION FACTOR   1.00000000
 TOTAL ATOMIC CHARGES:
   4.4745797   4.4745797   4.4744485   4.4744485   4.4745180   4.4745180
   4.4761891   4.4761891   4.4761020   4.4761020   4.4762000   4.4762000
   0.8831496   0.8831496   0.8831004   0.8831004   0.8831335   0.8831335
   0.8830587   0.8830587   0.8831378   0.8831378   0.8831420   0.8831420
   0.8831768   0.8831768   0.8830606   0.8830606   0.8831284   0.8831284
   0.8831199   0.8831199   0.8831598   0.8831598   0.8830787   0.8830787
   5.9235274   5.9235274   6.1635347   6.1635347   6.1670978   6.1670978
   6.1635004   6.1635004   6.1670636   6.1670636   5.9337283   5.9337283
   5.9232836   5.9232836   6.1633748   6.1633748   6.1671625   6.1671625
   6.1633136   6.1633136   6.1672986   6.1672986   5.9338575   5.9338575
   5.9235530   5.9235530   6.1633994   6.1633994   6.1671846   6.1671846
   6.1632794   6.1632794   6.1672937   6.1672937   5.9336663   5.9336663
   8.4988590   8.4988590   8.4991506   8.4991506   8.4991548   8.4991548
   8.4992689   8.4992689   8.4993350   8.4993350   8.4996287   8.4996287
 TTTTTTTTTTTTTTTTTTTTTTTTTTTTTT MOQGAD      TELAPSE      232.11 TCPU     6226.68
 TTTTTTTTTTTTTTTTTTTTTTTTTTTTTT SHELLXN     TELAPSE      259.51 TCPU     7101.23
 TTTTTTTTTTTTTTTTTTTTTTTTTTTTTT MONMO3      TELAPSE      260.19 TCPU     7123.03
 NUMERICALLY INTEGRATED DENSITY    396.0000198405
 TTTTTTTTTTTTTTTTTTTTTTTTTTTTTT NUMDFT      TELAPSE      261.82 TCPU     7175.17
 CYC   6 ETOT(AU) -2.578203219340E+03 DETOT  6.07E-05 tst  4.62E-06 PX  2.51E-03
 TTTTTTTTTTTTTTTTTTTTTTTTTTTTTT DIIS        TELAPSE      262.08 TCPU     7182.11
 DIIS TEST: 0.76999E-03 AT SCF   CYCLE   6 - DIIS ACTIVE - HISTORY:     6 CYCLES
 TTTTTTTTTTTTTTTTTTTTTTTTTTTTTT FDIK        TELAPSE      263.94 TCPU     7241.43
 INSULATING STATE
 TOP OF VALENCE BANDS -    BAND    198; K    1; EIG -2.1436129E-01 AU
 BOTTOM OF VIRTUAL BANDS - BAND    199; K    1; EIG -1.1005127E-01 AU
 DIRECT ENERGY BAND GAP:   2.8384 eV
 TTTTTTTTTTTTTTTTTTTTTTTTTTTTTT PDIG        TELAPSE      265.57 TCPU     7248.43
 CHARGE NORMALIZATION FACTOR   1.00000000
 TOTAL ATOMIC CHARGES:
   4.4755480   4.4755480   4.4753943   4.4753943   4.4754795   4.4754795
   4.4754279   4.4754279   4.4753264   4.4753264   4.4754166   4.4754166
   0.8831205   0.8831205   0.8832293   0.8832293   0.8831016   0.8831016
   0.8831898   0.8831898   0.8831004   0.8831004   0.8832792   0.8832792
   0.8831329   0.8831329   0.8832036   0.8832036   0.8830944   0.8830944
   0.8832524   0.8832524   0.8831191   0.8831191   0.8832174   0.8832174
   5.9295558   5.9295558   6.1650233   6.1650233   6.1647918   6.1647918
   6.1649863   6.1649863   6.1647636   6.1647637   5.9296115   5.9296115
   5.9295314   5.9295314   6.1648916   6.1648916   6.1648260   6.1648260
   6.1649696   6.1649696   6.1648300   6.1648300   5.9295228   5.9295228
   5.9297353   5.9297353   6.1648808   6.1648808   6.1648858   6.1648858
   6.1649200   6.1649200   6.1648419   6.1648419   5.9293951   5.9293951
   8.4987407   8.4987407   8.4989723   8.4989723   8.4989653   8.4989653
   8.4987828   8.4987828   8.4988607   8.4988607   8.4990824   8.4990824
 TTTTTTTTTTTTTTTTTTTTTTTTTTTTTT MOQGAD      TELAPSE      265.68 TCPU     7248.54
 TTTTTTTTTTTTTTTTTTTTTTTTTTTTTT SHELLXN     TELAPSE      292.09 TCPU     8091.31
 TTTTTTTTTTTTTTTTTTTTTTTTTTTTTT MONMO3      TELAPSE      292.77 TCPU     8113.11
 NUMERICALLY INTEGRATED DENSITY    396.0000198326
 TTTTTTTTTTTTTTTTTTTTTTTTTTTTTT NUMDFT      TELAPSE      294.40 TCPU     8165.21
 CYC   7 ETOT(AU) -2.578203409264E+03 DETOT -1.90E-04 tst  1.86E-06 PX  1.49E-03
 TTTTTTTTTTTTTTTTTTTTTTTTTTTTTT DIIS        TELAPSE      294.72 TCPU     8172.14
 DIIS TEST: 0.59771E-05 AT SCF   CYCLE   7 - DIIS ACTIVE - HISTORY:     7 CYCLES
 TTTTTTTTTTTTTTTTTTTTTTTTTTTTTT FDIK        TELAPSE      296.56 TCPU     8230.64
 INSULATING STATE
 TOP OF VALENCE BANDS -    BAND    198; K    1; EIG -2.1443508E-01 AU
 BOTTOM OF VIRTUAL BANDS - BAND    199; K    1; EIG -1.1013579E-01 AU
 DIRECT ENERGY BAND GAP:   2.8381 eV
 TTTTTTTTTTTTTTTTTTTTTTTTTTTTTT PDIG        TELAPSE      298.19 TCPU     8237.64
 CHARGE NORMALIZATION FACTOR   1.00000000
 TOTAL ATOMIC CHARGES:
   4.4757638   4.4757638   4.4755973   4.4755973   4.4756899   4.4756899
   4.4757438   4.4757438   4.4756360   4.4756360   4.4757199   4.4757199
   0.8829677   0.8829677   0.8830566   0.8830566   0.8829452   0.8829452
   0.8830209   0.8830209   0.8829368   0.8829368   0.8831171   0.8831171
   0.8829712   0.8829712   0.8830395   0.8830395   0.8829337   0.8829337
   0.8830876   0.8830876   0.8829611   0.8829611   0.8830497   0.8830497
   5.9288200   5.9288200   6.1651355   6.1651355   6.1651856   6.1651856
   6.1651140   6.1651140   6.1651404   6.1651405   5.9295382   5.9295382
   5.9289149   5.9289149   6.1650573   6.1650573   6.1651688   6.1651688
   6.1651505   6.1651505   6.1651544   6.1651544   5.9293286   5.9293286
   5.9290747   5.9290747   6.1650287   6.1650287   6.1652453   6.1652453
   6.1650832   6.1650832   6.1651843   6.1651843   5.9292450   5.9292450
   8.4987100   8.4987100   8.4989218   8.4989218   8.4989136   8.4989136
   8.4987660   8.4987660   8.4988437   8.4988437   8.4990382   8.4990382
 TTTTTTTTTTTTTTTTTTTTTTTTTTTTTT MOQGAD      TELAPSE      298.30 TCPU     8237.76
 TTTTTTTTTTTTTTTTTTTTTTTTTTTTTT SHELLXN     TELAPSE      324.71 TCPU     9080.60
 TTTTTTTTTTTTTTTTTTTTTTTTTTTTTT MONMO3      TELAPSE      325.39 TCPU     9102.41
 NUMERICALLY INTEGRATED DENSITY    396.0000198290
 TTTTTTTTTTTTTTTTTTTTTTTTTTTTTT NUMDFT      TELAPSE      327.03 TCPU     9154.62
 CYC   8 ETOT(AU) -2.578203410774E+03 DETOT -1.51E-06 tst  6.37E-09 PX  1.76E-04
 TTTTTTTTTTTTTTTTTTTTTTTTTTTTTT DIIS        TELAPSE      327.33 TCPU     9161.54
 DIIS TEST: 0.12975E-06 AT SCF   CYCLE   8 - DIIS ACTIVE - HISTORY:     8 CYCLES
 TTTTTTTTTTTTTTTTTTTTTTTTTTTTTT FDIK        TELAPSE      329.17 TCPU     9220.14
 INSULATING STATE
 TOP OF VALENCE BANDS -    BAND    198; K    1; EIG -2.1442100E-01 AU
 BOTTOM OF VIRTUAL BANDS - BAND    199; K    1; EIG -1.1013448E-01 AU
 DIRECT ENERGY BAND GAP:   2.8378 eV
 TTTTTTTTTTTTTTTTTTTTTTTTTTTTTT PDIG        TELAPSE      330.79 TCPU     9227.14
 CHARGE NORMALIZATION FACTOR   1.00000000
 TOTAL ATOMIC CHARGES:
   4.4757143   4.4757143   4.4755676   4.4755676   4.4756480   4.4756480
   4.4756878   4.4756878   4.4755913   4.4755913   4.4756833   4.4756833
   0.8829764   0.8829764   0.8830806   0.8830806   0.8829582   0.8829582
   0.8830406   0.8830406   0.8829585   0.8829585   0.8831283   0.8831283
   0.8829922   0.8829922   0.8830514   0.8830514   0.8829514   0.8829514
   0.8831027   0.8831027   0.8829774   0.8829774   0.8830663   0.8830663
   5.9289996   5.9289996   6.1651321   6.1651321   6.1650732   6.1650732
   6.1650960   6.1650960   6.1650435   6.1650435   5.9295116   5.9295116
   5.9289192   5.9289192   6.1649930   6.1649930   6.1651152   6.1651152
   6.1650355   6.1650355   6.1651543   6.1651543   5.9294785   5.9294785
   5.9291384   5.9291384   6.1649919   6.1649919   6.1651648   6.1651648
   6.1649908   6.1649908   6.1651611   6.1651611   5.9293355   5.9293355
   8.4987356   8.4987356   8.4989816   8.4989816   8.4989783   8.4989783
   8.4988023   8.4988023   8.4988763   8.4988763   8.4991155   8.4991155
 TTTTTTTTTTTTTTTTTTTTTTTTTTTTTT MOQGAD      TELAPSE      330.90 TCPU     9227.25
 TTTTTTTTTTTTTTTTTTTTTTTTTTTTTT SHELLXN     TELAPSE      358.59 TCPU    10110.75
 TTTTTTTTTTTTTTTTTTTTTTTTTTTTTT MONMO3      TELAPSE      359.29 TCPU    10133.26
 NUMERICALLY INTEGRATED DENSITY    396.0000198272
 TTTTTTTTTTTTTTTTTTTTTTTTTTTTTT NUMDFT      TELAPSE      360.96 TCPU    10186.65
 CYC   9 ETOT(AU) -2.578203410678E+03 DETOT  9.61E-08 tst  3.78E-10 PX  3.19E-05
 TTTTTTTTTTTTTTTTTTTTTTTTTTTTTT DIIS        TELAPSE      361.28 TCPU    10193.64
 DIIS TEST: 0.85472E-07 AT SCF   CYCLE   9 - DIIS ACTIVE - HISTORY:     9 CYCLES
 TTTTTTTTTTTTTTTTTTTTTTTTTTTTTT FDIK        TELAPSE      363.14 TCPU    10252.80
 INSULATING STATE
 TOP OF VALENCE BANDS -    BAND    198; K    1; EIG -2.1442546E-01 AU
 BOTTOM OF VIRTUAL BANDS - BAND    199; K    1; EIG -1.1013211E-01 AU
 DIRECT ENERGY BAND GAP:   2.8380 eV
 TTTTTTTTTTTTTTTTTTTTTTTTTTTTTT PDIG        TELAPSE      364.77 TCPU    10259.81
 CHARGE NORMALIZATION FACTOR   1.00000000
 TOTAL ATOMIC CHARGES:
   4.4757146   4.4757146   4.4755531   4.4755531   4.4756430   4.4756430
   4.4756900   4.4756900   4.4755844   4.4755844   4.4756709   4.4756709
   0.8829767   0.8829767   0.8830706   0.8830706   0.8829558   0.8829558
   0.8830332   0.8830332   0.8829507   0.8829507   0.8831263   0.8831263
   0.8829834   0.8829834   0.8830503   0.8830503   0.8829464   0.8829464
   0.8830979   0.8830979   0.8829718   0.8829718   0.8830621   0.8830621
   5.9289189   5.9289189   6.1651120   6.1651120   6.1651274   6.1651274
   6.1650819   6.1650819   6.1650913   6.1650913   5.9295821   5.9295821
   5.9289708   5.9289708   6.1650086   6.1650086   6.1651348   6.1651348
   6.1651050   6.1651050   6.1651185   6.1651185   5.9294161   5.9294161
   5.9291479   5.9291479   6.1649858   6.1649858   6.1652058   6.1652058
   6.1650453   6.1650453   6.1651405   6.1651405   5.9293152   5.9293152
   8.4987434   8.4987434   8.4989602   8.4989602   8.4989517   8.4989517
   8.4987988   8.4987988   8.4988773   8.4988773   8.4990795   8.4990795
 TTTTTTTTTTTTTTTTTTTTTTTTTTTTTT MOQGAD      TELAPSE      364.90 TCPU    10259.92
 TTTTTTTTTTTTTTTTTTTTTTTTTTTTTT SHELLXN     TELAPSE      392.80 TCPU    11150.45
 +++ ENERGIES IN A.U. +++
 ::: EXT EL-POLE                                  -2.8946382724655E+03
 ::: EXT EL-SPHEROPOLE                             3.2697474623795E+01
 ::: BIELET ZONE E-E                               4.8210282233838E+03
 ::: TOTAL E-E                                     1.9590874255420E+03
 ::: TOTAL E-N + N-E                              -7.5681729016138E+03
 ::: TOTAL N-N                                     7.3835330801020E+02
 ::: KINETIC ENERGY                                2.5599840435773E+03
 ::: PSEUDO TOTAL   ENERGY                        -2.3107481244843E+03
 ::: VIRIAL COEFFICIENT                            1.0511701137515E+00
 TTTTTTTTTTTTTTTTTTTTTTTTTTTTTT MONMO3      TELAPSE      393.49 TCPU    11172.29
 NUMERICALLY INTEGRATED DENSITY    396.0000198278
 EXCHANGE ENERGY: -0.252045384120E+03  CORRELATION ENERGY: -0.154099021457E+02
 TTTTTTTTTTTTTTTTTTTTTTTTTTTTTT NUMDFT      TELAPSE      395.12 TCPU    11224.44
 CYC  10 ETOT(AU) -2.578203410750E+03 DETOT -7.21E-08 tst  1.98E-10 PX  3.19E-05

 == SCF ENDED - CONVERGENCE ON ENERGY      E(AU) -2.5782034107497E+03 CYCLES  10


 ENERGY EXPRESSION=HARTREE+FOCK EXCH*0.00000+(HSESOL     EXCH)*1.00000+PBESOL     CORR


 TOTAL ENERGY(DFT)(AU)( 10) -2.5782034107497E+03 DE-7.2E-08 tester 2.0E-10
 TTTTTTTTTTTTTTTTTTTTTTTTTTTTTT EDFT        TELAPSE      395.12 TCPU    11224.45
 
 INFORMATION **** DFTD3 ENERGY **** CALCULATE DFTD3 ENERGY

           DFT-D V3(BJ)
 DF                                         hsesol3c  
 parameters
 s6       :    1.0000
 s8       :    0.0000
 a1       :    0.5196
 a2       :    4.9385
 k1 k3    :   16.0000   -4.0000
 Cutoff   :   50.2022
 CN-Cutoff:   21.1671
 ABC-Cutoff:   21.1671
 
 Edisp /kcal,au:   -61.4010 -0.09784870

 E6    /kcal :   -65.7787
 E8    /kcal :     0.0000
 E6(ABC) "   :   4.377722
 
 INFORMATION **** DFTD3 ENERGY **** NORMAL TERMINATION OF DFTD3 MODULE

 GCP ENERGY CALCULATION
  level        hsesol3c            basis:hsesol3c
  Nbf            948
  Atoms           84

  Parameters: 
  sigma     1.0000
  eta       1.4281
  alpha     0.2936
  beta      1.9467

  dmp_scal      4.0000
  dmp_exp       6.0000
 cutoffs: 
   distance [bohr] 60.0
   noise    [a.u.] 2.2E-16
 SR-damping   T
 ** gCP correction **
  Egcp:        0.1675477360 / (a.u.) ||     105.1378 / (kcal/mol)
 INFORMATION **** GCP **** NORMAL TERMINATION OF GCP MODULE

 *******************************************************************************

 DFT-D3-GCP DISPERSION AND COUNTERPOISE CORRECTION

 D3 DISPERSION ENERGY (AU)      -9.7848695042463E-02
 GCP ENERGY (AU)                 1.6754773596673E-01
 TOTAL ENERGY + DISP + GCP (AU) -2.5781337117088E+03

 *******************************************************************************

 EIGENVECTORS IN FORTRAN UNIT  8
 TTTTTTTTTTTTTTTTTTTTTTTTTTTTTT END         TELAPSE      398.45 TCPU    11233.68
 EEEEEEEEEE TERMINATION  DATE 19 02 2026 TIME 20:12:50.9
