 Default number of threads is:           32

         
 *******************************************************************************
 *                                                                             *
 *                               CRYSTAL23                                     *
 *                      public : 1.0.1 - October 2022                          *
 *                       HTTP://WWW.CRYSTAL.UNITO.IT                           *
 *                                                                             *
 *                              MAIN AUTHORS                                   *
 *                                                                             *
 *  R. DOVESI(1,11), V.R. SAUNDERS(2), C. ROETTI(1,11), R. ORLANDO(1,11),      *
 *  C.M. ZICOVICH-WILSON(1,3), F. PASCALE(4), B. CIVALLERI(1,11),              *
 *  K. DOLL(5), N.M. HARRISON(6), I.J. BUSH(7), Ph. D'ARCO(8),                 *
 *  M. LLUNELL(9), M. CAUSA'(10), Y. NOEL(8), L. MASCHIO(1,11), A. ERBA(1,11)  *
 *  M. RE'RAT(14), S. CASASSA(1,11), B.G. SEARLE(2), J.K. DESMARAIS(1)         *
 *                                                                             *
 *        CONTRIBUTIONS TO THE CODE HAVE ALSO BEEN GIVEN BY                    *
 *                                                                             *
 *  M. FERRABONE(1,11), M. DE LA PIERRE(1,11), M. FERRERO(1,11),               *
 *  J. BAIMA(1,11), E. ALBANESE(1,11), M.F. PEINTINGER(12), R. BAST(13),       *
 *  B. KIRTMAN(15), V. LACIVITA(1,11), R. DEMICHELIS(1,16)                     *
 *  G. BRANDEBURG(17), S. SALUSTRO(1,11), G. SANSONE(1,11)                     *
 *  M.T. RUGGIERO(18), L.E. DAGA(1), L. DONA'(1), A. COSSARD(1)                *
 *                                                                             *
 * (1) THEORETICAL CHEMISTRY GROUP - UNIVERSITA' DI TORINO - TORINO (ITALY)    *
 * (2) SCIENTIFIC COMPUTING DEPARTMENT - STFC DARESBURY (UK)                   *
 * (3) UNIVERSIDAD AUTONOMA DEL ESTADO DE MORELOS - CUERNAVACA (MEXICO)        *
 * (4) UNIVERSITE' DE LORRAINE - NANCY (FRANCE)                                *
 * (5) UNIVERSITAET STUTTGART- STUTTGART (GERMANY)                             *
 * (6) IMPERIAL COLLEGE - LONDON (UK)                                          *
 * (7) SCIENTIFIC COMPUTING DEPARTMENT - STFC RAL (UK)                         *
 * (8) UPMC - SORBONNE UNIVERSITES - PARIS (FRANCE)                            *
 * (9) UNIVERSIDAD DE BARCELONA - BARCELONA (SPAIN)                            *
 *(10) UNIVERSITA' DI NAPOLI "FEDERICO II" - NAPOLI (ITALY)                    *
 *(11) NIS - NANOSTRUCTURED INTERFACES AND SURFACES - TORINO (ITALY)           *
 *(12) MPI FUER CHEMISCHE ENERGIEKONVERSION - MUELHEIM AN DER RUHR (GERMANY)   *
 *(13) UNIVERSITY OF TROMSO - TROMSO (NORWAY)                                  *
 *(14) UNIVERSITE' DE PAU ET DES PAYS DE L'ADOUR - PAU (FRANCE)                *
 *(15) UNIVERSITY OF CALIFORNIA SANTA BARBARA - SANTA BARBARA (USA)            *
 *(16) CURTIN UNIVERSITY - PERTH (AUSTRALIA)                                   *
 *(17) UNIVERSITY COLLEGE LONDON - LONDON (UK)                                 *
 *(18) UNIVERSITY OF VERMONT - BURLINGTON (USA)                                *
 *                                                                             *
 *******************************************************************************
 EEEEEEEEEE STARTING  DATE 19 02 2026 TIME 18:55:37.9
 cof-1_z38_L010_incl                                                             

 CRYSTAL CALCULATION
 (INPUT ACCORDING TO THE INTERNATIONAL TABLES FOR X-RAY CRYSTALLOGRAPHY)
 CRYSTAL FAMILY                       :  TRICLINIC   
 CRYSTAL CLASS  (GROTH - 1921)        :  TRICLINIC PEDIAL                     

 SPACE GROUP (NONCENTROSYMMETRIC)     :  P 1             

 LATTICE PARAMETERS  (ANGSTROMS AND DEGREES) - CONVENTIONAL CELL
        A           B           C        ALPHA        BETA       GAMMA
    15.02361    15.02392     3.92938    77.26740    89.99994   119.99596


 NUMBER OF IRREDUCIBLE ATOMS IN THE CONVENTIONAL CELL:   42

 INPUT COORDINATES

 ATOM AT. N.              COORDINATES
   1   5     5.944206300000E-01  1.887944900000E-01  5.012562500000E-01
   2   5     7.534762900000E-01  3.478541500000E-01  5.012562700000E-01
   3   5     5.945179100000E-01  3.480400600000E-01  4.986133200000E-01
   4   5     2.079953400000E-01  5.751094900000E-01  5.012562700000E-01
   5   5     3.671033100000E-01  5.750887200000E-01  5.012562600000E-01
   6   5     3.671851400000E-01  7.344310400000E-01  4.986133200000E-01
   7   1     8.839942500000E-01  2.708274300000E-01  4.957769200000E-01
   8   1     7.761735000000E-02  6.530152100000E-01  4.949390300000E-01
   9   1     8.839592000000E-01  5.560441100000E-01  4.948100800000E-01
  10   1     7.772272000000E-02  3.676541500000E-01  4.948422400000E-01
  11   1     6.716585500000E-01  5.825249000000E-02  5.042215600000E-01
  12   1     2.895236800000E-01  8.646212800000E-01  5.050595000000E-01
  13   1     3.864589900000E-01  5.822404000000E-02  5.051885300000E-01
  14   1     5.749024500000E-01  8.645238600000E-01  5.051561500000E-01
  15   1     6.720233600000E-01  5.559515900000E-01  4.957769700000E-01
  16   1     2.899446500000E-01  3.675711100000E-01  4.949389800000E-01
  17   1     3.868283500000E-01  2.707949400000E-01  4.948099800000E-01
  18   1     5.752774200000E-01  6.529271400000E-01  4.948423400000E-01
  19   6     8.727356700000E-01  4.076305100000E-01  4.985166200000E-01
  20   6     9.274347800000E-01  3.546731000000E-01  4.959058600000E-01
  21   6     3.434246000000E-02  5.690901000000E-01  4.956803300000E-01
  22   6     9.273804400000E-01  5.155449700000E-01  4.963571800000E-01
  23   6     3.442155000000E-02  4.082365200000E-01  4.946166200000E-01
  24   6     8.896298000000E-02  5.158859400000E-01  4.963893800000E-01
  25   6     5.347708400000E-01  6.962739000000E-02  5.014818900000E-01
  26   6     5.878089600000E-01  1.481422000000E-02  5.040926000000E-01
  27   6     3.734211100000E-01  9.079041000000E-01  5.043182200000E-01
  28   6     4.269360300000E-01  1.489582000000E-02  5.036413900000E-01
  29   6     5.342984200000E-01  9.077827600000E-01  5.053818200000E-01
  30   6     4.265776000000E-01  8.532875000000E-01  5.036091200000E-01
  31   6     5.348902300000E-01  4.075613700000E-01  4.985166100000E-01
  32   6     5.881558900000E-01  5.155132400000E-01  4.959059200000E-01
  33   6     3.737777100000E-01  4.080768400000E-01  4.956802700000E-01
  34   6     4.272155900000E-01  3.545427800000E-01  4.963571000000E-01
  35   6     5.347381700000E-01  5.690845500000E-01  4.946166900000E-01
  36   6     4.268870700000E-01  5.158085400000E-01  4.963893800000E-01
  37   8     5.415510800000E-01  2.419955200000E-01  4.993223900000E-01
  38   8     7.002818500000E-01  2.415746900000E-01  5.048983500000E-01
  39   8     7.006028000000E-01  4.011663400000E-01  4.964860900000E-01
  40   8     2.611389100000E-01  6.812760000000E-01  4.993224200000E-01
  41   8     2.609441200000E-01  5.218919700000E-01  5.048983500000E-01
  42   8     4.201872200000E-01  6.814783000000E-01  4.964860700000E-01

 *******************************************************************************

 << INFORMATION >>: FROM NOW ON, ALL COORDINATES REFER TO THE PRIMITIVE CELL

 *******************************************************************************

 LATTICE PARAMETERS  (ANGSTROMS AND DEGREES) - PRIMITIVE CELL
       A          B          C        ALPHA      BETA     GAMMA        VOLUME
   15.02361   15.02392    3.92938    77.26740  89.99994 119.99596    742.831129

 COORDINATES OF THE EQUIVALENT ATOMS (FRACTIONAL UNITS)

 N. ATOM EQUIV AT. N.          X                  Y                  Z

   1   1   1    5 B    -4.05579370000E-01  1.88794490000E-01 -4.98743750000E-01

   2   2   1    5 B    -2.46523710000E-01  3.47854150000E-01 -4.98743730000E-01

   3   3   1    5 B    -4.05482090000E-01  3.48040060000E-01  4.98613320000E-01

   4   4   1    5 B     2.07995340000E-01 -4.24890510000E-01 -4.98743730000E-01

   5   5   1    5 B     3.67103310000E-01 -4.24911280000E-01 -4.98743740000E-01

   6   6   1    5 B     3.67185140000E-01 -2.65568960000E-01  4.98613320000E-01

   7   7   1    1 H    -1.16005750000E-01  2.70827430000E-01  4.95776920000E-01

   8   8   1    1 H     7.76173500000E-02 -3.46984790000E-01  4.94939030000E-01

   9   9   1    1 H    -1.16040800000E-01 -4.43955890000E-01  4.94810080000E-01

  10  10   1    1 H     7.77227200000E-02  3.67654150000E-01  4.94842240000E-01

  11  11   1    1 H    -3.28341450000E-01  5.82524900000E-02 -4.95778440000E-01

  12  12   1    1 H     2.89523680000E-01 -1.35378720000E-01 -4.94940500000E-01

  13  13   1    1 H     3.86458990000E-01  5.82240400000E-02 -4.94811470000E-01

  14  14   1    1 H    -4.25097550000E-01 -1.35476140000E-01 -4.94843850000E-01

  15  15   1    1 H    -3.27976640000E-01 -4.44048410000E-01  4.95776970000E-01

  16  16   1    1 H     2.89944650000E-01  3.67571110000E-01  4.94938980000E-01

  17  17   1    1 H     3.86828350000E-01  2.70794940000E-01  4.94809980000E-01

  18  18   1    1 H    -4.24722580000E-01 -3.47072860000E-01  4.94842340000E-01

  19  19   1    6 C    -1.27264330000E-01  4.07630510000E-01  4.98516620000E-01

  20  20   1    6 C    -7.25652200000E-02  3.54673100000E-01  4.95905860000E-01

  21  21   1    6 C     3.43424600000E-02 -4.30909900000E-01  4.95680330000E-01

  22  22   1    6 C    -7.26195600000E-02 -4.84455030000E-01  4.96357180000E-01

  23  23   1    6 C     3.44215500000E-02  4.08236520000E-01  4.94616620000E-01

  24  24   1    6 C     8.89629800000E-02 -4.84114060000E-01  4.96389380000E-01

  25  25   1    6 C    -4.65229160000E-01  6.96273900000E-02 -4.98518110000E-01

  26  26   1    6 C    -4.12191040000E-01  1.48142200000E-02 -4.95907400000E-01

  27  27   1    6 C     3.73421110000E-01 -9.20959000000E-02 -4.95681780000E-01

  28  28   1    6 C     4.26936030000E-01  1.48958200000E-02 -4.96358610000E-01

  29  29   1    6 C    -4.65701580000E-01 -9.22172400000E-02 -4.94618180000E-01

  30  30   1    6 C     4.26577600000E-01 -1.46712500000E-01 -4.96390880000E-01

  31  31   1    6 C    -4.65109770000E-01  4.07561370000E-01  4.98516610000E-01

  32  32   1    6 C    -4.11844110000E-01 -4.84486760000E-01  4.95905920000E-01

  33  33   1    6 C     3.73777710000E-01  4.08076840000E-01  4.95680270000E-01

  34  34   1    6 C     4.27215590000E-01  3.54542780000E-01  4.96357100000E-01

  35  35   1    6 C    -4.65261830000E-01 -4.30915450000E-01  4.94616690000E-01

  36  36   1    6 C     4.26887070000E-01 -4.84191460000E-01  4.96389380000E-01

  37  37   1    8 O    -4.58448920000E-01  2.41995520000E-01  4.99322390000E-01

  38  38   1    8 O    -2.99718150000E-01  2.41574690000E-01 -4.95101650000E-01

  39  39   1    8 O    -2.99397200000E-01  4.01166340000E-01  4.96486090000E-01

  40  40   1    8 O     2.61138910000E-01 -3.18724000000E-01  4.99322420000E-01

  41  41   1    8 O     2.60944120000E-01 -4.78108030000E-01 -4.95101650000E-01

  42  42   1    8 O     4.20187220000E-01 -3.18521700000E-01  4.96486070000E-01

 NUMBER OF SYMMETRY OPERATORS         :    1
 *******************************************************************************
 * GEOMETRY EDITING - INPUT COORDINATES ARE GIVEN IN ANGSTROM         
 *******************************************************************************

 GCALCO - MAX INDICES DIRECT LATTICE VECTOR     9    10    33
 NO.OF VECTORS CREATED 6999 STARS 3500 RMAX   202.63569 BOHR

 GEOMETRY FOR WAVE FUNCTION - DIMENSIONALITY OF THE SYSTEM    3
 (NON PERIODIC DIRECTION: LATTICE PARAMETER FORMALLY SET TO 500)
 *******************************************************************************
 LATTICE PARAMETERS (ANGSTROMS AND DEGREES) - BOHR = 0.5291772083 ANGSTROM
 PRIMITIVE CELL - CENTRING CODE 1/0 VOLUME=   742.831129 - DENSITY  0.872 g/cm^3
         A              B              C           ALPHA      BETA       GAMMA 
    15.02361100    15.02391600     3.92937700    77.267403  89.999945 119.995964
 *******************************************************************************
 ATOMS IN THE ASYMMETRIC UNIT   42 - ATOMS IN THE UNIT CELL:   42
     ATOM                 X/A                 Y/B                 Z/C    
 *******************************************************************************
      1 T   5 B    -4.055793700000E-01  1.887944900000E-01 -4.987437500000E-01
      2 T   5 B    -2.465237100000E-01  3.478541500000E-01 -4.987437300000E-01
      3 T   5 B    -4.054820900000E-01  3.480400600000E-01  4.986133200000E-01
      4 T   5 B     2.079953400000E-01 -4.248905100000E-01 -4.987437300000E-01
      5 T   5 B     3.671033100000E-01 -4.249112800000E-01 -4.987437400000E-01
      6 T   5 B     3.671851400000E-01 -2.655689600000E-01  4.986133200000E-01
      7 T   1 H    -1.160057500000E-01  2.708274300000E-01  4.957769200000E-01
      8 T   1 H     7.761735000000E-02 -3.469847900000E-01  4.949390300000E-01
      9 T   1 H    -1.160408000000E-01 -4.439558900000E-01  4.948100800000E-01
     10 T   1 H     7.772272000000E-02  3.676541500000E-01  4.948422400000E-01
     11 T   1 H    -3.283414500000E-01  5.825249000000E-02 -4.957784400000E-01
     12 T   1 H     2.895236800000E-01 -1.353787200000E-01 -4.949405000000E-01
     13 T   1 H     3.864589900000E-01  5.822404000000E-02 -4.948114700000E-01
     14 T   1 H    -4.250975500000E-01 -1.354761400000E-01 -4.948438500000E-01
     15 T   1 H    -3.279766400000E-01 -4.440484100000E-01  4.957769700000E-01
     16 T   1 H     2.899446500000E-01  3.675711100000E-01  4.949389800000E-01
     17 T   1 H     3.868283500000E-01  2.707949400000E-01  4.948099800000E-01
     18 T   1 H    -4.247225800000E-01 -3.470728600000E-01  4.948423400000E-01
     19 T   6 C    -1.272643300000E-01  4.076305100000E-01  4.985166200000E-01
     20 T   6 C    -7.256522000000E-02  3.546731000000E-01  4.959058600000E-01
     21 T   6 C     3.434246000000E-02 -4.309099000000E-01  4.956803300000E-01
     22 T   6 C    -7.261956000000E-02 -4.844550300000E-01  4.963571800000E-01
     23 T   6 C     3.442155000000E-02  4.082365200000E-01  4.946166200000E-01
     24 T   6 C     8.896298000000E-02 -4.841140600000E-01  4.963893800000E-01
     25 T   6 C    -4.652291600000E-01  6.962739000000E-02 -4.985181100000E-01
     26 T   6 C    -4.121910400000E-01  1.481422000000E-02 -4.959074000000E-01
     27 T   6 C     3.734211100000E-01 -9.209590000000E-02 -4.956817800000E-01
     28 T   6 C     4.269360300000E-01  1.489582000000E-02 -4.963586100000E-01
     29 T   6 C    -4.657015800000E-01 -9.221724000000E-02 -4.946181800000E-01
     30 T   6 C     4.265776000000E-01 -1.467125000000E-01 -4.963908800000E-01
     31 T   6 C    -4.651097700000E-01  4.075613700000E-01  4.985166100000E-01
     32 T   6 C    -4.118441100000E-01 -4.844867600000E-01  4.959059200000E-01
     33 T   6 C     3.737777100000E-01  4.080768400000E-01  4.956802700000E-01
     34 T   6 C     4.272155900000E-01  3.545427800000E-01  4.963571000000E-01
     35 T   6 C    -4.652618300000E-01 -4.309154500000E-01  4.946166900000E-01
     36 T   6 C     4.268870700000E-01 -4.841914600000E-01  4.963893800000E-01
     37 T   8 O    -4.584489200000E-01  2.419955200000E-01  4.993223900000E-01
     38 T   8 O    -2.997181500000E-01  2.415746900000E-01 -4.951016500000E-01
     39 T   8 O    -2.993972000000E-01  4.011663400000E-01  4.964860900000E-01
     40 T   8 O     2.611389100000E-01 -3.187240000000E-01  4.993224200000E-01
     41 T   8 O     2.609441200000E-01 -4.781080300000E-01 -4.951016500000E-01
     42 T   8 O     4.201872200000E-01 -3.185217000000E-01  4.964860700000E-01

 T = ATOM BELONGING TO THE ASYMMETRIC UNIT

 ****    1 SYMMOPS - TRANSLATORS IN FRACTIONAL UNITS
 **** MATRICES AND TRANSLATORS IN THE CRYSTALLOGRAPHIC REFERENCE FRAME
   V INV                    ROTATION MATRICES                   TRANSLATORS
   1   1  1.00 -0.00  0.00  0.00  1.00  0.00  0.00  0.00  1.00  0.00  0.00  0.00

 DIRECT LATTICE VECTORS CARTESIAN COMPONENTS (ANGSTROM)
          X                    Y                    Z
   0.130113578931E+02  -0.751088897922E+01   0.000000000000E+00
   0.000000000000E+00   0.150239160000E+02   0.000000000000E+00
   0.499931045292E+00   0.866039306681E+00   0.380000637860E+01


 CARTESIAN COORDINATES - PRIMITIVE CELL
 *******************************************************************************
 *      ATOM          X(ANGSTROM)         Y(ANGSTROM)         Z(ANGSTROM)
 *******************************************************************************
    1     5 B    -5.526475821381E+00  5.450762487892E+00 -1.895229431285E+00
    2     5 B    -3.456945694206E+00  6.645812072265E+00 -1.895229355284E+00
    3     5 B     7.484826533814E+00  3.293460351827E-01 -1.905272582143E+00
    4     5 B     2.456964334556E+00  6.646235087488E+00 -1.895229355284E+00
    5     5 B     4.527175070865E+00  5.450880733713E+00 -1.895229393284E+00
    6     5 B     5.026849547816E+00 -6.315953834651E+00  1.894733796453E+00
    7     1 H    -1.761469102347E+00  4.503517861401E+00 -1.916050920235E+00
    8     1 H     1.257342506184E+00 -5.367408982558E+00  1.880771471016E+00
    9     1 H    -1.262477458481E+00 -5.369861454584E+00  1.880281460193E+00
   10     1 H     7.587340793475E-01  4.502351869334E+00 -1.919602710197E+00
   11     1 H    -4.520023150818E+00  2.911953078331E+00 -1.883961234370E+00
   12     1 H     4.019591142765E+00 -3.771097355589E+00  1.919229321570E+00
   13     1 H     4.780984614459E+00 -2.456423665186E+00 -1.880286742202E+00
   14     1 H    -5.278553120406E+00  1.594963437934E+00  1.919596592187E+00
   15     1 H    -4.019567144758E+00 -3.778587537590E+00  1.883955648361E+00
   16     1 H     3.520077926662E+00  2.907212708806E+00 -1.919235097580E+00
   17     1 H     4.780601930261E+00  7.254612262584E-01 -1.919725298403E+00
   18     1 H    -5.278830445351E+00 -1.595796432123E+00  1.880404048399E+00
   19     6 C    -1.906588855010E+00  6.645770476194E+00 -1.905640042760E+00
   20     6 C    -1.196184358344E+00  5.437042833524E+00 -1.915560947413E+00
   21     6 C     6.946480234957E-01 -6.302617896173E+00  1.883588415744E+00
   22     6 C    -6.967347213606E-01 -6.303109395584E+00  1.886160450062E+00
   23     6 C     1.952142648470E-01  5.437092872046E+00 -1.920460067636E+00
   24     6 C     9.057585883360E-01  6.646289369919E+00 -1.913723568328E+00
   25     6 C     6.708870110181E+00 -3.402264628256E+00 -1.894371997845E+00
   26     6 C    -5.611084646601E+00  2.889013435679E+00 -1.884451283193E+00
   27     6 C     5.110840041917E+00 -3.751606163655E+00  1.916412452842E+00
   28     6 C     5.306872405034E+00 -3.412741640596E+00 -1.886165884071E+00
   29     6 C    -5.806753867198E+00  2.550049318316E+00  1.920454139626E+00
   30     6 C     5.802123656541E+00 -4.972027977647E+00  1.913717868319E+00
   31     6 C     6.708941100670E+00  1.671362326740E+00 -1.905640080760E+00
   32     6 C    -5.110732346405E+00 -3.756098979262E+00  1.884445659183E+00
   33     6 C     4.611230467477E+00  2.886748573675E+00 -1.916418190851E+00
   34     6 C     5.306868217532E+00  1.681677530515E+00 -1.913846232534E+00
   35     6 C    -5.806413945258E+00 -2.551150077224E+00  1.879546576960E+00
   36     6 C     5.302609864011E+00  4.107016195427E+00 -1.913723568328E+00
   37     8 O     6.796010638330E+00 -8.654161638337E-01 -1.902578111620E+00
   38     8 O    -4.147256802105E+00  5.451770110289E+00 -1.881389428053E+00
   39     8 O    -3.647355311432E+00 -6.318111006764E+00  1.886650308884E+00
   40     8 O     3.647398597181E+00 -6.317435121920E+00  1.897428380976E+00
   41     8 O     3.147720649998E+00  5.452161313552E+00 -1.881389428053E+00
   42     8 O    -7.295942791600E+00 -5.573938265957E-04  1.886650232884E+00

 *******************************************************************************
 STARTING BASIS SET HANDLING 
 *******************************************************************************

 Loading internal basis set: SOLDEF2MSVP         

 Please cite in your publication:
 L. Dona', J. G. Brandenburg and B. Civalleri, J. Chem. Phys., 151, 121101 (2019
 )                                                                              
                                                                                
                    

 *******************************************************************************
 LOCAL ATOMIC FUNCTIONS BASIS SET
 *******************************************************************************
   ATOM   X(AU)   Y(AU)   Z(AU)  N. TYPE  EXPONENT  S COEF   P COEF   D/F/G COEF
 *******************************************************************************
   1 B  -10.444  10.300  -3.581
                                  1 S  
                                         2.410E+03 1.755E-03 0.000E+00 0.000E+00
                                         3.619E+02 1.344E-02 0.000E+00 0.000E+00
                                         8.231E+01 6.637E-02 0.000E+00 0.000E+00
                                         2.311E+01 2.303E-01 0.000E+00 0.000E+00
                                         7.252E+00 5.150E-01 0.000E+00 0.000E+00
                                  2 S  
                                         2.367E+00 1.000E+00 0.000E+00 0.000E+00
                                  3 S  
                                         5.533E-01 1.000E+00 0.000E+00 0.000E+00
                                  4 S  
                                         1.716E-01 1.000E+00 0.000E+00 0.000E+00
                           5-     7 P  
                                         6.002E+00 0.000E+00-3.555E-02 0.000E+00
                                         1.240E+00 0.000E+00-1.983E-01 0.000E+00
                                         3.367E-01 0.000E+00-5.048E-01 0.000E+00
                           8-    10 P  
                                         1.256E-01 0.000E+00 1.000E+00 0.000E+00
                          11-    15 D  
                                         8.880E-01 0.000E+00 0.000E+00 1.000E+00
   2 B   -6.533  12.559  -3.581
   3 B   14.144   0.622  -3.600
   4 B    4.643  12.560  -3.581
   5 B    8.555  10.301  -3.581
   6 B    9.499 -11.935   3.581
   7 H   -3.329   8.510  -3.621
                                 91 S  
                                         1.874E+01 1.968E-02 0.000E+00 0.000E+00
                                         2.826E+00 1.380E-01 0.000E+00 0.000E+00
                                         6.401E-01 4.783E-01 0.000E+00 0.000E+00
                                 92 S  
                                         1.756E-01 1.000E+00 0.000E+00 0.000E+00
   8 H    2.376 -10.143   3.554
   9 H   -2.386 -10.148   3.553
  10 H    1.434   8.508  -3.628
  11 H   -8.542   5.503  -3.560
  12 H    7.596  -7.126   3.627
  13 H    9.035  -4.642  -3.553
  14 H   -9.975   3.014   3.628
  15 H   -7.596  -7.140   3.560
  16 H    6.652   5.494  -3.627
  17 H    9.034   1.371  -3.628
  18 H   -9.976  -3.016   3.553
  19 C   -3.603  12.559  -3.601
                                115 S  
                                         3.624E+03 1.634E-03 0.000E+00 0.000E+00
                                         5.440E+02 1.252E-02 0.000E+00 0.000E+00
                                         1.237E+02 6.211E-02 0.000E+00 0.000E+00
                                         3.476E+01 2.182E-01 0.000E+00 0.000E+00
                                         1.093E+01 4.980E-01 0.000E+00 0.000E+00
                                116 S  
                                         3.574E+00 1.000E+00 0.000E+00 0.000E+00
                                117 S  
                                         7.742E-01 1.000E+00 0.000E+00 0.000E+00
                                118 S  
                                         2.330E-01 1.000E+00 0.000E+00 0.000E+00
                         119-   121 P  
                                         9.443E+00 0.000E+00 3.790E-02 0.000E+00
                                         2.002E+00 0.000E+00 2.082E-01 0.000E+00
                                         5.463E-01 0.000E+00 5.047E-01 0.000E+00
                         122-   124 P  
                                         1.820E-01 0.000E+00 1.000E+00 0.000E+00
                         125-   129 D  
                                         8.880E-01 0.000E+00 0.000E+00 1.000E+00
  20 C   -2.260  10.275  -3.620
  21 C    1.313 -11.910   3.559
  22 C   -1.317 -11.911   3.564
  23 C    0.369  10.275  -3.629
  24 C    1.712  12.560  -3.616
  25 C   12.678  -6.429  -3.580
  26 C  -10.603   5.459  -3.561
  27 C    9.658  -7.090   3.621
  28 C   10.029  -6.449  -3.564
  29 C  -10.973   4.819   3.629
  30 C   10.964  -9.396   3.616
  31 C   12.678   3.158  -3.601
  32 C   -9.658  -7.098   3.561
  33 C    8.714   5.455  -3.622
  34 C   10.029   3.178  -3.617
  35 C  -10.973  -4.821   3.552
  36 C   10.020   7.761  -3.616
  37 O   12.843  -1.635  -3.595
                                385 S  
                                         6.773E+03 1.727E-03 0.000E+00 0.000E+00
                                         1.017E+03 1.325E-02 0.000E+00 0.000E+00
                                         2.313E+02 6.603E-02 0.000E+00 0.000E+00
                                         6.501E+01 2.353E-01 0.000E+00 0.000E+00
                                         2.050E+01 5.498E-01 0.000E+00 0.000E+00
                                386 S  
                                         6.716E+00 1.000E+00 0.000E+00 0.000E+00
                                387 S  
                                         1.147E+00 1.000E+00 0.000E+00 0.000E+00
                                388 S  
                                         3.342E-01 1.000E+00 0.000E+00 0.000E+00
                         389-   391 P  
                                         1.769E+01 0.000E+00 4.359E-02 0.000E+00
                                         3.854E+00 0.000E+00 2.318E-01 0.000E+00
                                         1.047E+00 0.000E+00 5.146E-01 0.000E+00
                         392-   394 P  
                                         2.759E-01 0.000E+00 1.000E+00 0.000E+00
                         395-   399 D  
                                         8.000E-01 0.000E+00 0.000E+00 1.000E+00
  38 O   -7.837  10.302  -3.555
  39 O   -6.893 -11.939   3.565
  40 O    6.893 -11.938   3.586
  41 O    5.948  10.303  -3.555
  42 O  -13.787  -0.001   3.565

 *******************************************************************************
 FINISHED BASIS SET HANDLING 
 *******************************************************************************

 INFORMATION **** SET_MPP **** PCRYSTAL CALCULATION
 INFORMATION **** READM2 **** NEW DEFAULT: FOCK/KS MATRIX MIXING SET TO 30 %
 INFORMATION **** READM2 **** NEW DEFAULT: FULL DIRECT SCF MODE
 INFORMATION **** READM2 **** NEW DEFAULT: COULOMB BIPOLAR BUFFER SET TO 32 Mb
 INFORMATION **** READM2 **** NEW DEFAULT: EXCHANGE BIPOLAR BUFFER SET TO 32 Mb

 *******************************************************************************
 NEW DEFAULT: DFT INTEGRATION GRID INCREASED TO XLGRID
 NEW DEFAULT: DIIS ACCELERATOR ACTIVE
 USE KEYWORD NODIIS TO TURN IT OFF
 *******************************************************************************

 WARNING **** RDDFTP **** HSEsol-HJS ACTIVE
 RANGE SEPARATION - OMEGA:   0.110000000000000     
 WARNING **** RDDFTP **** HSEsol-3c has to be combined with sol-def2-mSVP basis set
 *******************************************************************************
 N. OF ATOMS PER CELL        42  COULOMB OVERLAP TOL         (T1) 10**   -6
 NUMBER OF SHELLS           234  COULOMB PENETRATION TOL     (T2) 10**   -6
 NUMBER OF AO               474  EXCHANGE OVERLAP TOL        (T3) 10**   -6
 N. OF ELECTRONS PER CELL   198  EXCHANGE PSEUDO OVP (F(G))  (T4) 10**   -6
 CORE ELECTRONS PER CELL     60  EXCHANGE PSEUDO OVP (P(G))  (T5) 10**  -12
 N. OF SYMMETRY OPERATORS     1  POLE ORDER IN MONO ZONE                  4
 *******************************************************************************
 TYPE OF CALCULATION :  RESTRICTED CLOSED SHELL
 KOHN-SHAM HAMILTONIAN

 (EXCHANGE)[CORRELATION] FUNCTIONAL:(HSEsol GGA)[PBEsol]

 RANGE-SEPARATED HYBRID FUNCTIONAL 
 OMEGA (SHORT-RANGE)[LONG-RANGE]:(    0.1100)[    0.0000]

 HYBRID EXCHANGE - PERCENTAGE OF FOCK EXCHANGE    25.0000

 CAPPA:IS1  2;IS2  2;IS3  8; K PTS MONK NET  20; SYMMOPS:K SPACE   2;G SPACE   1

 *******************************************************************************
 MAX NUMBER OF SCF CYCLES      50  CONVERGENCE ON DELTAP        10**-16
 WEIGHT OF F(I) IN F(I+1)      30% CONVERGENCE ON ENERGY        10**- 6
 SHRINK. FACT.(MONKH.)    2  2  8  NUMBER OF K POINTS IN THE IBZ     20
 SHRINKING FACTOR(GILAT NET)    8  NUMBER OF K POINTS(GILAT NET)   1028
 *******************************************************************************
 *** K POINTS COORDINATES (OBLIQUE COORDINATES IN UNITS OF IS =  2)
   1-R(  0  0  0)   2-R(  1  0  0)   3-R(  0  1  0)   4-R(  1  1  0)
   5-C(  0  0  1)   6-C(  1  0  1)   7-C(  0  1  1)   8-C(  1  1  1)
   9-C(  0  0  2)  10-C(  1  0  2)  11-C(  0  1  2)  12-C(  1  1  2)
  13-C(  0  0  3)  14-C(  1  0  3)  15-C(  0  1  3)  16-C(  1  1  3)
  17-R(  0  0  4)  18-R(  1  0  4)  19-R(  0  1  4)  20-R(  1  1  4)

 DIRECT LATTICE VECTORS COMPON. (A.U.)     RECIP. LATTICE VECTORS COMPON. (A.U.) 
        X            Y            Z              X            Y            Z
   24.5879030  -14.1935232    0.0000000      0.2555397    0.0000000   -0.0336190
    0.0000000   28.3910867    0.0000000      0.1277517    0.2213084   -0.0672443
    0.9447328    1.6365771    7.1809714      0.0000000    0.0000000    0.8749771

 DISK SPACE FOR EIGENVECTORS (FTN 10)     7189632 REALS

 SYMMETRY ADAPTION OF THE BLOCH FUNCTIONS DISABLED
 TTTTTTTTTTTTTTTTTTTTTTTTTTTTTT gordsh1     TELAPSE        0.04 TCPU        0.04

 MATRIX SIZE: P(G)  350492, F(G)   73525, P(G) IRR  177529, F(G) IRR   74221
 MAX G-VECTOR INDEX FOR 1- AND 2-ELECTRON INTEGRALS  97

 TTTTTTTTTTTTTTTTTTTTTTTTTTTTTT INPUT       TELAPSE        0.29 TCPU        0.29

 NEIGHBORS OF THE NON-EQUIVALENT ATOMS

 N = NUMBER OF NEIGHBORS AT DISTANCE R
    ATOM  N     R/ANG      R/AU   NEIGHBORS (ATOM LABELS AND CELL INDICES)
   1 B    1     1.3791     2.6061   37 O   -1 0 0
   1 B    1     1.3793     2.6065   38 O    0 0 0
   1 B    1     1.5503     2.9297   25 C   -1 0 0
   1 B    1     2.3895     4.5155    3 B   -1 0 0
   1 B    1     2.3898     4.5160    2 B    0 0 0
   1 B    1     2.5632     4.8437   26 C    0 0 0

   2 B    1     1.3793     2.6065   39 O    0 1-1
   2 B    1     1.3793     2.6065   38 O    0 0 0
   2 B    1     1.5504     2.9298   19 C    0 0 0
   2 B    1     2.3895     4.5156    3 B   -1 0 0
   2 B    1     2.3898     4.5160    1 B    0 0 0
   2 B    1     2.5634     4.8440   22 C    0 1-1

   3 B    1     1.3791     2.6061   37 O    0 0 0
   3 B    1     1.3793     2.6064   39 O    1 1-1
   3 B    1     1.5502     2.9294   31 C    0 0 0
   3 B    1     2.3895     4.5155    1 B    1 0 0
   3 B    1     2.3895     4.5156    2 B    1 0 0
   3 B    1     2.5629     4.8433   32 C    1 1-1

   4 B    1     1.3795     2.6068   40 O    0 1-1
   4 B    1     1.3795     2.6070   41 O    0 0 0
   4 B    1     1.5513     2.9316   24 C    0 0 0
   4 B    1     2.3905     4.5174    6 B    0 1-1
   4 B    1     2.3905     4.5175    5 B    0 0 0
   4 B    1     2.5648     4.8468   23 C    0 0 0

   5 B    1     1.3795     2.6069   41 O    0 0 0
   5 B    1     1.3797     2.6072   42 O    1 1-1
   5 B    1     1.5516     2.9322   36 C    0 0 0
   5 B    1     2.3905     4.5175    4 B    0 0 0
   5 B    1     2.3911     4.5185    6 B    0 1-1
   5 B    1     2.5651     4.8473   35 C    1 1-1

   6 B    1     1.3795     2.6068   40 O    0 0 0
   6 B    1     1.3796     2.6071   42 O    1 0 0
   6 B    1     1.5516     2.9322   30 C    0 0 0
   6 B    1     2.3905     4.5174    4 B    0-1 1
   6 B    1     2.3911     4.5185    5 B    0-1 1
   6 B    1     2.5651     4.8473   29 C    1 0 0

   7 H    1     1.0913     2.0623   20 C    0 0 0
   7 H    1     2.1472     4.0576   19 C    0 0 0
   7 H    1     2.1680     4.0969   23 C    0 0 0
   7 H    1     2.5202     4.7625   10 H    0 0 0
   7 H    1     2.5676     4.8520   38 O    0 0 0
   7 H    1     2.7321     5.1630    2 B    0 0 0

   8 H    1     1.0914     2.0625   21 C    0 0 0
   8 H    1     2.1493     4.0616   24 C    0-1 1
   8 H    1     2.1666     4.0942   22 C    0 0 0
   8 H    1     2.5198     4.7618    9 H    0 0 0
   8 H    1     2.5720     4.8604   40 O    0 0 0
   8 H    1     2.7362     5.1707    4 B    0-1 1

   9 H    1     1.0914     2.0624   22 C    0 0 0
   9 H    1     2.1471     4.0575   19 C    0-1 1
   9 H    1     2.1680     4.0970   21 C    0 0 0
   9 H    1     2.5198     4.7618    8 H    0 0 0
   9 H    1     2.5665     4.8500   39 O    0 0 0
   9 H    1     2.7315     5.1618    2 B    0-1 1

  10 H    1     1.0915     2.0626   23 C    0 0 0
  10 H    1     2.1490     4.0610   24 C    0 0 0
  10 H    1     2.1669     4.0948   20 C    0 0 0
  10 H    1     2.5202     4.7625    7 H    0 0 0
  10 H    1     2.5712     4.8588   41 O    0 0 0
  10 H    1     2.7351     5.1686    4 B    0 0 0

  11 H    1     1.0913     2.0623   26 C    0 0 0
  11 H    1     2.1469     4.0571   25 C   -1 0 0
  11 H    1     2.1680     4.0968   29 C    0 0-1
  11 H    1     2.5198     4.7617   14 H    0 0-1
  11 H    1     2.5670     4.8510   38 O    0 0 0
  11 H    1     2.7310     5.1609    1 B    0 0 0

  12 H    1     1.0914     2.0625   27 C    0 0 0
  12 H    1     2.1493     4.0617   30 C    0 0 0
  12 H    1     2.1664     4.0939   28 C    0 0 1
  12 H    1     2.5192     4.7606   13 H    0 0 1
  12 H    1     2.5735     4.8632   40 O    0 0 0
  12 H    1     2.7371     5.1723    6 B    0 0 0

  13 H    1     1.0914     2.0624   28 C    0 0 0
  13 H    1     2.1475     4.0581   25 C    0 0 0
  13 H    1     2.1679     4.0967   27 C    0 0-1
  13 H    1     2.5192     4.7606   12 H    0 0-1
  13 H    1     2.5675     4.8519   37 O    0 0 0
  13 H    1     2.7328     5.1643    1 B    1 0 0

  14 H    1     1.0914     2.0625   29 C    0 0 0
  14 H    1     2.1491     4.0612   30 C   -1 0 0
  14 H    1     2.1666     4.0942   26 C    0 0 1
  14 H    1     2.5198     4.7617   11 H    0 0 1
  14 H    1     2.5723     4.8609   42 O    0 0 0
  14 H    1     2.7355     5.1693    6 B   -1 0 0

  15 H    1     1.0914     2.0624   32 C    0 0 0
  15 H    1     2.1475     4.0582   31 C   -1-1 1
  15 H    1     2.1678     4.0966   35 C    0 0 0
  15 H    1     2.5200     4.7621   18 H    0 0 0
  15 H    1     2.5667     4.8503   39 O    0 0 0
  15 H    1     2.7315     5.1618    3 B   -1-1 1

  16 H    1     1.0913     2.0623   33 C    0 0 0
  16 H    1     2.1487     4.0605   36 C    0 0 0
  16 H    1     2.1667     4.0945   34 C    0 0 0
  16 H    1     2.5197     4.7616   17 H    0 0 0
  16 H    1     2.5723     4.8610   41 O    0 0 0
  16 H    1     2.7359     5.1701    5 B    0 0 0

  17 H    1     1.0915     2.0626   34 C    0 0 0
  17 H    1     2.1479     4.0589   31 C    0 0 0
  17 H    1     2.1679     4.0968   33 C    0 0 0
  17 H    1     2.5197     4.7616   16 H    0 0 0
  17 H    1     2.5677     4.8522   37 O    0 0 0
  17 H    1     2.7331     5.1648    3 B    0 0 0

  18 H    1     1.0914     2.0624   35 C    0 0 0
  18 H    1     2.1486     4.0602   36 C   -1-1 1
  18 H    1     2.1668     4.0947   32 C    0 0 0
  18 H    1     2.5200     4.7621   15 H    0 0 0
  18 H    1     2.5717     4.8598   42 O    0 0 0
  18 H    1     2.7349     5.1682    5 B   -1-1 1

  19 C    1     1.4020     2.6495   22 C    0 1-1
  19 C    1     1.4021     2.6495   20 C    0 0 0
  19 C    1     1.5504     2.9298    2 B    0 0 0
  19 C    1     2.1471     4.0575    9 H    0 1-1
  19 C    1     2.1472     4.0576    7 H    0 0 0
  19 C    1     2.4246     4.5817   21 C    0 1-1

  20 C    1     1.0913     2.0623    7 H    0 0 0
  20 C    1     1.3914     2.6294   23 C    0 0 0
  20 C    1     1.4021     2.6495   19 C    0 0 0
  20 C    1     2.1669     4.0948   10 H    0 0 0
  20 C    1     2.4177     4.5688   22 C    0 1-1
  20 C    1     2.4250     4.5825   24 C    0 0 0

  21 C    1     1.0914     2.0625    8 H    0 0 0
  21 C    1     1.3914     2.6293   22 C    0 0 0
  21 C    1     1.4026     2.6505   24 C    0-1 1
  21 C    1     2.1680     4.0970    9 H    0 0 0
  21 C    1     2.4182     4.5697   23 C    0-1 1
  21 C    1     2.4246     4.5817   19 C    0-1 1

  22 C    1     1.0914     2.0624    9 H    0 0 0
  22 C    1     1.3914     2.6293   21 C    0 0 0
  22 C    1     1.4020     2.6495   19 C    0-1 1
  22 C    1     2.1666     4.0942    8 H    0 0 0
  22 C    1     2.4177     4.5688   20 C    0-1 1
  22 C    1     2.4250     4.5826   24 C    0-1 1

  23 C    1     1.0915     2.0626   10 H    0 0 0
  23 C    1     1.3914     2.6294   20 C    0 0 0
  23 C    1     1.4025     2.6504   24 C    0 0 0
  23 C    1     2.1680     4.0969    7 H    0 0 0
  23 C    1     2.4182     4.5697   21 C    0 1-1
  23 C    1     2.4246     4.5818   19 C    0 0 0

  24 C    1     1.4025     2.6504   23 C    0 0 0
  24 C    1     1.4026     2.6505   21 C    0 1-1
  24 C    1     1.5513     2.9316    4 B    0 0 0
  24 C    1     2.1490     4.0610   10 H    0 0 0
  24 C    1     2.1493     4.0616    8 H    0 1-1
  24 C    1     2.4250     4.5825   20 C    0 0 0

  25 C    1     1.4020     2.6494   26 C    1 0 0
  25 C    1     1.4021     2.6495   28 C    0 0 0
  25 C    1     1.5503     2.9297    1 B    1 0 0
  25 C    1     2.1469     4.0571   11 H    1 0 0
  25 C    1     2.1475     4.0581   13 H    0 0 0
  25 C    1     2.4246     4.5818   27 C    0 0-1

  26 C    1     1.0913     2.0623   11 H    0 0 0
  26 C    1     1.3914     2.6293   29 C    0 0-1
  26 C    1     1.4020     2.6494   25 C   -1 0 0
  26 C    1     2.1666     4.0942   14 H    0 0-1
  26 C    1     2.4175     4.5684   28 C   -1 0 0
  26 C    1     2.4251     4.5828   30 C   -1 0-1

  27 C    1     1.0914     2.0625   12 H    0 0 0
  27 C    1     1.3915     2.6295   28 C    0 0 1
  27 C    1     1.4026     2.6505   30 C    0 0 0
  27 C    1     2.1679     4.0967   13 H    0 0 1
  27 C    1     2.4179     4.5691   29 C    1 0 0
  27 C    1     2.4246     4.5818   25 C    0 0 1

  28 C    1     1.0914     2.0624   13 H    0 0 0
  28 C    1     1.3915     2.6295   27 C    0 0-1
  28 C    1     1.4021     2.6495   25 C    0 0 0
  28 C    1     2.1664     4.0939   12 H    0 0-1
  28 C    1     2.4175     4.5684   26 C    1 0 0
  28 C    1     2.4253     4.5832   30 C    0 0-1

  29 C    1     1.0914     2.0625   14 H    0 0 0
  29 C    1     1.3914     2.6293   26 C    0 0 1
  29 C    1     1.4025     2.6504   30 C   -1 0 0
  29 C    1     2.1680     4.0968   11 H    0 0 1
  29 C    1     2.4179     4.5691   27 C   -1 0 0
  29 C    1     2.4247     4.5819   25 C   -1 0 1

  30 C    1     1.4025     2.6504   29 C    1 0 0
  30 C    1     1.4026     2.6505   27 C    0 0 0
  30 C    1     1.5516     2.9322    6 B    0 0 0
  30 C    1     2.1491     4.0612   14 H    1 0 0
  30 C    1     2.1493     4.0617   12 H    0 0 0
  30 C    1     2.4251     4.5828   26 C    1 0 1

  31 C    1     1.4021     2.6496   32 C    1 1-1
  31 C    1     1.4021     2.6497   34 C    0 0 0
  31 C    1     1.5502     2.9294    3 B    0 0 0
  31 C    1     2.1475     4.0582   15 H    1 1-1
  31 C    1     2.1479     4.0589   17 H    0 0 0
  31 C    1     2.4244     4.5814   33 C    0 0 0

  32 C    1     1.0914     2.0624   15 H    0 0 0
  32 C    1     1.3914     2.6293   35 C    0 0 0
  32 C    1     1.4021     2.6496   31 C   -1-1 1
  32 C    1     2.1668     4.0947   18 H    0 0 0
  32 C    1     2.4179     4.5692   34 C   -1-1 1
  32 C    1     2.4251     4.5827   36 C   -1-1 1

  33 C    1     1.0913     2.0623   16 H    0 0 0
  33 C    1     1.3914     2.6294   34 C    0 0 0
  33 C    1     1.4025     2.6504   36 C    0 0 0
  33 C    1     2.1679     4.0968   17 H    0 0 0
  33 C    1     2.4178     4.5690   35 C    1 1-1
  33 C    1     2.4244     4.5814   31 C    0 0 0

  34 C    1     1.0915     2.0626   17 H    0 0 0
  34 C    1     1.3914     2.6294   33 C    0 0 0
  34 C    1     1.4021     2.6497   31 C    0 0 0
  34 C    1     2.1667     4.0945   16 H    0 0 0
  34 C    1     2.4179     4.5692   32 C    1 1-1
  34 C    1     2.4253     4.5832   36 C    0 0 0

  35 C    1     1.0914     2.0624   18 H    0 0 0
  35 C    1     1.3914     2.6293   32 C    0 0 0
  35 C    1     1.4025     2.6503   36 C   -1-1 1
  35 C    1     2.1678     4.0966   15 H    0 0 0
  35 C    1     2.4178     4.5690   33 C   -1-1 1
  35 C    1     2.4245     4.5817   31 C   -1-1 1

  36 C    1     1.4025     2.6503   35 C    1 1-1
  36 C    1     1.4025     2.6504   33 C    0 0 0
  36 C    1     1.5516     2.9322    5 B    0 0 0
  36 C    1     2.1486     4.0602   18 H    1 1-1
  36 C    1     2.1487     4.0605   16 H    0 0 0
  36 C    1     2.4251     4.5827   32 C    1 1-1

  37 O    1     1.3791     2.6061    1 B    1 0 0
  37 O    1     1.3791     2.6061    3 B    0 0 0
  37 O    1     2.3880     4.5126   38 O    1 0 0
  37 O    1     2.3882     4.5130   39 O    1 1-1
  37 O    1     2.5383     4.7966   31 C    0 0 0
  37 O    1     2.5384     4.7968   25 C    0 0 0

  38 O    1     1.3793     2.6065    1 B    0 0 0
  38 O    1     1.3793     2.6065    2 B    0 0 0
  38 O    1     2.3880     4.5126   37 O   -1 0 0
  38 O    1     2.3882     4.5131   39 O    0 1-1
  38 O    1     2.5391     4.7981   19 C    0 0 0
  38 O    1     2.5395     4.7990   25 C   -1 0 0

  39 O    1     1.3793     2.6064    3 B   -1-1 1
  39 O    1     1.3793     2.6065    2 B    0-1 1
  39 O    1     2.3882     4.5130   37 O   -1-1 1
  39 O    1     2.3882     4.5131   38 O    0-1 1
  39 O    1     2.5390     4.7980   19 C    0-1 1
  39 O    1     2.5391     4.7982   31 C   -1-1 1

  40 O    1     1.3795     2.6068    6 B    0 0 0
  40 O    1     1.3795     2.6068    4 B    0-1 1
  40 O    1     2.3880     4.5126   42 O    1 0 0
  40 O    1     2.3884     4.5134   41 O    0-1 1
  40 O    1     2.5400     4.7998   24 C    0-1 1
  40 O    1     2.5403     4.8005   30 C    0 0 0

  41 O    1     1.3795     2.6069    5 B    0 0 0
  41 O    1     1.3795     2.6070    4 B    0 0 0
  41 O    1     2.3881     4.5128   42 O    1 1-1
  41 O    1     2.3884     4.5134   40 O    0 1-1
  41 O    1     2.5404     4.8006   24 C    0 0 0
  41 O    1     2.5405     4.8008   36 C    0 0 0

  42 O    1     1.3796     2.6071    6 B   -1 0 0
  42 O    1     1.3797     2.6072    5 B   -1-1 1
  42 O    1     2.3880     4.5126   40 O   -1 0 0
  42 O    1     2.3881     4.5128   41 O   -1-1 1
  42 O    1     2.5409     4.8016   36 C   -1-1 1
  42 O    1     2.5410     4.8019   30 C   -1 0 0


 SYMMETRY ALLOWED INTERNAL DEGREE(S) OF FREEDOM: 123
 TTTTTTTTTTTTTTTTTTTTTTTTTTTTTT SYMM        TELAPSE        0.29 TCPU        0.29
 TTTTTTTTTTTTTTTTTTTTTTTTTTTTTT INT_SCREEN  TELAPSE        0.32 TCPU        0.32

 DFT PARAMETERS

     ATOM       ELECTRONS   NET CHARGE   R(ANGSTROM)
   1   5  B       5.0000      0.0000     0.89000000
   7   1  H       1.0000      0.0000     1.11000000
  19   6  C       6.0000      0.0000     0.77000000
  37   8  O       8.0000      0.0000     0.74000000

 SIZE OF GRID=    1289539
 TTTTTTTTTTTTTTTTTTTTTTTTTTTTTT MAKE_GRID2  TELAPSE       10.63 TCPU       10.62
 BECKE WEIGHT FUNCTION
 RADSAFE =     2.00
 TOLERANCES - DENSITY:10**- 6; POTENTIAL:10**- 9; GRID WGT:10**-14

 RADIAL INTEGRATION  - INTERVALS (POINTS,UPPER LIMIT):            1( 75,  4.0*R)

 ANGULAR INTEGRATION - INTERVALS (ACCURACY LEVEL [N. POINTS] UPPER LIMIT):
  1(  4[  86]   0.2)  2(  8[ 194]   0.5)  3( 12[ 350]   0.9)  4( 16[ 974]   3.5)
  5( 12[ 350]9999.0)
 TTTTTTTTTTTTTTTTTTTTTTTTTTTTTT INT_CALC    TELAPSE       10.73 TCPU       10.72
 EEEEEEEEEE INT_CALC TERMINATION  DATE 19 02 2026 TIME 18:55:48.6

 *******************************************************************************
 cof-1_z38_L010_incl                                                             
 CRYSTAL - SCF - TYPE OF CALCULATION :  RESTRICTED CLOSED SHELL
 *******************************************************************************

 CAPPA:IS1  2;IS2  2;IS3  8; K PTS MONK NET  20; SYMMOPS:K SPACE   2;G SPACE   1

 TTTTTTTTTTTTTTTTTTTTTTTTTTTTTT SDIK        TELAPSE       11.32 TCPU       18.55

 AAAAAAAAAAAAAAAAAAAAAAAAAAAAAAAAAAAAAAAAAAAAAAAAAAAAAAAAAAAAAAAAAAAAAAAAAAAAAAA
         ATOMIC WAVEFUNCTION(S)


 NUCLEAR CHARGE  5.0  SYMMETRY SPECIES            S    P
 N. ELECTRONS    5.0  NUMBER OF PRIMITIVE GTOS    8    4
                      NUMBER OF CONTRACTED GTOS   4    2
                      NUMBER OF CLOSED SHELLS     2    0
                      OPEN SHELL OCCUPATION       0    1

  ZNUC  SCFIT    TOTAL HF ENERGY   KINETIC ENERGY   VIRIAL THEOREM ACCURACY
   5.0    11    -2.451164084E+01  2.462155050E+01 -1.995536038E+00  1.5E-06

 NUCLEAR CHARGE  1.0  SYMMETRY SPECIES            S
 N. ELECTRONS    1.0  NUMBER OF PRIMITIVE GTOS    4
                      NUMBER OF CONTRACTED GTOS   2
                      NUMBER OF CLOSED SHELLS     0
                      OPEN SHELL OCCUPATION       1

  ZNUC  SCFIT    TOTAL HF ENERGY   KINETIC ENERGY   VIRIAL THEOREM ACCURACY
   1.0     1    -4.977266687E-01  5.190767460E-01 -1.958869132E+00  0.0E+00

 NUCLEAR CHARGE  6.0  SYMMETRY SPECIES            S    P
 N. ELECTRONS    6.0  NUMBER OF PRIMITIVE GTOS    8    4
                      NUMBER OF CONTRACTED GTOS   4    2
                      NUMBER OF CLOSED SHELLS     2    0
                      OPEN SHELL OCCUPATION       0    2

  ZNUC  SCFIT    TOTAL HF ENERGY   KINETIC ENERGY   VIRIAL THEOREM ACCURACY
   6.0     9    -3.766704647E+01  3.775180683E+01 -1.997754800E+00  1.1E-06

 NUCLEAR CHARGE  8.0  SYMMETRY SPECIES            S    P
 N. ELECTRONS    8.0  NUMBER OF PRIMITIVE GTOS    8    4
                      NUMBER OF CONTRACTED GTOS   4    2
                      NUMBER OF CLOSED SHELLS     2    0
                      OPEN SHELL OCCUPATION       0    4

  ZNUC  SCFIT    TOTAL HF ENERGY   KINETIC ENERGY   VIRIAL THEOREM ACCURACY
   8.0    12    -7.477373220E+01  7.477365593E+01 -2.000001020E+00  3.8E-06

 AAAAAAAAAAAAAAAAAAAAAAAAAAAAAAAAAAAAAAAAAAAAAAAAAAAAAAAAAAAAAAAAAAAAAAAAAAAAAAA

 CHARGE NORMALIZATION FACTOR   1.00000000
 TOTAL ATOMIC CHARGES:
   5.0000000   5.0000000   5.0000000   5.0000000   5.0000000   5.0000000
   1.0000000   1.0000000   1.0000000   1.0000000   1.0000000   1.0000000
   1.0000000   1.0000000   1.0000000   1.0000000   1.0000000   1.0000000
   6.0000000   6.0000000   6.0000000   6.0000000   6.0000000   6.0000000
   6.0000000   6.0000000   6.0000000   6.0000000   6.0000000   6.0000000
   6.0000000   6.0000000   6.0000000   6.0000000   6.0000000   6.0000000
   8.0000000   8.0000000   8.0000000   8.0000000   8.0000000   8.0000000
 TTTTTTTTTTTTTTTTTTTTTTTTTTTTTT MOQGAD      TELAPSE       11.37 TCPU       20.11
 TTTTTTTTTTTTTTTTTTTTTTTTTTTTTT SHELLXN     TELAPSE       19.92 TCPU      293.28
 TTTTTTTTTTTTTTTTTTTTTTTTTTTTTT MONMO3      TELAPSE       20.08 TCPU      298.60
 NUMERICALLY INTEGRATED DENSITY    197.9999658146
 TTTTTTTTTTTTTTTTTTTTTTTTTTTTTT NUMDFT      TELAPSE       20.66 TCPU      317.17
 CYC   0 ETOT(AU) -1.295962929715E+03 DETOT -1.30E+03 tst  0.00E+00 PX  1.00E+00
 TTTTTTTTTTTTTTTTTTTTTTTTTTTTTT DIIS        TELAPSE       20.70 TCPU      318.23
 TTTTTTTTTTTTTTTTTTTTTTTTTTTTTT FDIK        TELAPSE       21.18 TCPU      333.56
 INSULATING STATE
 TOP OF VALENCE BANDS -    BAND     99; K    1; EIG -3.0422395E-01 AU
 BOTTOM OF VIRTUAL BANDS - BAND    100; K   17; EIG -1.6589804E-01 AU
 INDIRECT ENERGY BAND GAP:   3.7640 eV
 BOTTOM OF VIRTUAL BANDS - BAND    100; K    1; EIG -1.4611640E-01 AU
 TTTTTTTTTTTTTTTTTTTTTTTTTTTTTT PDIG        TELAPSE       21.46 TCPU      339.70
 CHARGE NORMALIZATION FACTOR   1.00000000
 TOTAL ATOMIC CHARGES:
   4.1436407   4.1428050   4.1431459   4.1428939   4.1426830   4.1435303
   0.7858782   0.7859866   0.7857727   0.7858961   0.7857360   0.7859147
   0.7857249   0.7858808   0.7857714   0.7859567   0.7858268   0.7859791
   6.0503347   6.2683933   6.2683951   6.2681480   6.2680613   6.0495075
   6.0495232   6.2679595   6.2680014   6.2678611   6.2680116   6.0482455
   6.0506393   6.2679298   6.2684498   6.2680212   6.2686604   6.0490358
   8.6995055   8.6996489   8.6981496   8.6999198   8.6985145   8.7000603
 TTTTTTTTTTTTTTTTTTTTTTTTTTTTTT MOQGAD      TELAPSE       21.51 TCPU      339.75
 TTTTTTTTTTTTTTTTTTTTTTTTTTTTTT SHELLXN     TELAPSE       30.39 TCPU      622.87
 TTTTTTTTTTTTTTTTTTTTTTTTTTTTTT MONMO3      TELAPSE       30.56 TCPU      628.18
 NUMERICALLY INTEGRATED DENSITY    197.9999885687
 TTTTTTTTTTTTTTTTTTTTTTTTTTTTTT NUMDFT      TELAPSE       31.15 TCPU      647.08
 CYC   1 ETOT(AU) -1.288812268890E+03 DETOT  7.15E+00 tst  0.00E+00 PX  1.00E+00
 TTTTTTTTTTTTTTTTTTTTTTTTTTTTTT DIIS        TELAPSE       31.19 TCPU      648.48
 DIIS TEST: 0.11100E+01 AT SCF   CYCLE   1 - MIX   30 %
 TTTTTTTTTTTTTTTTTTTTTTTTTTTTTT FDIK        TELAPSE       31.68 TCPU      664.16
 INSULATING STATE
 TOP OF VALENCE BANDS -    BAND     99; K    1; EIG -2.0764827E-01 AU
 BOTTOM OF VIRTUAL BANDS - BAND    100; K   17; EIG -8.8463501E-02 AU
 INDIRECT ENERGY BAND GAP:   3.2432 eV
 BOTTOM OF VIRTUAL BANDS - BAND    100; K    1; EIG -6.5144450E-02 AU
 TTTTTTTTTTTTTTTTTTTTTTTTTTTTTT PDIG        TELAPSE       31.96 TCPU      670.29
 CHARGE NORMALIZATION FACTOR   1.00000000
 TOTAL ATOMIC CHARGES:
   4.7025147   4.7010574   4.7002128   4.7005686   4.7009611   4.7019750
   0.9191582   0.9192617   0.9199716   0.9199946   0.9185027   0.9184803
   0.9184527   0.9184139   0.9199183   0.9200103   0.9190783   0.9191238
   5.8652077   6.1201528   6.1205498   6.1281808   6.1298194   5.8680222
   5.8659535   6.1242186   6.1259326   6.1249968   6.1255749   5.8692807
   5.8650876   6.1284376   6.1298319   6.1202690   6.1204897   5.8683908
   8.3426808   8.3429412   8.3456007   8.3423690   8.3458292   8.3425269
 TTTTTTTTTTTTTTTTTTTTTTTTTTTTTT MOQGAD      TELAPSE       32.02 TCPU      670.34
 TTTTTTTTTTTTTTTTTTTTTTTTTTTTTT SHELLXN     TELAPSE       40.89 TCPU      953.22
 TTTTTTTTTTTTTTTTTTTTTTTTTTTTTT MONMO3      TELAPSE       41.05 TCPU      958.54
 NUMERICALLY INTEGRATED DENSITY    197.9999886899
 TTTTTTTTTTTTTTTTTTTTTTTTTTTTTT NUMDFT      TELAPSE       41.65 TCPU      977.44
 CYC   2 ETOT(AU) -1.289006470289E+03 DETOT -1.94E-01 tst  4.64E-03 PX  1.57E-01
 TTTTTTTTTTTTTTTTTTTTTTTTTTTTTT DIIS        TELAPSE       41.69 TCPU      978.98
 DIIS TEST: 0.48056E+00 AT SCF   CYCLE   2 - DIIS ACTIVE - HISTORY:     2 CYCLES
 TTTTTTTTTTTTTTTTTTTTTTTTTTTTTT FDIK        TELAPSE       42.18 TCPU      994.57
 INSULATING STATE
 TOP OF VALENCE BANDS -    BAND     99; K    1; EIG -2.2401776E-01 AU
 BOTTOM OF VIRTUAL BANDS - BAND    100; K   17; EIG -8.4171581E-02 AU
 INDIRECT ENERGY BAND GAP:   3.8054 eV
 BOTTOM OF VIRTUAL BANDS - BAND    100; K    1; EIG -5.9290155E-02 AU
 TTTTTTTTTTTTTTTTTTTTTTTTTTTTTT PDIG        TELAPSE       42.46 TCPU     1000.70
 CHARGE NORMALIZATION FACTOR   1.00000000
 TOTAL ATOMIC CHARGES:
   4.4884643   4.4865899   4.4862831   4.4857025   4.4857840   4.4874311
   0.8916748   0.8917988   0.8922831   0.8923796   0.8912537   0.8915616
   0.8913634   0.8913966   0.8922527   0.8924152   0.8916416   0.8917093
   5.8933000   6.1626725   6.1624928   6.1619499   6.1607210   5.8920249
   5.8955125   6.1611918   6.1604272   6.1611220   6.1605698   5.8943626
   5.8939299   6.1620772   6.1608500   6.1625759   6.1624160   5.8915459
   8.5136670   8.5137833   8.5114764   8.5139768   8.5112766   8.5140926
 TTTTTTTTTTTTTTTTTTTTTTTTTTTTTT MOQGAD      TELAPSE       42.51 TCPU     1000.75
 TTTTTTTTTTTTTTTTTTTTTTTTTTTTTT SHELLXN     TELAPSE       51.37 TCPU     1283.37
 TTTTTTTTTTTTTTTTTTTTTTTTTTTTTT MONMO3      TELAPSE       51.54 TCPU     1288.68
 NUMERICALLY INTEGRATED DENSITY    197.9999888891
 TTTTTTTTTTTTTTTTTTTTTTTTTTTTTT NUMDFT      TELAPSE       52.13 TCPU     1307.54
 CYC   3 ETOT(AU) -1.289107584614E+03 DETOT -1.01E-01 tst  7.45E-04 PX  5.99E-02
 TTTTTTTTTTTTTTTTTTTTTTTTTTTTTT DIIS        TELAPSE       52.18 TCPU     1309.29
 DIIS TEST: 0.10282E-01 AT SCF   CYCLE   3 - DIIS ACTIVE - HISTORY:     3 CYCLES
 TTTTTTTTTTTTTTTTTTTTTTTTTTTTTT FDIK        TELAPSE       52.67 TCPU     1324.93
 INSULATING STATE
 TOP OF VALENCE BANDS -    BAND     99; K    1; EIG -2.3347401E-01 AU
 BOTTOM OF VIRTUAL BANDS - BAND    100; K   17; EIG -9.3874906E-02 AU
 INDIRECT ENERGY BAND GAP:   3.7987 eV
 BOTTOM OF VIRTUAL BANDS - BAND    100; K    1; EIG -6.9697792E-02 AU
 TTTTTTTTTTTTTTTTTTTTTTTTTTTTTT PDIG        TELAPSE       52.96 TCPU     1331.07
 CHARGE NORMALIZATION FACTOR   1.00000000
 TOTAL ATOMIC CHARGES:
   4.4958041   4.4931529   4.4926059   4.4931063   4.4933309   4.4957429
   0.8756436   0.8758061   0.8759076   0.8758171   0.8748002   0.8747797
   0.8747688   0.8747256   0.8759056   0.8758162   0.8756350   0.8756636
   5.9443243   6.1578141   6.1583627   6.1629694   6.1660306   5.9488735
   5.9455618   6.1602559   6.1624418   6.1608368   6.1620932   5.9499086
   5.9441401   6.1629955   6.1662739   6.1575275   6.1585531   5.9492201
   8.4845695   8.4847623   8.4869146   8.4844194   8.4875891   8.4845500
 TTTTTTTTTTTTTTTTTTTTTTTTTTTTTT MOQGAD      TELAPSE       53.01 TCPU     1331.12
 TTTTTTTTTTTTTTTTTTTTTTTTTTTTTT SHELLXN     TELAPSE       61.87 TCPU     1613.80
 TTTTTTTTTTTTTTTTTTTTTTTTTTTTTT MONMO3      TELAPSE       62.04 TCPU     1619.11
 NUMERICALLY INTEGRATED DENSITY    197.9999887514
 TTTTTTTTTTTTTTTTTTTTTTTTTTTTTT NUMDFT      TELAPSE       62.63 TCPU     1637.97
 CYC   4 ETOT(AU) -1.289109665801E+03 DETOT -2.08E-03 tst  2.89E-05 PX  1.24E-02
 TTTTTTTTTTTTTTTTTTTTTTTTTTTTTT DIIS        TELAPSE       62.69 TCPU     1639.82
 DIIS TEST: 0.37632E-02 AT SCF   CYCLE   4 - DIIS ACTIVE - HISTORY:     4 CYCLES
 TTTTTTTTTTTTTTTTTTTTTTTTTTTTTT FDIK        TELAPSE       63.17 TCPU     1655.43
 INSULATING STATE
 TOP OF VALENCE BANDS -    BAND     99; K    1; EIG -2.3177402E-01 AU
 BOTTOM OF VIRTUAL BANDS - BAND    100; K   17; EIG -9.2728064E-02 AU
 INDIRECT ENERGY BAND GAP:   3.7836 eV
 BOTTOM OF VIRTUAL BANDS - BAND    100; K    1; EIG -6.8374927E-02 AU
 TTTTTTTTTTTTTTTTTTTTTTTTTTTTTT PDIG        TELAPSE       63.46 TCPU     1661.56
 CHARGE NORMALIZATION FACTOR   1.00000000
 TOTAL ATOMIC CHARGES:
   4.4969754   4.4951025   4.4946395   4.4940885   4.4942416   4.4958402
   0.8787750   0.8788988   0.8791972   0.8793834   0.8781551   0.8784384
   0.8782161   0.8782998   0.8791579   0.8794201   0.8787143   0.8788108
   5.9235750   6.1638868   6.1634145   6.1671798   6.1652437   5.9205496
   5.9246237   6.1649133   6.1640376   6.1650288   6.1640962   5.9221272
   5.9240984   6.1673623   6.1653275   6.1638642   6.1633235   5.9201952
   8.4952521   8.4953780   8.4948111   8.4953947   8.4944596   8.4955026
 TTTTTTTTTTTTTTTTTTTTTTTTTTTTTT MOQGAD      TELAPSE       63.51 TCPU     1661.62
 TTTTTTTTTTTTTTTTTTTTTTTTTTTTTT SHELLXN     TELAPSE       72.38 TCPU     1944.48
 TTTTTTTTTTTTTTTTTTTTTTTTTTTTTT MONMO3      TELAPSE       72.54 TCPU     1949.79
 NUMERICALLY INTEGRATED DENSITY    197.9999888345
 TTTTTTTTTTTTTTTTTTTTTTTTTTTTTT NUMDFT      TELAPSE       73.14 TCPU     1968.67
 CYC   5 ETOT(AU) -1.289110506432E+03 DETOT -8.41E-04 tst  6.07E-06 PX  7.35E-03
 TTTTTTTTTTTTTTTTTTTTTTTTTTTTTT DIIS        TELAPSE       73.20 TCPU     1970.79
 DIIS TEST: 0.13501E-03 AT SCF   CYCLE   5 - DIIS ACTIVE - HISTORY:     5 CYCLES
 TTTTTTTTTTTTTTTTTTTTTTTTTTTTTT FDIK        TELAPSE       73.69 TCPU     1986.41
 INSULATING STATE
 TOP OF VALENCE BANDS -    BAND     99; K    1; EIG -2.3154215E-01 AU
 BOTTOM OF VIRTUAL BANDS - BAND    100; K   17; EIG -9.2167115E-02 AU
 INDIRECT ENERGY BAND GAP:   3.7926 eV
 BOTTOM OF VIRTUAL BANDS - BAND    100; K    1; EIG -6.7802169E-02 AU
 TTTTTTTTTTTTTTTTTTTTTTTTTTTTTT PDIG        TELAPSE       73.97 TCPU     1992.55
 CHARGE NORMALIZATION FACTOR   1.00000000
 TOTAL ATOMIC CHARGES:
   4.4961138   4.4938754   4.4933950   4.4940930   4.4942857   4.4962673
   0.8797844   0.8799143   0.8803421   0.8801677   0.8792490   0.8792350
   0.8792550   0.8791536   0.8803382   0.8801700   0.8797733   0.8797807
   5.9195090   6.1616566   6.1629209   6.1634359   6.1677315   5.9269431
   5.9214119   6.1621896   6.1648567   6.1625693   6.1646418   5.9280541
   5.9195133   6.1634455   6.1679926   6.1613633   6.1630885   5.9271011
   8.4940454   8.4942273   8.4944779   8.4940663   8.4953593   8.4942056
 TTTTTTTTTTTTTTTTTTTTTTTTTTTTTT MOQGAD      TELAPSE       74.02 TCPU     1992.60
 TTTTTTTTTTTTTTTTTTTTTTTTTTTTTT SHELLXN     TELAPSE       82.90 TCPU     2275.28
 TTTTTTTTTTTTTTTTTTTTTTTTTTTTTT MONMO3      TELAPSE       83.06 TCPU     2280.60
 NUMERICALLY INTEGRATED DENSITY    197.9999888429
 TTTTTTTTTTTTTTTTTTTTTTTTTTTTTT NUMDFT      TELAPSE       83.65 TCPU     2299.43
 CYC   6 ETOT(AU) -1.289110501485E+03 DETOT  4.95E-06 tst  1.88E-06 PX  1.59E-03
 TTTTTTTTTTTTTTTTTTTTTTTTTTTTTT DIIS        TELAPSE       83.72 TCPU     2301.61
 DIIS TEST: 0.14819E-03 AT SCF   CYCLE   6 - DIIS ACTIVE - HISTORY:     6 CYCLES
 TTTTTTTTTTTTTTTTTTTTTTTTTTTTTT FDIK        TELAPSE       84.21 TCPU     2317.27
 INSULATING STATE
 TOP OF VALENCE BANDS -    BAND     99; K    1; EIG -2.3155275E-01 AU
 BOTTOM OF VIRTUAL BANDS - BAND    100; K   17; EIG -9.2199990E-02 AU
 INDIRECT ENERGY BAND GAP:   3.7920 eV
 BOTTOM OF VIRTUAL BANDS - BAND    100; K    1; EIG -6.7832889E-02 AU
 TTTTTTTTTTTTTTTTTTTTTTTTTTTTTT PDIG        TELAPSE       84.49 TCPU     2323.41
 CHARGE NORMALIZATION FACTOR   1.00000000
 TOTAL ATOMIC CHARGES:
   4.4966008   4.4944621   4.4939937   4.4938034   4.4939761   4.4958616
   0.8797664   0.8799209   0.8802087   0.8802775   0.8791491   0.8793210
   0.8791788   0.8792152   0.8801877   0.8802958   0.8797332   0.8798074
   5.9235930   6.1622840   6.1621184   6.1653422   6.1653591   5.9235485
   5.9249432   6.1632405   6.1634829   6.1635219   6.1633718   5.9251079
   5.9238404   6.1654357   6.1655348   6.1621267   6.1621564   5.9234647
   8.4941013   8.4942522   8.4944517   8.4941567   8.4945306   8.4942760
 TTTTTTTTTTTTTTTTTTTTTTTTTTTTTT MOQGAD      TELAPSE       84.54 TCPU     2323.47
 TTTTTTTTTTTTTTTTTTTTTTTTTTTTTT SHELLXN     TELAPSE       93.42 TCPU     2606.25
 TTTTTTTTTTTTTTTTTTTTTTTTTTTTTT MONMO3      TELAPSE       93.58 TCPU     2611.55
 NUMERICALLY INTEGRATED DENSITY    197.9999888418
 TTTTTTTTTTTTTTTTTTTTTTTTTTTTTT NUMDFT      TELAPSE       94.17 TCPU     2630.37
 CYC   7 ETOT(AU) -1.289110540158E+03 DETOT -3.87E-05 tst  9.21E-07 PX  1.05E-03
 TTTTTTTTTTTTTTTTTTTTTTTTTTTTTT DIIS        TELAPSE       94.25 TCPU     2632.84
 DIIS TEST: 0.30303E-05 AT SCF   CYCLE   7 - DIIS ACTIVE - HISTORY:     7 CYCLES
 TTTTTTTTTTTTTTTTTTTTTTTTTTTTTT FDIK        TELAPSE       94.74 TCPU     2648.45
 INSULATING STATE
 TOP OF VALENCE BANDS -    BAND     99; K    1; EIG -2.3156986E-01 AU
 BOTTOM OF VIRTUAL BANDS - BAND    100; K   17; EIG -9.2271518E-02 AU
 INDIRECT ENERGY BAND GAP:   3.7905 eV
 BOTTOM OF VIRTUAL BANDS - BAND    100; K    1; EIG -6.7903495E-02 AU
 TTTTTTTTTTTTTTTTTTTTTTTTTTTTTT PDIG        TELAPSE       95.02 TCPU     2654.59
 CHARGE NORMALIZATION FACTOR   1.00000000
 TOTAL ATOMIC CHARGES:
   4.4966756   4.4946192   4.4941523   4.4940652   4.4942313   4.4960251
   0.8797028   0.8798232   0.8801409   0.8801910   0.8790776   0.8792485
   0.8791202   0.8791294   0.8801127   0.8802162   0.8796603   0.8797183
   5.9230371   6.1621692   6.1623932   6.1651194   6.1654640   5.9239037
   5.9243961   6.1631413   6.1636024   6.1633525   6.1635650   5.9253350
   5.9233744   6.1652489   6.1656030   6.1620553   6.1623904   5.9237313
   8.4942770   8.4944243   8.4942754   8.4943755   8.4943614   8.4944941
 TTTTTTTTTTTTTTTTTTTTTTTTTTTTTT MOQGAD      TELAPSE       95.07 TCPU     2654.64
 TTTTTTTTTTTTTTTTTTTTTTTTTTTTTT SHELLXN     TELAPSE      103.95 TCPU     2937.45
 TTTTTTTTTTTTTTTTTTTTTTTTTTTTTT MONMO3      TELAPSE      104.11 TCPU     2942.75
 NUMERICALLY INTEGRATED DENSITY    197.9999888393
 TTTTTTTTTTTTTTTTTTTTTTTTTTTTTT NUMDFT      TELAPSE      104.70 TCPU     2961.61
 CYC   8 ETOT(AU) -1.289110540637E+03 DETOT -4.78E-07 tst  1.04E-08 PX  1.47E-04
 TTTTTTTTTTTTTTTTTTTTTTTTTTTTTT DIIS        TELAPSE      104.78 TCPU     2964.13
 DIIS TEST: 0.17656E-06 AT SCF   CYCLE   8 - DIIS ACTIVE - HISTORY:     8 CYCLES
 TTTTTTTTTTTTTTTTTTTTTTTTTTTTTT FDIK        TELAPSE      105.27 TCPU     2979.81
 INSULATING STATE
 TOP OF VALENCE BANDS -    BAND     99; K    1; EIG -2.3157467E-01 AU
 BOTTOM OF VIRTUAL BANDS - BAND    100; K   17; EIG -9.2265297E-02 AU
 INDIRECT ENERGY BAND GAP:   3.7908 eV
 BOTTOM OF VIRTUAL BANDS - BAND    100; K    1; EIG -6.7897073E-02 AU
 TTTTTTTTTTTTTTTTTTTTTTTTTTTTTT PDIG        TELAPSE      105.56 TCPU     2985.95
 CHARGE NORMALIZATION FACTOR   1.00000000
 TOTAL ATOMIC CHARGES:
   4.4966999   4.4945899   4.4941162   4.4940199   4.4941947   4.4960455
   0.8796748   0.8798242   0.8801318   0.8801757   0.8790699   0.8792271
   0.8790995   0.8791212   0.8801117   0.8801932   0.8796415   0.8797107
   5.9230537   6.1622908   6.1622747   6.1651557   6.1656193   5.9237816
   5.9244449   6.1631906   6.1636530   6.1634664   6.1635484   5.9252361
   5.9232939   6.1652451   6.1657987   6.1621277   6.1623190   5.9237066
   8.4941974   8.4943508   8.4944057   8.4942514   8.4945673   8.4943737
 TTTTTTTTTTTTTTTTTTTTTTTTTTTTTT MOQGAD      TELAPSE      105.61 TCPU     2986.00
 TTTTTTTTTTTTTTTTTTTTTTTTTTTTTT SHELLXN     TELAPSE      114.48 TCPU     3268.91
 +++ ENERGIES IN A.U. +++
 ::: EXT EL-POLE                                  -1.3181372102674E+03
 ::: EXT EL-SPHEROPOLE                             1.5066541725046E+01
 ::: BIELET ZONE E-E                               2.2390134221230E+03
 ::: TOTAL E-E                                     9.3594275358069E+02
 ::: TOTAL E-N + N-E                              -3.6996239211350E+03
 ::: TOTAL N-N                                     3.2836136553097E+02
 ::: KINETIC ENERGY                                1.2799210404913E+03
 ::: PSEUDO TOTAL   ENERGY                        -1.1553987615320E+03
 ::: VIRIAL COEFFICIENT                            1.0511317974977E+00
 TTTTTTTTTTTTTTTTTTTTTTTTTTTTTT MONMO3      TELAPSE      114.65 TCPU     3274.22
 NUMERICALLY INTEGRATED DENSITY    197.9999888389
 EXCHANGE ENERGY: -0.126018362124E+03  CORRELATION ENERGY: -0.769341707612E+01
 TTTTTTTTTTTTTTTTTTTTTTTTTTTTTT NUMDFT      TELAPSE      115.24 TCPU     3293.11
 CYC   9 ETOT(AU) -1.289110540732E+03 DETOT -9.49E-08 tst  5.47E-10 PX  1.47E-04

 == SCF ENDED - CONVERGENCE ON ENERGY      E(AU) -1.2891105407318E+03 CYCLES   9


 ENERGY EXPRESSION=HARTREE+FOCK EXCH*0.00000+(HSESOL     EXCH)*1.00000+PBESOL     CORR


 TOTAL ENERGY(DFT)(AU)(  9) -1.2891105407318E+03 DE-9.5E-08 tester 5.5E-10
 TTTTTTTTTTTTTTTTTTTTTTTTTTTTTT EDFT        TELAPSE      115.24 TCPU     3293.12
 
 INFORMATION **** DFTD3 ENERGY **** CALCULATE DFTD3 ENERGY

           DFT-D V3(BJ)
 DF                                         hsesol3c  
 parameters
 s6       :    1.0000
 s8       :    0.0000
 a1       :    0.5196
 a2       :    4.9385
 k1 k3    :   16.0000   -4.0000
 Cutoff   :   50.2022
 CN-Cutoff:   21.1671
 ABC-Cutoff:   21.1671
 
 Edisp /kcal,au:   -27.6774 -0.04410671

 E6    /kcal :   -29.5676
 E8    /kcal :     0.0000
 E6(ABC) "   :   1.890225
 
 INFORMATION **** DFTD3 ENERGY **** NORMAL TERMINATION OF DFTD3 MODULE

 GCP ENERGY CALCULATION
  level        hsesol3c            basis:hsesol3c
  Nbf            474
  Atoms           42

  Parameters: 
  sigma     1.0000
  eta       1.4281
  alpha     0.2936
  beta      1.9467

  dmp_scal      4.0000
  dmp_exp       6.0000
 cutoffs: 
   distance [bohr] 60.0
   noise    [a.u.] 2.2E-16
 SR-damping   T
 ** gCP correction **
  Egcp:        0.0830868039 / (a.u.) ||      52.1378 / (kcal/mol)
 INFORMATION **** GCP **** NORMAL TERMINATION OF GCP MODULE

 *******************************************************************************

 DFT-D3-GCP DISPERSION AND COUNTERPOISE CORRECTION

 D3 DISPERSION ENERGY (AU)      -4.4106713047242E-02
 GCP ENERGY (AU)                 8.3086803908100E-02
 TOTAL ENERGY + DISP + GCP (AU) -1.2890715606410E+03

 *******************************************************************************

 EIGENVECTORS IN FORTRAN UNIT 10
 TTTTTTTTTTTTTTTTTTTTTTTTTTTTTT END         TELAPSE      116.52 TCPU     3300.36
 EEEEEEEEEE TERMINATION  DATE 19 02 2026 TIME 18:57:34.4
