 Default number of threads is:           32

         
 *******************************************************************************
 *                                                                             *
 *                               CRYSTAL23                                     *
 *                      public : 1.0.1 - October 2022                          *
 *                       HTTP://WWW.CRYSTAL.UNITO.IT                           *
 *                                                                             *
 *                              MAIN AUTHORS                                   *
 *                                                                             *
 *  R. DOVESI(1,11), V.R. SAUNDERS(2), C. ROETTI(1,11), R. ORLANDO(1,11),      *
 *  C.M. ZICOVICH-WILSON(1,3), F. PASCALE(4), B. CIVALLERI(1,11),              *
 *  K. DOLL(5), N.M. HARRISON(6), I.J. BUSH(7), Ph. D'ARCO(8),                 *
 *  M. LLUNELL(9), M. CAUSA'(10), Y. NOEL(8), L. MASCHIO(1,11), A. ERBA(1,11)  *
 *  M. RE'RAT(14), S. CASASSA(1,11), B.G. SEARLE(2), J.K. DESMARAIS(1)         *
 *                                                                             *
 *        CONTRIBUTIONS TO THE CODE HAVE ALSO BEEN GIVEN BY                    *
 *                                                                             *
 *  M. FERRABONE(1,11), M. DE LA PIERRE(1,11), M. FERRERO(1,11),               *
 *  J. BAIMA(1,11), E. ALBANESE(1,11), M.F. PEINTINGER(12), R. BAST(13),       *
 *  B. KIRTMAN(15), V. LACIVITA(1,11), R. DEMICHELIS(1,16)                     *
 *  G. BRANDEBURG(17), S. SALUSTRO(1,11), G. SANSONE(1,11)                     *
 *  M.T. RUGGIERO(18), L.E. DAGA(1), L. DONA'(1), A. COSSARD(1)                *
 *                                                                             *
 * (1) THEORETICAL CHEMISTRY GROUP - UNIVERSITA' DI TORINO - TORINO (ITALY)    *
 * (2) SCIENTIFIC COMPUTING DEPARTMENT - STFC DARESBURY (UK)                   *
 * (3) UNIVERSIDAD AUTONOMA DEL ESTADO DE MORELOS - CUERNAVACA (MEXICO)        *
 * (4) UNIVERSITE' DE LORRAINE - NANCY (FRANCE)                                *
 * (5) UNIVERSITAET STUTTGART- STUTTGART (GERMANY)                             *
 * (6) IMPERIAL COLLEGE - LONDON (UK)                                          *
 * (7) SCIENTIFIC COMPUTING DEPARTMENT - STFC RAL (UK)                         *
 * (8) UPMC - SORBONNE UNIVERSITES - PARIS (FRANCE)                            *
 * (9) UNIVERSIDAD DE BARCELONA - BARCELONA (SPAIN)                            *
 *(10) UNIVERSITA' DI NAPOLI "FEDERICO II" - NAPOLI (ITALY)                    *
 *(11) NIS - NANOSTRUCTURED INTERFACES AND SURFACES - TORINO (ITALY)           *
 *(12) MPI FUER CHEMISCHE ENERGIEKONVERSION - MUELHEIM AN DER RUHR (GERMANY)   *
 *(13) UNIVERSITY OF TROMSO - TROMSO (NORWAY)                                  *
 *(14) UNIVERSITE' DE PAU ET DES PAYS DE L'ADOUR - PAU (FRANCE)                *
 *(15) UNIVERSITY OF CALIFORNIA SANTA BARBARA - SANTA BARBARA (USA)            *
 *(16) CURTIN UNIVERSITY - PERTH (AUSTRALIA)                                   *
 *(17) UNIVERSITY COLLEGE LONDON - LONDON (UK)                                 *
 *(18) UNIVERSITY OF VERMONT - BURLINGTON (USA)                                *
 *                                                                             *
 *******************************************************************************
 EEEEEEEEEE STARTING  DATE 19 02 2026 TIME 18:59:39.5
 cof-1_z39_L000_incl                                                             

 CRYSTAL CALCULATION
 (INPUT ACCORDING TO THE INTERNATIONAL TABLES FOR X-RAY CRYSTALLOGRAPHY)
 CRYSTAL FAMILY                       :  TRICLINIC   
 CRYSTAL CLASS  (GROTH - 1921)        :  TRICLINIC PEDIAL                     

 SPACE GROUP (NONCENTROSYMMETRIC)     :  P 1             

 LATTICE PARAMETERS  (ANGSTROMS AND DEGREES) - CONVENTIONAL CELL
        A           B           C        ALPHA        BETA       GAMMA
    15.02361    15.02392     3.90000    90.00032    89.99994   119.99596


 NUMBER OF IRREDUCIBLE ATOMS IN THE CONVENTIONAL CELL:   42

 INPUT COORDINATES

 ATOM AT. N.              COORDINATES
   1   5     6.136805400000E-01  2.273182200000E-01  5.012248000000E-01
   2   5     7.727362000000E-01  3.863778800000E-01  5.012248200000E-01
   3   5     6.136762700000E-01  3.863606700000E-01  4.986496400000E-01
   4   5     2.272552500000E-01  6.136332200000E-01  5.012248100000E-01
   5   5     3.863632200000E-01  6.136124500000E-01  5.012248100000E-01
   6   5     3.863435000000E-01  7.727516500000E-01  4.986496400000E-01
   7   1     9.030436200000E-01  3.089300500000E-01  4.958859500000E-01
   8   1     9.663453000000E-02  6.910534400000E-01  4.950695500000E-01
   9   1     9.029714200000E-01  5.940724300000E-01  4.949439000000E-01
  10   1     9.673618000000E-02  4.056849400000E-01  4.949752400000E-01
  11   1     6.910324000000E-01  9.700412000000E-02  5.041140800000E-01
  12   1     3.089297200000E-01  9.034373100000E-01  5.049305400000E-01
  13   1     4.058699900000E-01  9.704998000000E-02  5.050562600000E-01
  14   1     5.943122100000E-01  9.033473200000E-01  5.050247100000E-01
  15   1     6.910727400000E-01  5.940542100000E-01  4.958860000000E-01
  16   1     3.089618300000E-01  4.056093300000E-01  4.950695000000E-01
  17   1     4.058405700000E-01  3.088232500000E-01  4.949438000000E-01
  18   1     5.942908800000E-01  6.909579300000E-01  4.949753400000E-01
  19   6     8.918903100000E-01  4.459436900000E-01  4.985554100000E-01
  20   6     9.464891100000E-01  3.927856300000E-01  4.960115900000E-01
  21   6     5.338812000000E-02  6.071853000000E-01  4.957918400000E-01
  22   6     9.464521100000E-01  5.536921900000E-01  4.964513300000E-01
  23   6     5.342634000000E-02  4.462499700000E-01  4.947554100000E-01
  24   6     1.080358900000E-01  5.540356300000E-01  4.964827100000E-01
  25   6     5.540394200000E-01  1.081684600000E-01  5.014446600000E-01
  26   6     6.071778500000E-01  5.355594000000E-02  5.039884300000E-01
  27   6     3.927986700000E-01  9.466631600000E-01  5.042082600000E-01
  28   6     4.462875800000E-01  5.360286000000E-02  5.035487900000E-01
  29   6     5.537168500000E-01  9.466235600000E-01  5.052445900000E-01
  30   6     4.459279100000E-01  8.919920600000E-01  5.035173500000E-01
  31   6     5.540448700000E-01  4.458745500000E-01  4.985554100000E-01
  32   6     6.072102200000E-01  5.536257800000E-01  4.960116400000E-01
  33   6     3.928233700000E-01  4.461720300000E-01  4.957917900000E-01
  34   6     4.462872600000E-01  3.926899900000E-01  4.964512600000E-01
  35   6     5.537429600000E-01  6.070980000000E-01  4.947554800000E-01
  36   6     4.459599800000E-01  5.539582300000E-01  4.964827100000E-01
  37   8     5.607366800000E-01  2.803706300000E-01  4.993405300000E-01
  38   8     7.196817000000E-01  2.803783300000E-01  5.047735300000E-01
  39   8     7.196794200000E-01  4.393234600000E-01  4.965769400000E-01
  40   8     2.803245100000E-01  7.196511100000E-01  4.993405500000E-01
  41   8     2.803439700000E-01  5.606956100000E-01  5.047735200000E-01
  42   8     4.392638400000E-01  7.196354200000E-01  4.965769200000E-01

 *******************************************************************************

 << INFORMATION >>: FROM NOW ON, ALL COORDINATES REFER TO THE PRIMITIVE CELL

 *******************************************************************************

 LATTICE PARAMETERS  (ANGSTROMS AND DEGREES) - PRIMITIVE CELL
       A          B          C        ALPHA      BETA     GAMMA        VOLUME
   15.02361   15.02392    3.90000    90.00032  89.99994 119.99596    762.378037

 COORDINATES OF THE EQUIVALENT ATOMS (FRACTIONAL UNITS)

 N. ATOM EQUIV AT. N.          X                  Y                  Z

   1   1   1    5 B    -3.86319460000E-01  2.27318220000E-01 -4.98775200000E-01

   2   2   1    5 B    -2.27263800000E-01  3.86377880000E-01 -4.98775180000E-01

   3   3   1    5 B    -3.86323730000E-01  3.86360670000E-01  4.98649640000E-01

   4   4   1    5 B     2.27255250000E-01 -3.86366780000E-01 -4.98775190000E-01

   5   5   1    5 B     3.86363220000E-01 -3.86387550000E-01 -4.98775190000E-01

   6   6   1    5 B     3.86343500000E-01 -2.27248350000E-01  4.98649640000E-01

   7   7   1    1 H    -9.69563800000E-02  3.08930050000E-01  4.95885950000E-01

   8   8   1    1 H     9.66345300000E-02 -3.08946560000E-01  4.95069550000E-01

   9   9   1    1 H    -9.70285800000E-02 -4.05927570000E-01  4.94943900000E-01

  10  10   1    1 H     9.67361800000E-02  4.05684940000E-01  4.94975240000E-01

  11  11   1    1 H    -3.08967600000E-01  9.70041200000E-02 -4.95885920000E-01

  12  12   1    1 H     3.08929720000E-01 -9.65626900000E-02 -4.95069460000E-01

  13  13   1    1 H     4.05869990000E-01  9.70499800000E-02 -4.94943740000E-01

  14  14   1    1 H    -4.05687790000E-01 -9.66526800000E-02 -4.94975290000E-01

  15  15   1    1 H    -3.08927260000E-01 -4.05945790000E-01  4.95886000000E-01

  16  16   1    1 H     3.08961830000E-01  4.05609330000E-01  4.95069500000E-01

  17  17   1    1 H     4.05840570000E-01  3.08823250000E-01  4.94943800000E-01

  18  18   1    1 H    -4.05709120000E-01 -3.09042070000E-01  4.94975340000E-01

  19  19   1    6 C    -1.08109690000E-01  4.45943690000E-01  4.98555410000E-01

  20  20   1    6 C    -5.35108900000E-02  3.92785630000E-01  4.96011590000E-01

  21  21   1    6 C     5.33881200000E-02 -3.92814700000E-01  4.95791840000E-01

  22  22   1    6 C    -5.35478900000E-02 -4.46307810000E-01  4.96451330000E-01

  23  23   1    6 C     5.34263400000E-02  4.46249970000E-01  4.94755410000E-01

  24  24   1    6 C     1.08035890000E-01 -4.45964370000E-01  4.96482710000E-01

  25  25   1    6 C    -4.45960580000E-01  1.08168460000E-01 -4.98555340000E-01

  26  26   1    6 C    -3.92822150000E-01  5.35559400000E-02 -4.96011570000E-01

  27  27   1    6 C     3.92798670000E-01 -5.33368400000E-02 -4.95791740000E-01

  28  28   1    6 C     4.46287580000E-01  5.36028600000E-02 -4.96451210000E-01

  29  29   1    6 C    -4.46283150000E-01 -5.33764400000E-02 -4.94755410000E-01

  30  30   1    6 C     4.45927910000E-01 -1.08007940000E-01 -4.96482650000E-01

  31  31   1    6 C    -4.45955130000E-01  4.45874550000E-01  4.98555410000E-01

  32  32   1    6 C    -3.92789780000E-01 -4.46374220000E-01  4.96011640000E-01

  33  33   1    6 C     3.92823370000E-01  4.46172030000E-01  4.95791790000E-01

  34  34   1    6 C     4.46287260000E-01  3.92689990000E-01  4.96451260000E-01

  35  35   1    6 C    -4.46257040000E-01 -3.92902000000E-01  4.94755480000E-01

  36  36   1    6 C     4.45959980000E-01 -4.46041770000E-01  4.96482710000E-01

  37  37   1    8 O    -4.39263320000E-01  2.80370630000E-01  4.99340530000E-01

  38  38   1    8 O    -2.80318300000E-01  2.80378330000E-01 -4.95226470000E-01

  39  39   1    8 O    -2.80320580000E-01  4.39323460000E-01  4.96576940000E-01

  40  40   1    8 O     2.80324510000E-01 -2.80348890000E-01  4.99340550000E-01

  41  41   1    8 O     2.80343970000E-01 -4.39304390000E-01 -4.95226480000E-01

  42  42   1    8 O     4.39263840000E-01 -2.80364580000E-01  4.96576920000E-01

 NUMBER OF SYMMETRY OPERATORS         :    1
 *******************************************************************************
 * GEOMETRY EDITING - INPUT COORDINATES ARE GIVEN IN ANGSTROM         
 *******************************************************************************

 GCALCO - MAX INDICES DIRECT LATTICE VECTOR     9     9    33
 NO.OF VECTORS CREATED 6999 STARS 3500 RMAX   204.97372 BOHR

 GEOMETRY FOR WAVE FUNCTION - DIMENSIONALITY OF THE SYSTEM    3
 (NON PERIODIC DIRECTION: LATTICE PARAMETER FORMALLY SET TO 500)
 *******************************************************************************
 LATTICE PARAMETERS (ANGSTROMS AND DEGREES) - BOHR = 0.5291772083 ANGSTROM
 PRIMITIVE CELL - CENTRING CODE 1/0 VOLUME=   762.378037 - DENSITY  0.850 g/cm^3
         A              B              C           ALPHA      BETA       GAMMA 
    15.02361100    15.02391600     3.90000000    90.000323  89.999944 119.995964
 *******************************************************************************
 ATOMS IN THE ASYMMETRIC UNIT   42 - ATOMS IN THE UNIT CELL:   42
     ATOM                 X/A                 Y/B                 Z/C    
 *******************************************************************************
      1 T   5 B    -3.863194600000E-01  2.273182200000E-01 -4.987752000000E-01
      2 T   5 B    -2.272638000000E-01  3.863778800000E-01 -4.987751800000E-01
      3 T   5 B    -3.863237300000E-01  3.863606700000E-01  4.986496400000E-01
      4 T   5 B     2.272552500000E-01 -3.863667800000E-01 -4.987751900000E-01
      5 T   5 B     3.863632200000E-01 -3.863875500000E-01 -4.987751900000E-01
      6 T   5 B     3.863435000000E-01 -2.272483500000E-01  4.986496400000E-01
      7 T   1 H    -9.695638000000E-02  3.089300500000E-01  4.958859500000E-01
      8 T   1 H     9.663453000000E-02 -3.089465600000E-01  4.950695500000E-01
      9 T   1 H    -9.702858000000E-02 -4.059275700000E-01  4.949439000000E-01
     10 T   1 H     9.673618000000E-02  4.056849400000E-01  4.949752400000E-01
     11 T   1 H    -3.089676000000E-01  9.700412000000E-02 -4.958859200000E-01
     12 T   1 H     3.089297200000E-01 -9.656269000000E-02 -4.950694600000E-01
     13 T   1 H     4.058699900000E-01  9.704998000000E-02 -4.949437400000E-01
     14 T   1 H    -4.056877900000E-01 -9.665268000000E-02 -4.949752900000E-01
     15 T   1 H    -3.089272600000E-01 -4.059457900000E-01  4.958860000000E-01
     16 T   1 H     3.089618300000E-01  4.056093300000E-01  4.950695000000E-01
     17 T   1 H     4.058405700000E-01  3.088232500000E-01  4.949438000000E-01
     18 T   1 H    -4.057091200000E-01 -3.090420700000E-01  4.949753400000E-01
     19 T   6 C    -1.081096900000E-01  4.459436900000E-01  4.985554100000E-01
     20 T   6 C    -5.351089000000E-02  3.927856300000E-01  4.960115900000E-01
     21 T   6 C     5.338812000000E-02 -3.928147000000E-01  4.957918400000E-01
     22 T   6 C    -5.354789000000E-02 -4.463078100000E-01  4.964513300000E-01
     23 T   6 C     5.342634000000E-02  4.462499700000E-01  4.947554100000E-01
     24 T   6 C     1.080358900000E-01 -4.459643700000E-01  4.964827100000E-01
     25 T   6 C    -4.459605800000E-01  1.081684600000E-01 -4.985553400000E-01
     26 T   6 C    -3.928221500000E-01  5.355594000000E-02 -4.960115700000E-01
     27 T   6 C     3.927986700000E-01 -5.333684000000E-02 -4.957917400000E-01
     28 T   6 C     4.462875800000E-01  5.360286000000E-02 -4.964512100000E-01
     29 T   6 C    -4.462831500000E-01 -5.337644000000E-02 -4.947554100000E-01
     30 T   6 C     4.459279100000E-01 -1.080079400000E-01 -4.964826500000E-01
     31 T   6 C    -4.459551300000E-01  4.458745500000E-01  4.985554100000E-01
     32 T   6 C    -3.927897800000E-01 -4.463742200000E-01  4.960116400000E-01
     33 T   6 C     3.928233700000E-01  4.461720300000E-01  4.957917900000E-01
     34 T   6 C     4.462872600000E-01  3.926899900000E-01  4.964512600000E-01
     35 T   6 C    -4.462570400000E-01 -3.929020000000E-01  4.947554800000E-01
     36 T   6 C     4.459599800000E-01 -4.460417700000E-01  4.964827100000E-01
     37 T   8 O    -4.392633200000E-01  2.803706300000E-01  4.993405300000E-01
     38 T   8 O    -2.803183000000E-01  2.803783300000E-01 -4.952264700000E-01
     39 T   8 O    -2.803205800000E-01  4.393234600000E-01  4.965769400000E-01
     40 T   8 O     2.803245100000E-01 -2.803488900000E-01  4.993405500000E-01
     41 T   8 O     2.803439700000E-01 -4.393043900000E-01 -4.952264800000E-01
     42 T   8 O     4.392638400000E-01 -2.803645800000E-01  4.965769200000E-01

 T = ATOM BELONGING TO THE ASYMMETRIC UNIT

 ****    1 SYMMOPS - TRANSLATORS IN FRACTIONAL UNITS
 **** MATRICES AND TRANSLATORS IN THE CRYSTALLOGRAPHIC REFERENCE FRAME
   V INV                    ROTATION MATRICES                   TRANSLATORS
   1   1  1.00 -0.00  0.00  0.00  1.00  0.00 -0.00 -0.00  1.00  0.00  0.00  0.00

 DIRECT LATTICE VECTORS CARTESIAN COMPONENTS (ANGSTROM)
          X                    Y                    Z
   0.130113578931E+02  -0.751088897922E+01   0.000000000000E+00
   0.000000000000E+00   0.150239160000E+02   0.000000000000E+00
  -0.829020020439E-05  -0.219859125865E-04   0.389999999993E+01


 CARTESIAN COORDINATES - PRIMITIVE CELL
 *******************************************************************************
 *      ATOM          X(ANGSTROM)         Y(ANGSTROM)         Z(ANGSTROM)
 *******************************************************************************
    1     5 B    -5.026536620166E+00  6.316823383148E+00 -1.945223279965E+00
    2     5 B    -2.957006502990E+00  7.511872950200E+00 -1.945223201965E+00
    3     5 B    -5.026600447516E+00 -6.317642065417E+00  1.944733595965E+00
    4     5 B     2.956903525772E+00 -7.511620034577E+00 -1.945223240965E+00
    5     5 B     5.027114267080E+00  6.316941620309E+00 -1.945223240965E+00
    6     5 B     5.026849414251E+00 -6.315954221148E+00  1.944733595965E+00
    7     1 H    -1.261538271189E+00  5.369556824577E+00  1.933955204965E+00
    8     1 H     1.257342350432E+00 -5.367409276874E+00  1.930771244965E+00
    9     1 H    -1.262477683419E+00 -5.369861703366E+00  1.930281209965E+00
   10     1 H     1.258664955743E+00  5.368390870289E+00  1.930403435965E+00
   11     1 H    -4.020083909965E+00  3.778013994813E+00 -1.933955087965E+00
   12     1 H     4.019599254947E+00 -3.771075688041E+00 -1.930770893965E+00
   13     1 H     5.280923801124E+00 -1.590362805774E+00 -1.930280585965E+00
   14     1 H    -5.278544925089E+00  1.594985087902E+00 -1.930403630965E+00
   15     1 H    -4.019567253776E+00 -3.778587999506E+00  1.933955399965E+00
   16     1 H     4.020008841198E+00  3.773251614236E+00  1.930771049965E+00
   17     1 H     5.280532800609E+00  1.591500220524E+00  1.930280819965E+00
   18     1 H    -5.278830664242E+00 -1.595796824455E+00  1.930403825965E+00
   19     6 C    -1.406658001422E+00  7.511809457262E+00  1.944366098965E+00
   20     6 C    -6.962534530014E-01  6.303081759829E+00  1.934445200965E+00
   21     6 C     6.946478263438E-01 -6.302618198930E+00  1.933588175965E+00
   22     6 C    -6.967348768889E-01 -6.303109705658E+00  1.936160186965E+00
   23     6 C     6.951451290347E-01  6.303131878327E+00  1.929546098965E+00
   24     6 C     1.405689514144E+00 -7.511587725059E+00  1.936282568965E+00
   25     6 C     7.208809313605E+00 -2.536203755646E+00 -1.944365825965E+00
   26     6 C    -5.111145469935E+00  3.755074406355E+00 -1.934445122965E+00
   27     6 C     5.110848185499E+00 -3.751584504985E+00 -1.933587785965E+00
   28     6 C     5.806811542286E+00 -2.546680685251E+00 -1.936159718965E+00
   29     6 C    -5.806745684669E+00  2.550070919655E+00 -1.929546098965E+00
   30     6 C     5.802131747453E+00 -4.972006327013E+00 -1.936282334965E+00
   31     6 C     7.208871959258E+00  2.537401316468E+00  1.944366098965E+00
   32     6 C    -5.110732516351E+00 -3.756099261363E+00  1.934445395965E+00
   33     6 C     5.111161345613E+00  3.752787479323E+00  1.933587980965E+00
   34     6 C     5.806799147291E+00  2.547716446168E+00  1.936159913965E+00
   35     6 C    -5.806414161358E+00 -2.551150438249E+00  1.929546371965E+00
   36     6 C     5.802540789819E+00  4.973055100450E+00  1.936282568965E+00
   37     8 O     7.295941487611E+00  6.228654754106E-04  1.947428066965E+00
   38     8 O    -3.647317619747E+00  6.317830996289E+00 -1.931383232965E+00
   39     8 O    -3.647355507891E+00 -6.318111402858E+00  1.936650065965E+00
   40     8 O     3.647398386173E+00 -6.317435425274E+00  1.947428144965E+00
   41     8 O     3.647659832357E+00  6.318222199552E+00 -1.931383271965E+00
   42     8 O    -7.295942978060E+00 -5.577725998786E-04  1.936649987965E+00

 *******************************************************************************
 STARTING BASIS SET HANDLING 
 *******************************************************************************

 Loading internal basis set: SOLDEF2MSVP         

 Please cite in your publication:
 L. Dona', J. G. Brandenburg and B. Civalleri, J. Chem. Phys., 151, 121101 (2019
 )                                                                              
                                                                                
                    

 *******************************************************************************
 LOCAL ATOMIC FUNCTIONS BASIS SET
 *******************************************************************************
   ATOM   X(AU)   Y(AU)   Z(AU)  N. TYPE  EXPONENT  S COEF   P COEF   D/F/G COEF
 *******************************************************************************
   1 B   -9.499  11.937  -3.676
                                  1 S  
                                         2.410E+03 1.755E-03 0.000E+00 0.000E+00
                                         3.619E+02 1.344E-02 0.000E+00 0.000E+00
                                         8.231E+01 6.637E-02 0.000E+00 0.000E+00
                                         2.311E+01 2.303E-01 0.000E+00 0.000E+00
                                         7.252E+00 5.150E-01 0.000E+00 0.000E+00
                                  2 S  
                                         2.367E+00 1.000E+00 0.000E+00 0.000E+00
                                  3 S  
                                         5.533E-01 1.000E+00 0.000E+00 0.000E+00
                                  4 S  
                                         1.716E-01 1.000E+00 0.000E+00 0.000E+00
                           5-     7 P  
                                         6.002E+00 0.000E+00-3.555E-02 0.000E+00
                                         1.240E+00 0.000E+00-1.983E-01 0.000E+00
                                         3.367E-01 0.000E+00-5.048E-01 0.000E+00
                           8-    10 P  
                                         1.256E-01 0.000E+00 1.000E+00 0.000E+00
                          11-    15 D  
                                         8.880E-01 0.000E+00 0.000E+00 1.000E+00
   2 B   -5.588  14.195  -3.676
   3 B   -9.499 -11.939   3.675
   4 B    5.588 -14.195  -3.676
   5 B    9.500  11.937  -3.676
   6 B    9.499 -11.935   3.675
   7 H   -2.384  10.147   3.655
                                 91 S  
                                         1.874E+01 1.968E-02 0.000E+00 0.000E+00
                                         2.826E+00 1.380E-01 0.000E+00 0.000E+00
                                         6.401E-01 4.783E-01 0.000E+00 0.000E+00
                                 92 S  
                                         1.756E-01 1.000E+00 0.000E+00 0.000E+00
   8 H    2.376 -10.143   3.649
   9 H   -2.386 -10.148   3.648
  10 H    2.379  10.145   3.648
  11 H   -7.597   7.139  -3.655
  12 H    7.596  -7.126  -3.649
  13 H    9.979  -3.005  -3.648
  14 H   -9.975   3.014  -3.648
  15 H   -7.596  -7.140   3.655
  16 H    7.597   7.130   3.649
  17 H    9.979   3.007   3.648
  18 H   -9.976  -3.016   3.648
  19 C   -2.658  14.195   3.674
                                115 S  
                                         3.624E+03 1.634E-03 0.000E+00 0.000E+00
                                         5.440E+02 1.252E-02 0.000E+00 0.000E+00
                                         1.237E+02 6.211E-02 0.000E+00 0.000E+00
                                         3.476E+01 2.182E-01 0.000E+00 0.000E+00
                                         1.093E+01 4.980E-01 0.000E+00 0.000E+00
                                116 S  
                                         3.574E+00 1.000E+00 0.000E+00 0.000E+00
                                117 S  
                                         7.742E-01 1.000E+00 0.000E+00 0.000E+00
                                118 S  
                                         2.330E-01 1.000E+00 0.000E+00 0.000E+00
                         119-   121 P  
                                         9.443E+00 0.000E+00 3.790E-02 0.000E+00
                                         2.002E+00 0.000E+00 2.082E-01 0.000E+00
                                         5.463E-01 0.000E+00 5.047E-01 0.000E+00
                         122-   124 P  
                                         1.820E-01 0.000E+00 1.000E+00 0.000E+00
                         125-   129 D  
                                         8.880E-01 0.000E+00 0.000E+00 1.000E+00
  20 C   -1.316  11.911   3.656
  21 C    1.313 -11.910   3.654
  22 C   -1.317 -11.911   3.659
  23 C    1.314  11.911   3.646
  24 C    2.656 -14.195   3.659
  25 C   13.623  -4.793  -3.674
  26 C   -9.659   7.096  -3.656
  27 C    9.658  -7.089  -3.654
  28 C   10.973  -4.813  -3.659
  29 C  -10.973   4.819  -3.646
  30 C   10.964  -9.396  -3.659
  31 C   13.623   4.795   3.674
  32 C   -9.658  -7.098   3.656
  33 C    9.659   7.092   3.654
  34 C   10.973   4.814   3.659
  35 C  -10.973  -4.821   3.646
  36 C   10.965   9.398   3.659
  37 O   13.787   0.001   3.680
                                385 S  
                                         6.773E+03 1.727E-03 0.000E+00 0.000E+00
                                         1.017E+03 1.325E-02 0.000E+00 0.000E+00
                                         2.313E+02 6.603E-02 0.000E+00 0.000E+00
                                         6.501E+01 2.353E-01 0.000E+00 0.000E+00
                                         2.050E+01 5.498E-01 0.000E+00 0.000E+00
                                386 S  
                                         6.716E+00 1.000E+00 0.000E+00 0.000E+00
                                387 S  
                                         1.147E+00 1.000E+00 0.000E+00 0.000E+00
                                388 S  
                                         3.342E-01 1.000E+00 0.000E+00 0.000E+00
                         389-   391 P  
                                         1.769E+01 0.000E+00 4.359E-02 0.000E+00
                                         3.854E+00 0.000E+00 2.318E-01 0.000E+00
                                         1.047E+00 0.000E+00 5.146E-01 0.000E+00
                         392-   394 P  
                                         2.759E-01 0.000E+00 1.000E+00 0.000E+00
                         395-   399 D  
                                         8.000E-01 0.000E+00 0.000E+00 1.000E+00
  38 O   -6.892  11.939  -3.650
  39 O   -6.893 -11.940   3.660
  40 O    6.893 -11.938   3.680
  41 O    6.893  11.940  -3.650
  42 O  -13.787  -0.001   3.660

 *******************************************************************************
 FINISHED BASIS SET HANDLING 
 *******************************************************************************

 INFORMATION **** SET_MPP **** PCRYSTAL CALCULATION
 INFORMATION **** READM2 **** NEW DEFAULT: FOCK/KS MATRIX MIXING SET TO 30 %
 INFORMATION **** READM2 **** NEW DEFAULT: FULL DIRECT SCF MODE
 INFORMATION **** READM2 **** NEW DEFAULT: COULOMB BIPOLAR BUFFER SET TO 32 Mb
 INFORMATION **** READM2 **** NEW DEFAULT: EXCHANGE BIPOLAR BUFFER SET TO 32 Mb

 *******************************************************************************
 NEW DEFAULT: DFT INTEGRATION GRID INCREASED TO XLGRID
 NEW DEFAULT: DIIS ACCELERATOR ACTIVE
 USE KEYWORD NODIIS TO TURN IT OFF
 *******************************************************************************

 WARNING **** RDDFTP **** HSEsol-HJS ACTIVE
 RANGE SEPARATION - OMEGA:   0.110000000000000     
 WARNING **** RDDFTP **** HSEsol-3c has to be combined with sol-def2-mSVP basis set
 *******************************************************************************
 N. OF ATOMS PER CELL        42  COULOMB OVERLAP TOL         (T1) 10**   -6
 NUMBER OF SHELLS           234  COULOMB PENETRATION TOL     (T2) 10**   -6
 NUMBER OF AO               474  EXCHANGE OVERLAP TOL        (T3) 10**   -6
 N. OF ELECTRONS PER CELL   198  EXCHANGE PSEUDO OVP (F(G))  (T4) 10**   -6
 CORE ELECTRONS PER CELL     60  EXCHANGE PSEUDO OVP (P(G))  (T5) 10**  -12
 N. OF SYMMETRY OPERATORS     1  POLE ORDER IN MONO ZONE                  4
 *******************************************************************************
 TYPE OF CALCULATION :  RESTRICTED CLOSED SHELL
 KOHN-SHAM HAMILTONIAN

 (EXCHANGE)[CORRELATION] FUNCTIONAL:(HSEsol GGA)[PBEsol]

 RANGE-SEPARATED HYBRID FUNCTIONAL 
 OMEGA (SHORT-RANGE)[LONG-RANGE]:(    0.1100)[    0.0000]

 HYBRID EXCHANGE - PERCENTAGE OF FOCK EXCHANGE    25.0000

 CAPPA:IS1  2;IS2  2;IS3  8; K PTS MONK NET  20; SYMMOPS:K SPACE   2;G SPACE   1

 *******************************************************************************
 MAX NUMBER OF SCF CYCLES      50  CONVERGENCE ON DELTAP        10**-16
 WEIGHT OF F(I) IN F(I+1)      30% CONVERGENCE ON ENERGY        10**- 6
 SHRINK. FACT.(MONKH.)    2  2  8  NUMBER OF K POINTS IN THE IBZ     20
 SHRINKING FACTOR(GILAT NET)    8  NUMBER OF K POINTS(GILAT NET)   1028
 *******************************************************************************
 *** K POINTS COORDINATES (OBLIQUE COORDINATES IN UNITS OF IS =  2)
   1-R(  0  0  0)   2-R(  1  0  0)   3-R(  0  1  0)   4-R(  1  1  0)
   5-C(  0  0  1)   6-C(  1  0  1)   7-C(  0  1  1)   8-C(  1  1  1)
   9-C(  0  0  2)  10-C(  1  0  2)  11-C(  0  1  2)  12-C(  1  1  2)
  13-C(  0  0  3)  14-C(  1  0  3)  15-C(  0  1  3)  16-C(  1  1  3)
  17-R(  0  0  4)  18-R(  1  0  4)  19-R(  0  1  4)  20-R(  1  1  4)

 DIRECT LATTICE VECTORS COMPON. (A.U.)     RECIP. LATTICE VECTORS COMPON. (A.U.) 
        X            Y            Z              X            Y            Z
   24.5879030  -14.1935232    0.0000000      0.2555397    0.0000000    0.0000005
    0.0000000   28.3910867    0.0000000      0.1277517    0.2213084    0.0000015
   -0.0000157   -0.0000415    7.3699319      0.0000000    0.0000000    0.8525432

 DISK SPACE FOR EIGENVECTORS (FTN 10)     7189632 REALS

 SYMMETRY ADAPTION OF THE BLOCH FUNCTIONS DISABLED
 TTTTTTTTTTTTTTTTTTTTTTTTTTTTTT gordsh1     TELAPSE        0.04 TCPU        0.04

 MATRIX SIZE: P(G)  345096, F(G)   72249, P(G) IRR  174831, F(G) IRR   72981
 MAX G-VECTOR INDEX FOR 1- AND 2-ELECTRON INTEGRALS 109

 TTTTTTTTTTTTTTTTTTTTTTTTTTTTTT INPUT       TELAPSE        0.29 TCPU        0.29

 NEIGHBORS OF THE NON-EQUIVALENT ATOMS

 N = NUMBER OF NEIGHBORS AT DISTANCE R
    ATOM  N     R/ANG      R/AU   NEIGHBORS (ATOM LABELS AND CELL INDICES)
   1 B    1     1.3791     2.6061   37 O   -1 0-1
   1 B    1     1.3793     2.6065   38 O    0 0 0
   1 B    1     1.5503     2.9297   25 C   -1 0 0
   1 B    1     2.3895     4.5155    3 B    0 1-1
   1 B    1     2.3898     4.5160    2 B    0 0 0
   1 B    1     2.5632     4.8437   26 C    0 0 0

   2 B    1     1.3793     2.6065   39 O    0 1-1
   2 B    1     1.3793     2.6065   38 O    0 0 0
   2 B    1     1.5504     2.9298   19 C    0 0-1
   2 B    1     2.3895     4.5156    3 B    0 1-1
   2 B    1     2.3898     4.5160    1 B    0 0 0
   2 B    1     2.5634     4.8440   22 C    0 1-1

   3 B    1     1.3791     2.6061   37 O   -1-1 0
   3 B    1     1.3793     2.6064   39 O    0 0 0
   3 B    1     1.5502     2.9294   31 C   -1-1 0
   3 B    1     2.3895     4.5155    1 B    0-1 1
   3 B    1     2.3895     4.5156    2 B    0-1 1
   3 B    1     2.5629     4.8433   32 C    0 0 0

   4 B    1     1.3795     2.6068   40 O    0 0-1
   4 B    1     1.3795     2.6070   41 O    0-1 0
   4 B    1     1.5513     2.9316   24 C    0 0-1
   4 B    1     2.3905     4.5174    6 B    0 0-1
   4 B    1     2.3905     4.5175    5 B    0-1 0
   4 B    1     2.5648     4.8468   23 C    0-1-1

   5 B    1     1.3795     2.6069   41 O    0 0 0
   5 B    1     1.3797     2.6072   42 O    1 1-1
   5 B    1     1.5516     2.9322   36 C    0 0-1
   5 B    1     2.3905     4.5175    4 B    0 1 0
   5 B    1     2.3911     4.5185    6 B    0 1-1
   5 B    1     2.5651     4.8473   35 C    1 1-1

   6 B    1     1.3795     2.6068   40 O    0 0 0
   6 B    1     1.3796     2.6071   42 O    1 0 0
   6 B    1     1.5516     2.9322   30 C    0 0 1
   6 B    1     2.3905     4.5174    4 B    0 0 1
   6 B    1     2.3911     4.5185    5 B    0-1 1
   6 B    1     2.5651     4.8473   29 C    1 0 1

   7 H    1     1.0913     2.0623   20 C    0 0 0
   7 H    1     2.1472     4.0576   19 C    0 0 0
   7 H    1     2.1680     4.0969   23 C    0 0 0
   7 H    1     2.5202     4.7625   10 H    0 0 0
   7 H    1     2.5676     4.8520   38 O    0 0 1
   7 H    1     2.7321     5.1630    2 B    0 0 1

   8 H    1     1.0914     2.0625   21 C    0 0 0
   8 H    1     2.1493     4.0616   24 C    0 0 0
   8 H    1     2.1666     4.0942   22 C    0 0 0
   8 H    1     2.5198     4.7618    9 H    0 0 0
   8 H    1     2.5720     4.8604   40 O    0 0 0
   8 H    1     2.7362     5.1707    4 B    0 0 1

   9 H    1     1.0914     2.0624   22 C    0 0 0
   9 H    1     2.1471     4.0575   19 C    0-1 0
   9 H    1     2.1680     4.0970   21 C    0 0 0
   9 H    1     2.5198     4.7618    8 H    0 0 0
   9 H    1     2.5665     4.8500   39 O    0 0 0
   9 H    1     2.7315     5.1618    2 B    0-1 1

  10 H    1     1.0915     2.0626   23 C    0 0 0
  10 H    1     2.1490     4.0610   24 C    0 1 0
  10 H    1     2.1669     4.0948   20 C    0 0 0
  10 H    1     2.5202     4.7625    7 H    0 0 0
  10 H    1     2.5712     4.8588   41 O    0 0 1
  10 H    1     2.7351     5.1686    4 B    0 1 1

  11 H    1     1.0913     2.0623   26 C    0 0 0
  11 H    1     2.1469     4.0571   25 C   -1 0 0
  11 H    1     2.1680     4.0968   29 C    0 0 0
  11 H    1     2.5198     4.7617   14 H    0 0 0
  11 H    1     2.5670     4.8510   38 O    0 0 0
  11 H    1     2.7310     5.1609    1 B    0 0 0

  12 H    1     1.0914     2.0625   27 C    0 0 0
  12 H    1     2.1493     4.0617   30 C    0 0 0
  12 H    1     2.1664     4.0939   28 C    0 0 0
  12 H    1     2.5192     4.7606   13 H    0 0 0
  12 H    1     2.5735     4.8632   40 O    0 0-1
  12 H    1     2.7371     5.1723    6 B    0 0-1

  13 H    1     1.0914     2.0624   28 C    0 0 0
  13 H    1     2.1475     4.0581   25 C    0 0 0
  13 H    1     2.1679     4.0967   27 C    0 0 0
  13 H    1     2.5192     4.7606   12 H    0 0 0
  13 H    1     2.5675     4.8519   37 O    0 0-1
  13 H    1     2.7328     5.1643    1 B    1 0 0

  14 H    1     1.0914     2.0625   29 C    0 0 0
  14 H    1     2.1491     4.0612   30 C   -1 0 0
  14 H    1     2.1666     4.0942   26 C    0 0 0
  14 H    1     2.5198     4.7617   11 H    0 0 0
  14 H    1     2.5723     4.8609   42 O    0 0-1
  14 H    1     2.7355     5.1693    6 B   -1 0-1

  15 H    1     1.0914     2.0624   32 C    0 0 0
  15 H    1     2.1475     4.0582   31 C   -1-1 0
  15 H    1     2.1678     4.0966   35 C    0 0 0
  15 H    1     2.5200     4.7621   18 H    0 0 0
  15 H    1     2.5667     4.8503   39 O    0 0 0
  15 H    1     2.7315     5.1618    3 B    0 0 0

  16 H    1     1.0913     2.0623   33 C    0 0 0
  16 H    1     2.1487     4.0605   36 C    0 0 0
  16 H    1     2.1667     4.0945   34 C    0 0 0
  16 H    1     2.5197     4.7616   17 H    0 0 0
  16 H    1     2.5723     4.8610   41 O    0 0 1
  16 H    1     2.7359     5.1701    5 B    0 0 1

  17 H    1     1.0915     2.0626   34 C    0 0 0
  17 H    1     2.1479     4.0589   31 C    0 0 0
  17 H    1     2.1679     4.0968   33 C    0 0 0
  17 H    1     2.5197     4.7616   16 H    0 0 0
  17 H    1     2.5677     4.8522   37 O    0 0 0
  17 H    1     2.7331     5.1648    3 B    1 1 0

  18 H    1     1.0914     2.0624   35 C    0 0 0
  18 H    1     2.1486     4.0602   36 C   -1-1 0
  18 H    1     2.1668     4.0947   32 C    0 0 0
  18 H    1     2.5200     4.7621   15 H    0 0 0
  18 H    1     2.5717     4.8598   42 O    0 0 0
  18 H    1     2.7349     5.1682    5 B   -1-1 1

  19 C    1     1.4020     2.6495   22 C    0 1 0
  19 C    1     1.4021     2.6495   20 C    0 0 0
  19 C    1     1.5504     2.9298    2 B    0 0 1
  19 C    1     2.1471     4.0575    9 H    0 1 0
  19 C    1     2.1472     4.0576    7 H    0 0 0
  19 C    1     2.4246     4.5817   21 C    0 1 0

  20 C    1     1.0913     2.0623    7 H    0 0 0
  20 C    1     1.3914     2.6294   23 C    0 0 0
  20 C    1     1.4021     2.6495   19 C    0 0 0
  20 C    1     2.1669     4.0948   10 H    0 0 0
  20 C    1     2.4177     4.5688   22 C    0 1 0
  20 C    1     2.4250     4.5825   24 C    0 1 0

  21 C    1     1.0914     2.0625    8 H    0 0 0
  21 C    1     1.3914     2.6293   22 C    0 0 0
  21 C    1     1.4026     2.6505   24 C    0 0 0
  21 C    1     2.1680     4.0970    9 H    0 0 0
  21 C    1     2.4182     4.5697   23 C    0-1 0
  21 C    1     2.4246     4.5817   19 C    0-1 0

  22 C    1     1.0914     2.0624    9 H    0 0 0
  22 C    1     1.3914     2.6293   21 C    0 0 0
  22 C    1     1.4020     2.6495   19 C    0-1 0
  22 C    1     2.1666     4.0942    8 H    0 0 0
  22 C    1     2.4177     4.5688   20 C    0-1 0
  22 C    1     2.4250     4.5826   24 C    0 0 0

  23 C    1     1.0915     2.0626   10 H    0 0 0
  23 C    1     1.3914     2.6294   20 C    0 0 0
  23 C    1     1.4025     2.6504   24 C    0 1 0
  23 C    1     2.1680     4.0969    7 H    0 0 0
  23 C    1     2.4182     4.5697   21 C    0 1 0
  23 C    1     2.4246     4.5818   19 C    0 0 0

  24 C    1     1.4025     2.6504   23 C    0-1 0
  24 C    1     1.4026     2.6505   21 C    0 0 0
  24 C    1     1.5513     2.9316    4 B    0 0 1
  24 C    1     2.1490     4.0610   10 H    0-1 0
  24 C    1     2.1493     4.0616    8 H    0 0 0
  24 C    1     2.4250     4.5825   20 C    0-1 0

  25 C    1     1.4020     2.6494   26 C    1 0 0
  25 C    1     1.4021     2.6495   28 C    0 0 0
  25 C    1     1.5503     2.9297    1 B    1 0 0
  25 C    1     2.1469     4.0571   11 H    1 0 0
  25 C    1     2.1475     4.0581   13 H    0 0 0
  25 C    1     2.4246     4.5818   27 C    0 0 0

  26 C    1     1.0913     2.0623   11 H    0 0 0
  26 C    1     1.3914     2.6293   29 C    0 0 0
  26 C    1     1.4020     2.6494   25 C   -1 0 0
  26 C    1     2.1666     4.0942   14 H    0 0 0
  26 C    1     2.4175     4.5684   28 C   -1 0 0
  26 C    1     2.4251     4.5828   30 C   -1 0 0

  27 C    1     1.0914     2.0625   12 H    0 0 0
  27 C    1     1.3915     2.6295   28 C    0 0 0
  27 C    1     1.4026     2.6505   30 C    0 0 0
  27 C    1     2.1679     4.0967   13 H    0 0 0
  27 C    1     2.4179     4.5691   29 C    1 0 0
  27 C    1     2.4246     4.5818   25 C    0 0 0

  28 C    1     1.0914     2.0624   13 H    0 0 0
  28 C    1     1.3915     2.6295   27 C    0 0 0
  28 C    1     1.4021     2.6495   25 C    0 0 0
  28 C    1     2.1664     4.0939   12 H    0 0 0
  28 C    1     2.4175     4.5684   26 C    1 0 0
  28 C    1     2.4253     4.5832   30 C    0 0 0

  29 C    1     1.0914     2.0625   14 H    0 0 0
  29 C    1     1.3914     2.6293   26 C    0 0 0
  29 C    1     1.4025     2.6504   30 C   -1 0 0
  29 C    1     2.1680     4.0968   11 H    0 0 0
  29 C    1     2.4179     4.5691   27 C   -1 0 0
  29 C    1     2.4247     4.5819   25 C   -1 0 0

  30 C    1     1.4025     2.6504   29 C    1 0 0
  30 C    1     1.4026     2.6505   27 C    0 0 0
  30 C    1     1.5516     2.9322    6 B    0 0-1
  30 C    1     2.1491     4.0612   14 H    1 0 0
  30 C    1     2.1493     4.0617   12 H    0 0 0
  30 C    1     2.4251     4.5828   26 C    1 0 0

  31 C    1     1.4021     2.6496   32 C    1 1 0
  31 C    1     1.4021     2.6497   34 C    0 0 0
  31 C    1     1.5502     2.9294    3 B    1 1 0
  31 C    1     2.1475     4.0582   15 H    1 1 0
  31 C    1     2.1479     4.0589   17 H    0 0 0
  31 C    1     2.4244     4.5814   33 C    0 0 0

  32 C    1     1.0914     2.0624   15 H    0 0 0
  32 C    1     1.3914     2.6293   35 C    0 0 0
  32 C    1     1.4021     2.6496   31 C   -1-1 0
  32 C    1     2.1668     4.0947   18 H    0 0 0
  32 C    1     2.4179     4.5692   34 C   -1-1 0
  32 C    1     2.4251     4.5827   36 C   -1-1 0

  33 C    1     1.0913     2.0623   16 H    0 0 0
  33 C    1     1.3914     2.6294   34 C    0 0 0
  33 C    1     1.4025     2.6504   36 C    0 0 0
  33 C    1     2.1679     4.0968   17 H    0 0 0
  33 C    1     2.4178     4.5690   35 C    1 1 0
  33 C    1     2.4244     4.5814   31 C    0 0 0

  34 C    1     1.0915     2.0626   17 H    0 0 0
  34 C    1     1.3914     2.6294   33 C    0 0 0
  34 C    1     1.4021     2.6497   31 C    0 0 0
  34 C    1     2.1667     4.0945   16 H    0 0 0
  34 C    1     2.4179     4.5692   32 C    1 1 0
  34 C    1     2.4253     4.5832   36 C    0 0 0

  35 C    1     1.0914     2.0624   18 H    0 0 0
  35 C    1     1.3914     2.6293   32 C    0 0 0
  35 C    1     1.4025     2.6503   36 C   -1-1 0
  35 C    1     2.1678     4.0966   15 H    0 0 0
  35 C    1     2.4178     4.5690   33 C   -1-1 0
  35 C    1     2.4245     4.5817   31 C   -1-1 0

  36 C    1     1.4025     2.6503   35 C    1 1 0
  36 C    1     1.4025     2.6504   33 C    0 0 0
  36 C    1     1.5516     2.9322    5 B    0 0 1
  36 C    1     2.1486     4.0602   18 H    1 1 0
  36 C    1     2.1487     4.0605   16 H    0 0 0
  36 C    1     2.4251     4.5827   32 C    1 1 0

  37 O    1     1.3791     2.6061    1 B    1 0 1
  37 O    1     1.3791     2.6061    3 B    1 1 0
  37 O    1     2.3880     4.5126   38 O    1 0 1
  37 O    1     2.3882     4.5130   39 O    1 1 0
  37 O    1     2.5383     4.7966   31 C    0 0 0
  37 O    1     2.5384     4.7968   25 C    0 0 1

  38 O    1     1.3793     2.6065    1 B    0 0 0
  38 O    1     1.3793     2.6065    2 B    0 0 0
  38 O    1     2.3880     4.5126   37 O   -1 0-1
  38 O    1     2.3882     4.5131   39 O    0 1-1
  38 O    1     2.5391     4.7981   19 C    0 0-1
  38 O    1     2.5395     4.7990   25 C   -1 0 0

  39 O    1     1.3793     2.6064    3 B    0 0 0
  39 O    1     1.3793     2.6065    2 B    0-1 1
  39 O    1     2.3882     4.5130   37 O   -1-1 0
  39 O    1     2.3882     4.5131   38 O    0-1 1
  39 O    1     2.5390     4.7980   19 C    0-1 0
  39 O    1     2.5391     4.7982   31 C   -1-1 0

  40 O    1     1.3795     2.6068    6 B    0 0 0
  40 O    1     1.3795     2.6068    4 B    0 0 1
  40 O    1     2.3880     4.5126   42 O    1 0 0
  40 O    1     2.3884     4.5134   41 O    0-1 1
  40 O    1     2.5400     4.7998   24 C    0 0 0
  40 O    1     2.5403     4.8005   30 C    0 0 1

  41 O    1     1.3795     2.6069    5 B    0 0 0
  41 O    1     1.3795     2.6070    4 B    0 1 0
  41 O    1     2.3881     4.5128   42 O    1 1-1
  41 O    1     2.3884     4.5134   40 O    0 1-1
  41 O    1     2.5404     4.8006   24 C    0 1-1
  41 O    1     2.5405     4.8008   36 C    0 0-1

  42 O    1     1.3796     2.6071    6 B   -1 0 0
  42 O    1     1.3797     2.6072    5 B   -1-1 1
  42 O    1     2.3880     4.5126   40 O   -1 0 0
  42 O    1     2.3881     4.5128   41 O   -1-1 1
  42 O    1     2.5409     4.8016   36 C   -1-1 0
  42 O    1     2.5410     4.8019   30 C   -1 0 1


 SYMMETRY ALLOWED INTERNAL DEGREE(S) OF FREEDOM: 123
 TTTTTTTTTTTTTTTTTTTTTTTTTTTTTT SYMM        TELAPSE        0.29 TCPU        0.29
 TTTTTTTTTTTTTTTTTTTTTTTTTTTTTT INT_SCREEN  TELAPSE        0.32 TCPU        0.32

 DFT PARAMETERS

     ATOM       ELECTRONS   NET CHARGE   R(ANGSTROM)
   1   5  B       5.0000      0.0000     0.89000000
   7   1  H       1.0000      0.0000     1.11000000
  19   6  C       6.0000      0.0000     0.77000000
  37   8  O       8.0000      0.0000     0.74000000

 SIZE OF GRID=    1298111
 TTTTTTTTTTTTTTTTTTTTTTTTTTTTTT MAKE_GRID2  TELAPSE       10.44 TCPU       10.43
 BECKE WEIGHT FUNCTION
 RADSAFE =     2.00
 TOLERANCES - DENSITY:10**- 6; POTENTIAL:10**- 9; GRID WGT:10**-14

 RADIAL INTEGRATION  - INTERVALS (POINTS,UPPER LIMIT):            1( 75,  4.0*R)

 ANGULAR INTEGRATION - INTERVALS (ACCURACY LEVEL [N. POINTS] UPPER LIMIT):
  1(  4[  86]   0.2)  2(  8[ 194]   0.5)  3( 12[ 350]   0.9)  4( 16[ 974]   3.5)
  5( 12[ 350]9999.0)
 TTTTTTTTTTTTTTTTTTTTTTTTTTTTTT INT_CALC    TELAPSE       10.53 TCPU       10.52
 EEEEEEEEEE INT_CALC TERMINATION  DATE 19 02 2026 TIME 18:59:50.0

 *******************************************************************************
 cof-1_z39_L000_incl                                                             
 CRYSTAL - SCF - TYPE OF CALCULATION :  RESTRICTED CLOSED SHELL
 *******************************************************************************

 CAPPA:IS1  2;IS2  2;IS3  8; K PTS MONK NET  20; SYMMOPS:K SPACE   2;G SPACE   1

 TTTTTTTTTTTTTTTTTTTTTTTTTTTTTT SDIK        TELAPSE       11.22 TCPU       19.05

 AAAAAAAAAAAAAAAAAAAAAAAAAAAAAAAAAAAAAAAAAAAAAAAAAAAAAAAAAAAAAAAAAAAAAAAAAAAAAAA
         ATOMIC WAVEFUNCTION(S)


 NUCLEAR CHARGE  5.0  SYMMETRY SPECIES            S    P
 N. ELECTRONS    5.0  NUMBER OF PRIMITIVE GTOS    8    4
                      NUMBER OF CONTRACTED GTOS   4    2
                      NUMBER OF CLOSED SHELLS     2    0
                      OPEN SHELL OCCUPATION       0    1

  ZNUC  SCFIT    TOTAL HF ENERGY   KINETIC ENERGY   VIRIAL THEOREM ACCURACY
   5.0    11    -2.451164084E+01  2.462155050E+01 -1.995536038E+00  1.5E-06

 NUCLEAR CHARGE  1.0  SYMMETRY SPECIES            S
 N. ELECTRONS    1.0  NUMBER OF PRIMITIVE GTOS    4
                      NUMBER OF CONTRACTED GTOS   2
                      NUMBER OF CLOSED SHELLS     0
                      OPEN SHELL OCCUPATION       1

  ZNUC  SCFIT    TOTAL HF ENERGY   KINETIC ENERGY   VIRIAL THEOREM ACCURACY
   1.0     1    -4.977266687E-01  5.190767460E-01 -1.958869132E+00  0.0E+00

 NUCLEAR CHARGE  6.0  SYMMETRY SPECIES            S    P
 N. ELECTRONS    6.0  NUMBER OF PRIMITIVE GTOS    8    4
                      NUMBER OF CONTRACTED GTOS   4    2
                      NUMBER OF CLOSED SHELLS     2    0
                      OPEN SHELL OCCUPATION       0    2

  ZNUC  SCFIT    TOTAL HF ENERGY   KINETIC ENERGY   VIRIAL THEOREM ACCURACY
   6.0     9    -3.766704647E+01  3.775180683E+01 -1.997754800E+00  1.1E-06

 NUCLEAR CHARGE  8.0  SYMMETRY SPECIES            S    P
 N. ELECTRONS    8.0  NUMBER OF PRIMITIVE GTOS    8    4
                      NUMBER OF CONTRACTED GTOS   4    2
                      NUMBER OF CLOSED SHELLS     2    0
                      OPEN SHELL OCCUPATION       0    4

  ZNUC  SCFIT    TOTAL HF ENERGY   KINETIC ENERGY   VIRIAL THEOREM ACCURACY
   8.0    12    -7.477373220E+01  7.477365593E+01 -2.000001020E+00  3.8E-06

 AAAAAAAAAAAAAAAAAAAAAAAAAAAAAAAAAAAAAAAAAAAAAAAAAAAAAAAAAAAAAAAAAAAAAAAAAAAAAAA

 CHARGE NORMALIZATION FACTOR   1.00000000
 TOTAL ATOMIC CHARGES:
   5.0000000   5.0000000   5.0000000   5.0000000   5.0000000   5.0000000
   1.0000000   1.0000000   1.0000000   1.0000000   1.0000000   1.0000000
   1.0000000   1.0000000   1.0000000   1.0000000   1.0000000   1.0000000
   6.0000000   6.0000000   6.0000000   6.0000000   6.0000000   6.0000000
   6.0000000   6.0000000   6.0000000   6.0000000   6.0000000   6.0000000
   6.0000000   6.0000000   6.0000000   6.0000000   6.0000000   6.0000000
   8.0000000   8.0000000   8.0000000   8.0000000   8.0000000   8.0000000
 TTTTTTTTTTTTTTTTTTTTTTTTTTTTTT MOQGAD      TELAPSE       11.32 TCPU       21.48
 TTTTTTTTTTTTTTTTTTTTTTTTTTTTTT SHELLXN     TELAPSE       19.40 TCPU      275.89
 TTTTTTTTTTTTTTTTTTTTTTTTTTTTTT MONMO3      TELAPSE       19.55 TCPU      280.85
 NUMERICALLY INTEGRATED DENSITY    197.9999364118
 TTTTTTTTTTTTTTTTTTTTTTTTTTTTTT NUMDFT      TELAPSE       20.11 TCPU      298.76
 CYC   0 ETOT(AU) -1.295960873167E+03 DETOT -1.30E+03 tst  0.00E+00 PX  1.00E+00
 TTTTTTTTTTTTTTTTTTTTTTTTTTTTTT DIIS        TELAPSE       20.15 TCPU      299.87
 TTTTTTTTTTTTTTTTTTTTTTTTTTTTTT FDIK        TELAPSE       20.64 TCPU      315.56
 INSULATING STATE
 TOP OF VALENCE BANDS -    BAND     99; K    1; EIG -3.0414420E-01 AU
 BOTTOM OF VIRTUAL BANDS - BAND    100; K   17; EIG -1.7000518E-01 AU
 INDIRECT ENERGY BAND GAP:   3.6501 eV
 BOTTOM OF VIRTUAL BANDS - BAND    100; K    1; EIG -1.4075775E-01 AU
 TTTTTTTTTTTTTTTTTTTTTTTTTTTTTT PDIG        TELAPSE       20.92 TCPU      321.58
 CHARGE NORMALIZATION FACTOR   1.00000000
 TOTAL ATOMIC CHARGES:
   4.1414079   4.1412448   4.1414782   4.1411711   4.1409799   4.1411533
   0.7858381   0.7859504   0.7857958   0.7859120   0.7858169   0.7859799
   0.7858060   0.7859416   0.7857973   0.7859786   0.7857883   0.7859429
   6.0511979   6.2689054   6.2688600   6.2688508   6.2687839   6.0504354
   6.0512509   6.2688818   6.2689488   6.2687956   6.2689653   6.0499867
   6.0515677   6.2686115   6.2691554   6.2685301   6.2691368   6.0499526
   8.6982695   8.6983746   8.6983196   8.6986783   8.6987053   8.6988529
 TTTTTTTTTTTTTTTTTTTTTTTTTTTTTT MOQGAD      TELAPSE       20.97 TCPU      321.63
 TTTTTTTTTTTTTTTTTTTTTTTTTTTTTT SHELLXN     TELAPSE       29.22 TCPU      584.76
 TTTTTTTTTTTTTTTTTTTTTTTTTTTTTT MONMO3      TELAPSE       29.37 TCPU      589.71
 NUMERICALLY INTEGRATED DENSITY    197.9999623161
 TTTTTTTTTTTTTTTTTTTTTTTTTTTTTT NUMDFT      TELAPSE       29.95 TCPU      607.95
 CYC   1 ETOT(AU) -1.288806037550E+03 DETOT  7.15E+00 tst  0.00E+00 PX  1.00E+00
 TTTTTTTTTTTTTTTTTTTTTTTTTTTTTT DIIS        TELAPSE       29.99 TCPU      609.30
 DIIS TEST: 0.11203E+01 AT SCF   CYCLE   1 - MIX   30 %
 TTTTTTTTTTTTTTTTTTTTTTTTTTTTTT FDIK        TELAPSE       30.48 TCPU      624.97
 INSULATING STATE
 TOP OF VALENCE BANDS -    BAND     99; K    1; EIG -2.0585172E-01 AU
 BOTTOM OF VIRTUAL BANDS - BAND    100; K   17; EIG -9.3737994E-02 AU
 INDIRECT ENERGY BAND GAP:   3.0508 eV
 BOTTOM OF VIRTUAL BANDS - BAND    100; K    1; EIG -5.7502542E-02 AU
 TTTTTTTTTTTTTTTTTTTTTTTTTTTTTT PDIG        TELAPSE       30.76 TCPU      630.99
 CHARGE NORMALIZATION FACTOR   1.00000000
 TOTAL ATOMIC CHARGES:
   4.7059486   4.7058743   4.7058738   4.7063534   4.7063469   4.7064401
   0.9206388   0.9207109   0.9206073   0.9206470   0.9206388   0.9207131
   0.9206174   0.9206914   0.9205950   0.9207219   0.9205770   0.9207122
   5.8639637   6.1228223   6.1233835   6.1226925   6.1233738   5.8668025
   5.8637943   6.1225251   6.1233828   6.1227783   6.1232459   5.8672632
   5.8639150   6.1227589   6.1232157   6.1230314   6.1231363   5.8670032
   8.3408777   8.3412614   8.3412330   8.3407324   8.3409308   8.3411684
 TTTTTTTTTTTTTTTTTTTTTTTTTTTTTT MOQGAD      TELAPSE       30.81 TCPU      631.04
 TTTTTTTTTTTTTTTTTTTTTTTTTTTTTT SHELLXN     TELAPSE       39.06 TCPU      894.23
 TTTTTTTTTTTTTTTTTTTTTTTTTTTTTT MONMO3      TELAPSE       39.21 TCPU      899.17
 NUMERICALLY INTEGRATED DENSITY    197.9999618403
 TTTTTTTTTTTTTTTTTTTTTTTTTTTTTT NUMDFT      TELAPSE       39.79 TCPU      917.39
 CYC   2 ETOT(AU) -1.289000667143E+03 DETOT -1.95E-01 tst  4.84E-03 PX  1.57E-01
 TTTTTTTTTTTTTTTTTTTTTTTTTTTTTT DIIS        TELAPSE       39.83 TCPU      918.86
 DIIS TEST: 0.48887E+00 AT SCF   CYCLE   2 - DIIS ACTIVE - HISTORY:     2 CYCLES
 TTTTTTTTTTTTTTTTTTTTTTTTTTTTTT FDIK        TELAPSE       40.32 TCPU      934.61
 INSULATING STATE
 TOP OF VALENCE BANDS -    BAND     99; K    1; EIG -2.2246532E-01 AU
 BOTTOM OF VIRTUAL BANDS - BAND    100; K   17; EIG -8.9227603E-02 AU
 INDIRECT ENERGY BAND GAP:   3.6256 eV
 BOTTOM OF VIRTUAL BANDS - BAND    100; K    1; EIG -5.1105447E-02 AU
 TTTTTTTTTTTTTTTTTTTTTTTTTTTTTT PDIG        TELAPSE       40.61 TCPU      940.63
 CHARGE NORMALIZATION FACTOR   1.00000000
 TOTAL ATOMIC CHARGES:
   4.4897132   4.4895707   4.4896913   4.4890395   4.4888633   4.4889565
   0.8924881   0.8926201   0.8924457   0.8925642   0.8924344   0.8926624
   0.8924746   0.8925815   0.8924458   0.8926225   0.8924871   0.8925714
   5.8931650   6.1620394   6.1612296   6.1619614   6.1611447   5.8914584
   5.8933596   6.1620220   6.1611866   6.1620518   6.1611380   5.8911495
   5.8935096   6.1618800   6.1612973   6.1619332   6.1612457   5.8911158
   8.5099886   8.5101524   8.5101287   8.5101109   8.5101974   8.5103020
 TTTTTTTTTTTTTTTTTTTTTTTTTTTTTT MOQGAD      TELAPSE       40.66 TCPU      940.68
 TTTTTTTTTTTTTTTTTTTTTTTTTTTTTT SHELLXN     TELAPSE       48.91 TCPU     1203.88
 TTTTTTTTTTTTTTTTTTTTTTTTTTTTTT MONMO3      TELAPSE       49.06 TCPU     1208.83
 NUMERICALLY INTEGRATED DENSITY    197.9999608716
 TTTTTTTTTTTTTTTTTTTTTTTTTTTTTT NUMDFT      TELAPSE       49.63 TCPU     1227.07
 CYC   3 ETOT(AU) -1.289103446261E+03 DETOT -1.03E-01 tst  7.45E-04 PX  5.90E-02
 TTTTTTTTTTTTTTTTTTTTTTTTTTTTTT DIIS        TELAPSE       49.69 TCPU     1228.81
 DIIS TEST: 0.10098E-01 AT SCF   CYCLE   3 - DIIS ACTIVE - HISTORY:     3 CYCLES
 TTTTTTTTTTTTTTTTTTTTTTTTTTTTTT FDIK        TELAPSE       50.18 TCPU     1244.60
 INSULATING STATE
 TOP OF VALENCE BANDS -    BAND     99; K    1; EIG -2.3199434E-01 AU
 BOTTOM OF VIRTUAL BANDS - BAND    100; K   17; EIG -9.9006910E-02 AU
 INDIRECT ENERGY BAND GAP:   3.6188 eV
 BOTTOM OF VIRTUAL BANDS - BAND    100; K    1; EIG -6.2046050E-02 AU
 TTTTTTTTTTTTTTTTTTTTTTTTTTTTTT PDIG        TELAPSE       50.46 TCPU     1250.61
 CHARGE NORMALIZATION FACTOR   1.00000000
 TOTAL ATOMIC CHARGES:
   4.4966813   4.4965934   4.4966838   4.4972476   4.4971035   4.4972327
   0.8763894   0.8764385   0.8763540   0.8763712   0.8763861   0.8764396
   0.8763926   0.8763874   0.8763624   0.8764285   0.8763724   0.8763998
   5.9442009   6.1593509   6.1608833   6.1592490   6.1608912   5.9491205
   5.9439324   6.1591060   6.1609982   6.1591470   6.1609872   5.9494277
   5.9441887   6.1591476   6.1609708   6.1592034   6.1609770   5.9491943
   8.4831947   8.4835040   8.4834654   8.4833601   8.4834937   8.4837420
 TTTTTTTTTTTTTTTTTTTTTTTTTTTTTT MOQGAD      TELAPSE       50.51 TCPU     1250.66
 TTTTTTTTTTTTTTTTTTTTTTTTTTTTTT SHELLXN     TELAPSE       58.76 TCPU     1513.81
 TTTTTTTTTTTTTTTTTTTTTTTTTTTTTT MONMO3      TELAPSE       58.91 TCPU     1518.76
 NUMERICALLY INTEGRATED DENSITY    197.9999614969
 TTTTTTTTTTTTTTTTTTTTTTTTTTTTTT NUMDFT      TELAPSE       59.48 TCPU     1536.97
 CYC   4 ETOT(AU) -1.289105493801E+03 DETOT -2.05E-03 tst  2.94E-05 PX  1.25E-02
 TTTTTTTTTTTTTTTTTTTTTTTTTTTTTT DIIS        TELAPSE       59.54 TCPU     1538.78
 DIIS TEST: 0.37071E-02 AT SCF   CYCLE   4 - DIIS ACTIVE - HISTORY:     4 CYCLES
 TTTTTTTTTTTTTTTTTTTTTTTTTTTTTT FDIK        TELAPSE       60.03 TCPU     1554.52
 INSULATING STATE
 TOP OF VALENCE BANDS -    BAND     99; K    1; EIG -2.3047276E-01 AU
 BOTTOM OF VIRTUAL BANDS - BAND    100; K   17; EIG -9.7804651E-02 AU
 INDIRECT ENERGY BAND GAP:   3.6101 eV
 BOTTOM OF VIRTUAL BANDS - BAND    100; K    1; EIG -6.0548653E-02 AU
 TTTTTTTTTTTTTTTTTTTTTTTTTTTTTT PDIG        TELAPSE       70.40 TCPU     1560.54
 CHARGE NORMALIZATION FACTOR   1.00000000
 TOTAL ATOMIC CHARGES:
   4.4984264   4.4983019   4.4984102   4.4977820   4.4976277   4.4977318
   0.8795677   0.8797650   0.8795231   0.8797106   0.8795247   0.8798022
   0.8795403   0.8797418   0.8795201   0.8797753   0.8795396   0.8797383
   5.9229682   6.1651328   6.1635883   6.1650546   6.1635307   5.9193886
   5.9231539   6.1650662   6.1635494   6.1651782   6.1634476   5.9191777
   5.9232718   6.1649904   6.1636182   6.1651313   6.1635206   5.9191190
   8.4927592   8.4929531   8.4929158   8.4927039   8.4928171   8.4929350
 TTTTTTTTTTTTTTTTTTTTTTTTTTTTTT MOQGAD      TELAPSE       70.44 TCPU     1560.59
 TTTTTTTTTTTTTTTTTTTTTTTTTTTTTT SHELLXN     TELAPSE       78.70 TCPU     1823.82
 TTTTTTTTTTTTTTTTTTTTTTTTTTTTTT MONMO3      TELAPSE       78.85 TCPU     1828.77
 NUMERICALLY INTEGRATED DENSITY    197.9999616696
 TTTTTTTTTTTTTTTTTTTTTTTTTTTTTT NUMDFT      TELAPSE       79.42 TCPU     1847.04
 CYC   5 ETOT(AU) -1.289106312352E+03 DETOT -8.19E-04 tst  6.89E-06 PX  7.52E-03
 TTTTTTTTTTTTTTTTTTTTTTTTTTTTTT DIIS        TELAPSE       79.49 TCPU     1849.12
 DIIS TEST: 0.15021E-03 AT SCF   CYCLE   5 - DIIS ACTIVE - HISTORY:     5 CYCLES
 TTTTTTTTTTTTTTTTTTTTTTTTTTTTTT FDIK        TELAPSE       79.98 TCPU     1864.81
 INSULATING STATE
 TOP OF VALENCE BANDS -    BAND     99; K    1; EIG -2.3021786E-01 AU
 BOTTOM OF VIRTUAL BANDS - BAND    100; K   17; EIG -9.7250436E-02 AU
 INDIRECT ENERGY BAND GAP:   3.6182 eV
 BOTTOM OF VIRTUAL BANDS - BAND    100; K    1; EIG -5.9985559E-02 AU
 TTTTTTTTTTTTTTTTTTTTTTTTTTTTTT PDIG        TELAPSE       80.26 TCPU     1870.83
 CHARGE NORMALIZATION FACTOR   1.00000000
 TOTAL ATOMIC CHARGES:
   4.4972133   4.4971136   4.4972076   4.4980033   4.4978585   4.4979771
   0.8806792   0.8806506   0.8806428   0.8805880   0.8806622   0.8806621
   0.8806831   0.8805979   0.8806491   0.8806448   0.8806729   0.8806047
   5.9187955   6.1618805   6.1645536   6.1617859   6.1645175   5.9265931
   5.9185793   6.1616987   6.1646294   6.1616655   6.1646695   5.9267894
   5.9188366   6.1616920   6.1646305   6.1616654   6.1646941   5.9265910
   8.4917616   8.4920480   8.4920228   8.4921144   8.4922212   8.4924539
 TTTTTTTTTTTTTTTTTTTTTTTTTTTTTT MOQGAD      TELAPSE       80.31 TCPU     1870.88
 TTTTTTTTTTTTTTTTTTTTTTTTTTTTTT SHELLXN     TELAPSE       88.56 TCPU     2134.04
 TTTTTTTTTTTTTTTTTTTTTTTTTTTTTT MONMO3      TELAPSE       88.71 TCPU     2138.99
 NUMERICALLY INTEGRATED DENSITY    197.9999616072
 TTTTTTTTTTTTTTTTTTTTTTTTTTTTTT NUMDFT      TELAPSE       89.29 TCPU     2157.26
 CYC   6 ETOT(AU) -1.289106301696E+03 DETOT  1.07E-05 tst  2.18E-06 PX  1.75E-03
 TTTTTTTTTTTTTTTTTTTTTTTTTTTTTT DIIS        TELAPSE       89.35 TCPU     2159.36
 DIIS TEST: 0.17874E-03 AT SCF   CYCLE   6 - DIIS ACTIVE - HISTORY:     6 CYCLES
 TTTTTTTTTTTTTTTTTTTTTTTTTTTTTT FDIK        TELAPSE       89.85 TCPU     2175.34
 INSULATING STATE
 TOP OF VALENCE BANDS -    BAND     99; K    1; EIG -2.3022286E-01 AU
 BOTTOM OF VIRTUAL BANDS - BAND    100; K   17; EIG -9.7273577E-02 AU
 INDIRECT ENERGY BAND GAP:   3.6177 eV
 BOTTOM OF VIRTUAL BANDS - BAND    100; K    1; EIG -6.0008632E-02 AU
 TTTTTTTTTTTTTTTTTTTTTTTTTTTTTT PDIG        TELAPSE       90.13 TCPU     2181.35
 CHARGE NORMALIZATION FACTOR   1.00000000
 TOTAL ATOMIC CHARGES:
   4.4978260   4.4977135   4.4978154   4.4976223   4.4974712   4.4975837
   0.8805948   0.8807266   0.8805554   0.8806667   0.8805676   0.8807483
   0.8805837   0.8806883   0.8805585   0.8807261   0.8805773   0.8806905
   5.9230853   6.1631873   6.1629158   6.1630940   6.1628796   5.9230288
   5.9230706   6.1630468   6.1629488   6.1631140   6.1628934   5.9230240
   5.9232618   6.1630056   6.1629856   6.1630954   6.1629377   5.9228904
   8.4917966   8.4920325   8.4919980   8.4918638   8.4919788   8.4921494
 TTTTTTTTTTTTTTTTTTTTTTTTTTTTTT MOQGAD      TELAPSE       90.18 TCPU     2181.40
 TTTTTTTTTTTTTTTTTTTTTTTTTTTTTT SHELLXN     TELAPSE       98.43 TCPU     2444.47
 TTTTTTTTTTTTTTTTTTTTTTTTTTTTTT MONMO3      TELAPSE       98.58 TCPU     2449.43
 NUMERICALLY INTEGRATED DENSITY    197.9999616000
 TTTTTTTTTTTTTTTTTTTTTTTTTTTTTT NUMDFT      TELAPSE       99.15 TCPU     2467.64
 CYC   7 ETOT(AU) -1.289106349034E+03 DETOT -4.73E-05 tst  1.02E-06 PX  1.09E-03
 TTTTTTTTTTTTTTTTTTTTTTTTTTTTTT DIIS        TELAPSE       99.23 TCPU     2470.08
 DIIS TEST: 0.26282E-05 AT SCF   CYCLE   7 - DIIS ACTIVE - HISTORY:     7 CYCLES
 TTTTTTTTTTTTTTTTTTTTTTTTTTTTTT FDIK        TELAPSE       99.72 TCPU     2485.82
 INSULATING STATE
 TOP OF VALENCE BANDS -    BAND     99; K    1; EIG -2.3024299E-01 AU
 BOTTOM OF VIRTUAL BANDS - BAND    100; K   17; EIG -9.7349759E-02 AU
 INDIRECT ENERGY BAND GAP:   3.6162 eV
 BOTTOM OF VIRTUAL BANDS - BAND    100; K    1; EIG -6.0080570E-02 AU
 TTTTTTTTTTTTTTTTTTTTTTTTTTTTTT PDIG        TELAPSE      100.00 TCPU     2491.84
 CHARGE NORMALIZATION FACTOR   1.00000000
 TOTAL ATOMIC CHARGES:
   4.4979798   4.4978632   4.4979670   4.4978686   4.4977164   4.4978258
   0.8805175   0.8806281   0.8804759   0.8805706   0.8804835   0.8806565
   0.8805013   0.8805946   0.8804761   0.8806327   0.8804973   0.8805946
   5.9225284   6.1630787   6.1631116   6.1629956   6.1630637   5.9232212
   5.9225778   6.1629723   6.1631114   6.1630383   6.1630555   5.9231521
   5.9227427   6.1629218   6.1631566   6.1630091   6.1631110   5.9230444
   8.4918636   8.4920909   8.4920565   8.4919543   8.4920676   8.4922256
 TTTTTTTTTTTTTTTTTTTTTTTTTTTTTT MOQGAD      TELAPSE      100.05 TCPU     2491.89
 TTTTTTTTTTTTTTTTTTTTTTTTTTTTTT SHELLXN     TELAPSE      108.30 TCPU     2755.06
 TTTTTTTTTTTTTTTTTTTTTTTTTTTTTT MONMO3      TELAPSE      108.45 TCPU     2760.01
 NUMERICALLY INTEGRATED DENSITY    197.9999616035
 TTTTTTTTTTTTTTTTTTTTTTTTTTTTTT NUMDFT      TELAPSE      109.03 TCPU     2778.25
 CYC   8 ETOT(AU) -1.289106349562E+03 DETOT -5.28E-07 tst  7.97E-09 PX  1.43E-04
 TTTTTTTTTTTTTTTTTTTTTTTTTTTTTT DIIS        TELAPSE      109.10 TCPU     2780.77
 DIIS TEST: 0.37869E-07 AT SCF   CYCLE   8 - DIIS ACTIVE - HISTORY:     8 CYCLES
 TTTTTTTTTTTTTTTTTTTTTTTTTTTTTT FDIK        TELAPSE      109.60 TCPU     2796.56
 INSULATING STATE
 TOP OF VALENCE BANDS -    BAND     99; K    1; EIG -2.3025277E-01 AU
 BOTTOM OF VIRTUAL BANDS - BAND    100; K   17; EIG -9.7339672E-02 AU
 INDIRECT ENERGY BAND GAP:   3.6168 eV
 BOTTOM OF VIRTUAL BANDS - BAND    100; K    1; EIG -6.0070571E-02 AU
 TTTTTTTTTTTTTTTTTTTTTTTTTTTTTT PDIG        TELAPSE      109.88 TCPU     2802.58
 CHARGE NORMALIZATION FACTOR   1.00000000
 TOTAL ATOMIC CHARGES:
   4.4979400   4.4978314   4.4979308   4.4978243   4.4976756   4.4977892
   0.8804996   0.8806208   0.8804609   0.8805603   0.8804748   0.8806401
   0.8804916   0.8805793   0.8804647   0.8806190   0.8804843   0.8805826
   5.9225777   6.1631647   6.1631254   6.1630708   6.1630893   5.9231373
   5.9225186   6.1630142   6.1631684   6.1630600   6.1631343   5.9231767
   5.9227235   6.1629810   6.1631969   6.1630463   6.1631736   5.9230295
   8.4918319   8.4920780   8.4920461   8.4919260   8.4920384   8.4922219
 TTTTTTTTTTTTTTTTTTTTTTTTTTTTTT MOQGAD      TELAPSE      109.93 TCPU     2802.63
 TTTTTTTTTTTTTTTTTTTTTTTTTTTTTT SHELLXN     TELAPSE      118.18 TCPU     3065.80
 +++ ENERGIES IN A.U. +++
 ::: EXT EL-POLE                                  -1.2677079163061E+03
 ::: EXT EL-SPHEROPOLE                             1.4668453624148E+01
 ::: BIELET ZONE E-E                               2.2016684710214E+03
 ::: TOTAL E-E                                     9.4862900833947E+02
 ::: TOTAL E-N + N-E                              -3.7257331747152E+03
 ::: TOTAL N-N                                     3.4177720770408E+02
 ::: KINETIC ENERGY                                1.2799338435882E+03
 ::: PSEUDO TOTAL   ENERGY                        -1.1553931150835E+03
 ::: VIRIAL COEFFICIENT                            1.0511392230358E+00
 TTTTTTTTTTTTTTTTTTTTTTTTTTTTTT MONMO3      TELAPSE      118.33 TCPU     3070.75
 NUMERICALLY INTEGRATED DENSITY    197.9999616021
 EXCHANGE ENERGY: -0.126021018053E+03  CORRELATION ENERGY: -0.769221648899E+01
 TTTTTTTTTTTTTTTTTTTTTTTTTTTTTT NUMDFT      TELAPSE      118.90 TCPU     3088.99
 CYC   9 ETOT(AU) -1.289106349625E+03 DETOT -6.33E-08 tst  3.10E-10 PX  1.43E-04

 == SCF ENDED - CONVERGENCE ON ENERGY      E(AU) -1.2891063496253E+03 CYCLES   9


 ENERGY EXPRESSION=HARTREE+FOCK EXCH*0.00000+(HSESOL     EXCH)*1.00000+PBESOL     CORR


 TOTAL ENERGY(DFT)(AU)(  9) -1.2891063496253E+03 DE-6.3E-08 tester 3.1E-10
 TTTTTTTTTTTTTTTTTTTTTTTTTTTTTT EDFT        TELAPSE      118.90 TCPU     3089.00
 
 INFORMATION **** DFTD3 ENERGY **** CALCULATE DFTD3 ENERGY

           DFT-D V3(BJ)
 DF                                         hsesol3c  
 parameters
 s6       :    1.0000
 s8       :    0.0000
 a1       :    0.5196
 a2       :    4.9385
 k1 k3    :   16.0000   -4.0000
 Cutoff   :   50.2022
 CN-Cutoff:   21.1671
 ABC-Cutoff:   21.1671
 
 Edisp /kcal,au:   -27.0211 -0.04306082

 E6    /kcal :   -28.8670
 E8    /kcal :     0.0000
 E6(ABC) "   :   1.845877
 
 INFORMATION **** DFTD3 ENERGY **** NORMAL TERMINATION OF DFTD3 MODULE

 GCP ENERGY CALCULATION
  level        hsesol3c            basis:hsesol3c
  Nbf            474
  Atoms           42

  Parameters: 
  sigma     1.0000
  eta       1.4281
  alpha     0.2936
  beta      1.9467

  dmp_scal      4.0000
  dmp_exp       6.0000
 cutoffs: 
   distance [bohr] 60.0
   noise    [a.u.] 2.2E-16
 SR-damping   T
 ** gCP correction **
  Egcp:        0.0830476282 / (a.u.) ||      52.1132 / (kcal/mol)
 INFORMATION **** GCP **** NORMAL TERMINATION OF GCP MODULE

 *******************************************************************************

 DFT-D3-GCP DISPERSION AND COUNTERPOISE CORRECTION

 D3 DISPERSION ENERGY (AU)      -4.3060822551507E-02
 GCP ENERGY (AU)                 8.3047628230807E-02
 TOTAL ENERGY + DISP + GCP (AU) -1.2890663628196E+03

 *******************************************************************************

 EIGENVECTORS IN FORTRAN UNIT 10
 TTTTTTTTTTTTTTTTTTTTTTTTTTTTTT END         TELAPSE      120.05 TCPU     3095.99
 EEEEEEEEEE TERMINATION  DATE 19 02 2026 TIME 19:01:39.5
