 Default number of threads is:           32

         
 *******************************************************************************
 *                                                                             *
 *                               CRYSTAL23                                     *
 *                      public : 1.0.1 - October 2022                          *
 *                       HTTP://WWW.CRYSTAL.UNITO.IT                           *
 *                                                                             *
 *                              MAIN AUTHORS                                   *
 *                                                                             *
 *  R. DOVESI(1,11), V.R. SAUNDERS(2), C. ROETTI(1,11), R. ORLANDO(1,11),      *
 *  C.M. ZICOVICH-WILSON(1,3), F. PASCALE(4), B. CIVALLERI(1,11),              *
 *  K. DOLL(5), N.M. HARRISON(6), I.J. BUSH(7), Ph. D'ARCO(8),                 *
 *  M. LLUNELL(9), M. CAUSA'(10), Y. NOEL(8), L. MASCHIO(1,11), A. ERBA(1,11)  *
 *  M. RE'RAT(14), S. CASASSA(1,11), B.G. SEARLE(2), J.K. DESMARAIS(1)         *
 *                                                                             *
 *        CONTRIBUTIONS TO THE CODE HAVE ALSO BEEN GIVEN BY                    *
 *                                                                             *
 *  M. FERRABONE(1,11), M. DE LA PIERRE(1,11), M. FERRERO(1,11),               *
 *  J. BAIMA(1,11), E. ALBANESE(1,11), M.F. PEINTINGER(12), R. BAST(13),       *
 *  B. KIRTMAN(15), V. LACIVITA(1,11), R. DEMICHELIS(1,16)                     *
 *  G. BRANDEBURG(17), S. SALUSTRO(1,11), G. SANSONE(1,11)                     *
 *  M.T. RUGGIERO(18), L.E. DAGA(1), L. DONA'(1), A. COSSARD(1)                *
 *                                                                             *
 * (1) THEORETICAL CHEMISTRY GROUP - UNIVERSITA' DI TORINO - TORINO (ITALY)    *
 * (2) SCIENTIFIC COMPUTING DEPARTMENT - STFC DARESBURY (UK)                   *
 * (3) UNIVERSIDAD AUTONOMA DEL ESTADO DE MORELOS - CUERNAVACA (MEXICO)        *
 * (4) UNIVERSITE' DE LORRAINE - NANCY (FRANCE)                                *
 * (5) UNIVERSITAET STUTTGART- STUTTGART (GERMANY)                             *
 * (6) IMPERIAL COLLEGE - LONDON (UK)                                          *
 * (7) SCIENTIFIC COMPUTING DEPARTMENT - STFC RAL (UK)                         *
 * (8) UPMC - SORBONNE UNIVERSITES - PARIS (FRANCE)                            *
 * (9) UNIVERSIDAD DE BARCELONA - BARCELONA (SPAIN)                            *
 *(10) UNIVERSITA' DI NAPOLI "FEDERICO II" - NAPOLI (ITALY)                    *
 *(11) NIS - NANOSTRUCTURED INTERFACES AND SURFACES - TORINO (ITALY)           *
 *(12) MPI FUER CHEMISCHE ENERGIEKONVERSION - MUELHEIM AN DER RUHR (GERMANY)   *
 *(13) UNIVERSITY OF TROMSO - TROMSO (NORWAY)                                  *
 *(14) UNIVERSITE' DE PAU ET DES PAYS DE L'ADOUR - PAU (FRANCE)                *
 *(15) UNIVERSITY OF CALIFORNIA SANTA BARBARA - SANTA BARBARA (USA)            *
 *(16) CURTIN UNIVERSITY - PERTH (AUSTRALIA)                                   *
 *(17) UNIVERSITY COLLEGE LONDON - LONDON (UK)                                 *
 *(18) UNIVERSITY OF VERMONT - BURLINGTON (USA)                                *
 *                                                                             *
 *******************************************************************************
 EEEEEEEEEE STARTING  DATE 02 12 2025 TIME 08:06:28.8
 COF-5_z44_inc_L075                                                              

 CRYSTAL CALCULATION
 (INPUT ACCORDING TO THE INTERNATIONAL TABLES FOR X-RAY CRYSTALLOGRAPHY)
 CRYSTAL FAMILY                       :  TRICLINIC   
 CRYSTAL CLASS  (GROTH - 1921)        :  TRICLINIC PEDIAL                     

 SPACE GROUP (NONCENTROSYMMETRIC)     :  P 1             

 LATTICE PARAMETERS  (ANGSTROMS AND DEGREES) - CONVENTIONAL CELL
        A           B           C        ALPHA        BETA       GAMMA
    15.02070    15.04439     8.69540    41.70852    89.99964   120.05310


 NUMBER OF IRREDUCIBLE ATOMS IN THE CONVENTIONAL CELL:   42

 INPUT COORDINATES

 ATOM AT. N.              COORDINATES
   1   5     4.709901500000E-01 -6.025932000000E-02  5.006194000000E-01
   2   5     6.297666700000E-01  9.876164000000E-02  5.006293900000E-01
   3   5     4.709480400000E-01  9.927258000000E-02  4.991995200000E-01
   4   5     8.277852000000E-02  3.232630900000E-01  5.054140800000E-01
   5   5     2.401849300000E-01  3.204333200000E-01  5.094577000000E-01
   6   5     2.421808000000E-01  4.832075400000E-01  5.034924600000E-01
   7   1     7.586690000000E-01  1.896905000000E-02  5.045175400000E-01
   8   1    -4.353492000000E-02  4.075354900000E-01  4.929279900000E-01
   9   1     7.621227500000E-01  3.103156600000E-01  4.927897100000E-01
  10   1    -4.676699000000E-02  1.164312800000E-01  5.040861400000E-01
  11   1     4.487372100000E-01  6.128277400000E-01  5.042082000000E-01
  12   1     2.653848400000E-01 -1.862085100000E-01  4.945601100000E-01
  13   1     1.666670300000E-01  6.193270100000E-01  4.958668600000E-01
  14   1     5.473764700000E-01 -1.924102700000E-01  5.023470000000E-01
  15   1     4.501963200000E-01  4.038750400000E-01  4.977642100000E-01
  16   1     2.604932700000E-01  1.749149000000E-02  5.060467800000E-01
  17   1     1.632346200000E-01  1.136231000000E-01  5.056819300000E-01
  18   1     5.477180800000E-01  3.074782100000E-01  4.986976000000E-01
  19   6     7.491313900000E-01  1.583347100000E-01  5.003794200000E-01
  20   6     8.031454200000E-01  1.041411100000E-01  5.021453900000E-01
  21   6    -8.799075000000E-02  3.221591900000E-01  4.957529300000E-01
  22   6     8.049333700000E-01  2.684401000000E-01  4.960900600000E-01
  23   6    -8.963799000000E-02  1.580767800000E-01  5.015017200000E-01
  24   6    -3.450599000000E-02  2.670062600000E-01  4.993186100000E-01
  25   6     3.016152600000E-01  6.035233900000E-01  5.018607800000E-01
  26   6     4.093758000000E-01  6.577807200000E-01  5.022509300000E-01
  27   6     3.044405300000E-01 -2.316354600000E-01  4.969749200000E-01
  28   6     2.499990700000E-01  6.607650600000E-01  4.980935200000E-01
  29   6     4.638743300000E-01 -2.345249300000E-01  5.008136200000E-01
  30   6     4.116640600000E-01 -1.785962500000E-01  4.991894800000E-01
  31   6     3.017648300000E-01  2.655642900000E-01  4.999606400000E-01
  32   6     4.097733300000E-01  3.191368900000E-01  4.994092000000E-01
  33   6     3.016290300000E-01  1.025022800000E-01  5.039324200000E-01
  34   6     2.479031900000E-01  1.558980000000E-01  5.033245200000E-01
  35   6     4.633159100000E-01  2.655319400000E-01  5.003474900000E-01
  36   6     4.102025600000E-01  1.570934300000E-01  5.015892600000E-01
  37   8     4.181710000000E-01 -6.850620000000E-03  4.995893600000E-01
  38   8     5.764667000000E-01 -8.275430000000E-03  5.025791900000E-01
  39   8     5.773807600000E-01  1.530713400000E-01  4.980597900000E-01
  40   8     1.363937600000E-01  4.306730500000E-01  5.027258600000E-01
  41   8     1.339909600000E-01  2.672991100000E-01  5.102130900000E-01
  42   8     2.944882400000E-01  4.289598900000E-01  5.051974200000E-01

 *******************************************************************************

 << INFORMATION >>: FROM NOW ON, ALL COORDINATES REFER TO THE PRIMITIVE CELL

 *******************************************************************************

 LATTICE PARAMETERS  (ANGSTROMS AND DEGREES) - PRIMITIVE CELL
       A          B          C        ALPHA      BETA     GAMMA        VOLUME
   15.02070   15.04439    8.69540    41.70852  89.99964 120.05310    860.714984

 COORDINATES OF THE EQUIVALENT ATOMS (FRACTIONAL UNITS)

 N. ATOM EQUIV AT. N.          X                  Y                  Z

   1   1   1    5 B     4.70990150000E-01 -6.02593200000E-02 -4.99380600000E-01

   2   2   1    5 B    -3.70233330000E-01  9.87616400000E-02 -4.99370610000E-01

   3   3   1    5 B     4.70948040000E-01  9.92725800000E-02  4.99199520000E-01

   4   4   1    5 B     8.27785200000E-02  3.23263090000E-01 -4.94585920000E-01

   5   5   1    5 B     2.40184930000E-01  3.20433320000E-01 -4.90542300000E-01

   6   6   1    5 B     2.42180800000E-01  4.83207540000E-01 -4.96507540000E-01

   7   7   1    1 H    -2.41331000000E-01  1.89690500000E-02 -4.95482460000E-01

   8   8   1    1 H    -4.35349200000E-02  4.07535490000E-01  4.92927990000E-01

   9   9   1    1 H    -2.37877250000E-01  3.10315660000E-01  4.92789710000E-01

  10  10   1    1 H    -4.67669900000E-02  1.16431280000E-01 -4.95913860000E-01

  11  11   1    1 H     4.48737210000E-01 -3.87172260000E-01 -4.95791800000E-01

  12  12   1    1 H     2.65384840000E-01 -1.86208510000E-01  4.94560110000E-01

  13  13   1    1 H     1.66667030000E-01 -3.80672990000E-01  4.95866860000E-01

  14  14   1    1 H    -4.52623530000E-01 -1.92410270000E-01 -4.97653000000E-01

  15  15   1    1 H     4.50196320000E-01  4.03875040000E-01  4.97764210000E-01

  16  16   1    1 H     2.60493270000E-01  1.74914900000E-02 -4.93953220000E-01

  17  17   1    1 H     1.63234620000E-01  1.13623100000E-01 -4.94318070000E-01

  18  18   1    1 H    -4.52281920000E-01  3.07478210000E-01  4.98697600000E-01

  19  19   1    6 C    -2.50868610000E-01  1.58334710000E-01 -4.99620580000E-01

  20  20   1    6 C    -1.96854580000E-01  1.04141110000E-01 -4.97854610000E-01

  21  21   1    6 C    -8.79907500000E-02  3.22159190000E-01  4.95752930000E-01

  22  22   1    6 C    -1.95066630000E-01  2.68440100000E-01  4.96090060000E-01

  23  23   1    6 C    -8.96379900000E-02  1.58076780000E-01 -4.98498280000E-01

  24  24   1    6 C    -3.45059900000E-02  2.67006260000E-01  4.99318610000E-01

  25  25   1    6 C     3.01615260000E-01 -3.96476610000E-01 -4.98139220000E-01

  26  26   1    6 C     4.09375800000E-01 -3.42219280000E-01 -4.97749070000E-01

  27  27   1    6 C     3.04440530000E-01 -2.31635460000E-01  4.96974920000E-01

  28  28   1    6 C     2.49999070000E-01 -3.39234940000E-01  4.98093520000E-01

  29  29   1    6 C     4.63874330000E-01 -2.34524930000E-01 -4.99186380000E-01

  30  30   1    6 C     4.11664060000E-01 -1.78596250000E-01  4.99189480000E-01

  31  31   1    6 C     3.01764830000E-01  2.65564290000E-01  4.99960640000E-01

  32  32   1    6 C     4.09773330000E-01  3.19136890000E-01  4.99409200000E-01

  33  33   1    6 C     3.01629030000E-01  1.02502280000E-01 -4.96067580000E-01

  34  34   1    6 C     2.47903190000E-01  1.55898000000E-01 -4.96675480000E-01

  35  35   1    6 C     4.63315910000E-01  2.65531940000E-01 -4.99652510000E-01

  36  36   1    6 C     4.10202560000E-01  1.57093430000E-01 -4.98410740000E-01

  37  37   1    8 O     4.18171000000E-01 -6.85062000000E-03  4.99589360000E-01

  38  38   1    8 O    -4.23533300000E-01 -8.27543000000E-03 -4.97420810000E-01

  39  39   1    8 O    -4.22619240000E-01  1.53071340000E-01  4.98059790000E-01

  40  40   1    8 O     1.36393760000E-01  4.30673050000E-01 -4.97274140000E-01

  41  41   1    8 O     1.33990960000E-01  2.67299110000E-01 -4.89786910000E-01

  42  42   1    8 O     2.94488240000E-01  4.28959890000E-01 -4.94802580000E-01

 NUMBER OF SYMMETRY OPERATORS         :    1
 *******************************************************************************
 * GEOMETRY EDITING - INPUT COORDINATES ARE GIVEN IN ANGSTROM         
 *******************************************************************************

 GCALCO - MAX INDICES DIRECT LATTICE VECTOR     9    14    22
 NO.OF VECTORS CREATED 6999 STARS 3500 RMAX   221.95299 BOHR

 GEOMETRY FOR WAVE FUNCTION - DIMENSIONALITY OF THE SYSTEM    3
 (NON PERIODIC DIRECTION: LATTICE PARAMETER FORMALLY SET TO 500)
 *******************************************************************************
 LATTICE PARAMETERS (ANGSTROMS AND DEGREES) - BOHR = 0.5291772083 ANGSTROM
 PRIMITIVE CELL - CENTRING CODE 1/0 VOLUME=   860.714984 - DENSITY  0.753 g/cm^3
         A              B              C           ALPHA      BETA       GAMMA 
    15.02070100    15.04438700     8.69540100    41.708520  89.999639 120.053104
 *******************************************************************************
 ATOMS IN THE ASYMMETRIC UNIT   42 - ATOMS IN THE UNIT CELL:   42
     ATOM                 X/A                 Y/B                 Z/C    
 *******************************************************************************
      1 T   5 B     4.709901500000E-01 -6.025932000000E-02 -4.993806000000E-01
      2 T   5 B    -3.702333300000E-01  9.876164000000E-02 -4.993706100000E-01
      3 T   5 B     4.709480400000E-01  9.927258000000E-02  4.991995200000E-01
      4 T   5 B     8.277852000000E-02  3.232630900000E-01 -4.945859200000E-01
      5 T   5 B     2.401849300000E-01  3.204333200000E-01 -4.905423000000E-01
      6 T   5 B     2.421808000000E-01  4.832075400000E-01 -4.965075400000E-01
      7 T   1 H    -2.413310000000E-01  1.896905000000E-02 -4.954824600000E-01
      8 T   1 H    -4.353492000000E-02  4.075354900000E-01  4.929279900000E-01
      9 T   1 H    -2.378772500000E-01  3.103156600000E-01  4.927897100000E-01
     10 T   1 H    -4.676699000000E-02  1.164312800000E-01 -4.959138600000E-01
     11 T   1 H     4.487372100000E-01 -3.871722600000E-01 -4.957918000000E-01
     12 T   1 H     2.653848400000E-01 -1.862085100000E-01  4.945601100000E-01
     13 T   1 H     1.666670300000E-01 -3.806729900000E-01  4.958668600000E-01
     14 T   1 H    -4.526235300000E-01 -1.924102700000E-01 -4.976530000000E-01
     15 T   1 H     4.501963200000E-01  4.038750400000E-01  4.977642100000E-01
     16 T   1 H     2.604932700000E-01  1.749149000000E-02 -4.939532200000E-01
     17 T   1 H     1.632346200000E-01  1.136231000000E-01 -4.943180700000E-01
     18 T   1 H    -4.522819200000E-01  3.074782100000E-01  4.986976000000E-01
     19 T   6 C    -2.508686100000E-01  1.583347100000E-01 -4.996205800000E-01
     20 T   6 C    -1.968545800000E-01  1.041411100000E-01 -4.978546100000E-01
     21 T   6 C    -8.799075000000E-02  3.221591900000E-01  4.957529300000E-01
     22 T   6 C    -1.950666300000E-01  2.684401000000E-01  4.960900600000E-01
     23 T   6 C    -8.963799000000E-02  1.580767800000E-01 -4.984982800000E-01
     24 T   6 C    -3.450599000000E-02  2.670062600000E-01  4.993186100000E-01
     25 T   6 C     3.016152600000E-01 -3.964766100000E-01 -4.981392200000E-01
     26 T   6 C     4.093758000000E-01 -3.422192800000E-01 -4.977490700000E-01
     27 T   6 C     3.044405300000E-01 -2.316354600000E-01  4.969749200000E-01
     28 T   6 C     2.499990700000E-01 -3.392349400000E-01  4.980935200000E-01
     29 T   6 C     4.638743300000E-01 -2.345249300000E-01 -4.991863800000E-01
     30 T   6 C     4.116640600000E-01 -1.785962500000E-01  4.991894800000E-01
     31 T   6 C     3.017648300000E-01  2.655642900000E-01  4.999606400000E-01
     32 T   6 C     4.097733300000E-01  3.191368900000E-01  4.994092000000E-01
     33 T   6 C     3.016290300000E-01  1.025022800000E-01 -4.960675800000E-01
     34 T   6 C     2.479031900000E-01  1.558980000000E-01 -4.966754800000E-01
     35 T   6 C     4.633159100000E-01  2.655319400000E-01 -4.996525100000E-01
     36 T   6 C     4.102025600000E-01  1.570934300000E-01 -4.984107400000E-01
     37 T   8 O     4.181710000000E-01 -6.850620000000E-03  4.995893600000E-01
     38 T   8 O    -4.235333000000E-01 -8.275430000000E-03 -4.974208100000E-01
     39 T   8 O    -4.226192400000E-01  1.530713400000E-01  4.980597900000E-01
     40 T   8 O     1.363937600000E-01  4.306730500000E-01 -4.972741400000E-01
     41 T   8 O     1.339909600000E-01  2.672991100000E-01 -4.897869100000E-01
     42 T   8 O     2.944882400000E-01  4.289598900000E-01 -4.948025800000E-01

 T = ATOM BELONGING TO THE ASYMMETRIC UNIT

 ****    1 SYMMOPS - TRANSLATORS IN FRACTIONAL UNITS
 **** MATRICES AND TRANSLATORS IN THE CRYSTALLOGRAPHIC REFERENCE FRAME
   V INV                    ROTATION MATRICES                   TRANSLATORS
   1   1  1.00 -0.00  0.00  0.00  1.00  0.00 -0.00  0.00  1.00  0.00  0.00  0.00

 DIRECT LATTICE VECTORS CARTESIAN COMPONENTS (ANGSTROM)
          X                    Y                    Z
   0.130013421718E+02  -0.752240388864E+01   0.000000000000E+00
   0.000000000000E+00   0.150443870000E+02   0.000000000000E+00
   0.375593476741E+01   0.649145816631E+01   0.440044582387E+01


 CARTESIAN COORDINATES - PRIMITIVE CELL
 *******************************************************************************
 *      ATOM          X(ANGSTROM)         Y(ANGSTROM)         Z(ANGSTROM)
 *******************************************************************************
    1     5 B     4.919283745575E-01  8.616778934159E-01 -6.597943099657E+00
    2     5 B    -6.689133642649E+00  1.029209549912E+00 -2.197453315336E+00
    3     5 B    -1.247489958148E+00  1.608416002365E-01  6.597146266927E+00
    4     5 B    -7.814005894089E-01  1.030017758706E+00 -2.176398546207E+00
    5     5 B     1.280281579976E+00 -1.703799969053E-01 -2.158604815465E+00
    6     5 B     1.283825516464E+00  2.224721516237E+00 -2.184854530911E+00
    7     1 H    -4.998626705815E+00 -1.115636679158E+00 -2.180343721906E+00
    8     1 H    -2.470541783283E+00  3.166972139073E+00 -2.231342908804E+00
    9     1 H    -1.241837517317E+00 -5.387545581128E+00  2.168494421414E+00
   10     1 H    -2.470653747751E+00 -1.115766653621E+00 -2.182242074235E+00
   11     1 H     3.972024353398E+00  2.625623422514E+00 -2.181704955817E+00
   12     1 H     5.307894623767E+00 -1.587308574746E+00  2.176284970701E+00
   13     1 H     2.734038978512E-01  4.791099314853E+00 -2.218410570586E+00
   14     1 H    -3.997930825919E+00  3.771086972979E+00  2.210550758282E+00
   15     1 H     3.966791535692E+00 -5.707487672280E-01 -2.210061384702E+00
   16     1 H     1.531506064240E+00 -4.902863506190E+00 -2.173614384135E+00
   17     1 H     2.656427236250E-01 -2.727371923965E+00 -2.175219886793E+00
   18     1 H    -4.007196345760E+00 -3.779043932884E+00  2.194491771292E+00
   19     6 C    -5.138170945705E+00  1.025917566078E+00 -2.198553294779E+00
   20     6 C    -4.429283191478E+00 -1.842435541805E-01 -2.190782239467E+00
   21     6 C    -3.037916950281E+00  2.235290729542E+00 -2.218911913379E+00
   22     6 C    -4.428780866217E+00  2.234776431678E+00 -2.217428391078E+00
   23     6 C    -3.037741200929E+00 -1.835193120170E-01 -2.193614674431E+00
   24     6 C    -2.329150823064E+00  1.026361202386E+00 -2.203221331713E+00
   25     6 C     2.050424784078E+00  3.577117730386E+00 -2.192034650353E+00
   26     6 C     3.452921815182E+00  3.585300337759E+00 -2.190317816415E+00
   27     6 C     5.824740882047E+00 -2.548846227011E+00  2.186911211280E+00
   28     6 C     1.365195453472E+00  4.802106384074E+00 -2.208612273888E+00
   29     6 C    -5.089329995389E+00  3.755680680089E+00  2.203803202665E+00
   30     6 C     3.471173659926E+00  6.009822032666E+00 -2.203789561283E+00
   31     6 C     2.045232592937E+00 -1.520729565455E+00 -2.200396113481E+00
   32     6 C     3.447416886229E+00 -1.530825848556E+00 -2.202822695326E+00
   33     6 C     2.058384757261E+00 -3.947093362729E+00 -2.182918510767E+00
   34     6 C     1.357593495210E+00 -2.743586176588E+00 -2.185593541783E+00
   35     6 C     4.147066445602E+00 -2.733957503189E+00 -2.198693801014E+00
   36     6 C     3.461185615479E+00 -3.957747444747E+00 -2.193229459403E+00
   37     8 O    -1.932198100391E+00 -1.036176049263E+00  6.598861736727E+00
   38     8 O     1.870625935604E+00  8.630283372606E-01 -6.589319149936E+00
   39     8 O     1.319975013124E-01  1.621825493740E-01  6.592130946808E+00
   40     8 O    -9.442728750760E-02  2.225168807063E+00 -2.188227912680E+00
   41     8 O    -9.754536500930E-02 -1.660140996220E-01 -2.155280762694E+00
   42     8 O     1.970296160575E+00  1.026188862250E+00 -2.177351946799E+00

 *******************************************************************************
 STARTING BASIS SET HANDLING 
 *******************************************************************************

 Loading internal basis set: SOLDEF2MSVP         

 Please cite in your publication:
 L. Dona', J. G. Brandenburg and B. Civalleri, J. Chem. Phys., 151, 121101 (2019
 )                                                                              
                                                                                
                    

 *******************************************************************************
 LOCAL ATOMIC FUNCTIONS BASIS SET
 *******************************************************************************
   ATOM   X(AU)   Y(AU)   Z(AU)  N. TYPE  EXPONENT  S COEF   P COEF   D/F/G COEF
 *******************************************************************************
   1 B    0.930   1.628 -12.468
                                  1 S  
                                         2.410E+03 1.755E-03 0.000E+00 0.000E+00
                                         3.619E+02 1.344E-02 0.000E+00 0.000E+00
                                         8.231E+01 6.637E-02 0.000E+00 0.000E+00
                                         2.311E+01 2.303E-01 0.000E+00 0.000E+00
                                         7.252E+00 5.150E-01 0.000E+00 0.000E+00
                                  2 S  
                                         2.367E+00 1.000E+00 0.000E+00 0.000E+00
                                  3 S  
                                         5.533E-01 1.000E+00 0.000E+00 0.000E+00
                                  4 S  
                                         1.716E-01 1.000E+00 0.000E+00 0.000E+00
                           5-     7 P  
                                         6.002E+00 0.000E+00-3.555E-02 0.000E+00
                                         1.240E+00 0.000E+00-1.983E-01 0.000E+00
                                         3.367E-01 0.000E+00-5.048E-01 0.000E+00
                           8-    10 P  
                                         1.256E-01 0.000E+00 1.000E+00 0.000E+00
                          11-    15 D  
                                         8.880E-01 0.000E+00 0.000E+00 1.000E+00
   2 B  -12.641   1.945  -4.153
   3 B   -2.357   0.304  12.467
   4 B   -1.477   1.946  -4.113
   5 B    2.419  -0.322  -4.079
   6 B    2.426   4.204  -4.129
   7 H   -9.446  -2.108  -4.120
                                 91 S  
                                         1.874E+01 1.968E-02 0.000E+00 0.000E+00
                                         2.826E+00 1.380E-01 0.000E+00 0.000E+00
                                         6.401E-01 4.783E-01 0.000E+00 0.000E+00
                                 92 S  
                                         1.756E-01 1.000E+00 0.000E+00 0.000E+00
   8 H   -4.669   5.985  -4.217
   9 H   -2.347 -10.181   4.098
  10 H   -4.669  -2.108  -4.124
  11 H    7.506   4.962  -4.123
  12 H   10.030  -3.000   4.113
  13 H    0.517   9.054  -4.192
  14 H   -7.555   7.126   4.177
  15 H    7.496  -1.079  -4.176
  16 H    2.894  -9.265  -4.108
  17 H    0.502  -5.154  -4.111
  18 H   -7.573  -7.141   4.147
  19 C   -9.710   1.939  -4.155
                                115 S  
                                         3.624E+03 1.634E-03 0.000E+00 0.000E+00
                                         5.440E+02 1.252E-02 0.000E+00 0.000E+00
                                         1.237E+02 6.211E-02 0.000E+00 0.000E+00
                                         3.476E+01 2.182E-01 0.000E+00 0.000E+00
                                         1.093E+01 4.980E-01 0.000E+00 0.000E+00
                                116 S  
                                         3.574E+00 1.000E+00 0.000E+00 0.000E+00
                                117 S  
                                         7.742E-01 1.000E+00 0.000E+00 0.000E+00
                                118 S  
                                         2.330E-01 1.000E+00 0.000E+00 0.000E+00
                         119-   121 P  
                                         9.443E+00 0.000E+00 3.790E-02 0.000E+00
                                         2.002E+00 0.000E+00 2.082E-01 0.000E+00
                                         5.463E-01 0.000E+00 5.047E-01 0.000E+00
                         122-   124 P  
                                         1.820E-01 0.000E+00 1.000E+00 0.000E+00
                         125-   129 D  
                                         8.880E-01 0.000E+00 0.000E+00 1.000E+00
  20 C   -8.370  -0.348  -4.140
  21 C   -5.741   4.224  -4.193
  22 C   -8.369   4.223  -4.190
  23 C   -5.740  -0.347  -4.145
  24 C   -4.401   1.940  -4.163
  25 C    3.875   6.760  -4.142
  26 C    6.525   6.775  -4.139
  27 C   11.007  -4.817   4.133
  28 C    2.580   9.075  -4.174
  29 C   -9.617   7.097   4.165
  30 C    6.560  11.357  -4.165
  31 C    3.865  -2.874  -4.158
  32 C    6.515  -2.893  -4.163
  33 C    3.890  -7.459  -4.125
  34 C    2.565  -5.185  -4.130
  35 C    7.837  -5.166  -4.155
  36 C    6.541  -7.479  -4.145
  37 O   -3.651  -1.958  12.470
                                385 S  
                                         6.773E+03 1.727E-03 0.000E+00 0.000E+00
                                         1.017E+03 1.325E-02 0.000E+00 0.000E+00
                                         2.313E+02 6.603E-02 0.000E+00 0.000E+00
                                         6.501E+01 2.353E-01 0.000E+00 0.000E+00
                                         2.050E+01 5.498E-01 0.000E+00 0.000E+00
                                386 S  
                                         6.716E+00 1.000E+00 0.000E+00 0.000E+00
                                387 S  
                                         1.147E+00 1.000E+00 0.000E+00 0.000E+00
                                388 S  
                                         3.342E-01 1.000E+00 0.000E+00 0.000E+00
                         389-   391 P  
                                         1.769E+01 0.000E+00 4.359E-02 0.000E+00
                                         3.854E+00 0.000E+00 2.318E-01 0.000E+00
                                         1.047E+00 0.000E+00 5.146E-01 0.000E+00
                         392-   394 P  
                                         2.759E-01 0.000E+00 1.000E+00 0.000E+00
                         395-   399 D  
                                         8.000E-01 0.000E+00 0.000E+00 1.000E+00
  38 O    3.535   1.631 -12.452
  39 O    0.249   0.306  12.457
  40 O   -0.178   4.205  -4.135
  41 O   -0.184  -0.314  -4.073
  42 O    3.723   1.939  -4.115

 *******************************************************************************
 FINISHED BASIS SET HANDLING 
 *******************************************************************************

 INFORMATION **** SET_MPP **** PCRYSTAL CALCULATION
 INFORMATION **** READM2 **** NEW DEFAULT: FOCK/KS MATRIX MIXING SET TO 30 %
 INFORMATION **** READM2 **** NEW DEFAULT: FULL DIRECT SCF MODE
 INFORMATION **** READM2 **** NEW DEFAULT: COULOMB BIPOLAR BUFFER SET TO 32 Mb
 INFORMATION **** READM2 **** NEW DEFAULT: EXCHANGE BIPOLAR BUFFER SET TO 32 Mb

 *******************************************************************************
 NEW DEFAULT: DFT INTEGRATION GRID INCREASED TO XLGRID
 NEW DEFAULT: DIIS ACCELERATOR ACTIVE
 USE KEYWORD NODIIS TO TURN IT OFF
 *******************************************************************************

 WARNING **** RDDFTP **** HSEsol-HJS ACTIVE
 RANGE SEPARATION - OMEGA:   0.110000000000000     
 WARNING **** RDDFTP **** HSEsol-3c has to be combined with sol-def2-mSVP basis set
 *******************************************************************************
 N. OF ATOMS PER CELL        42  COULOMB OVERLAP TOL         (T1) 10**   -6
 NUMBER OF SHELLS           234  COULOMB PENETRATION TOL     (T2) 10**   -6
 NUMBER OF AO               474  EXCHANGE OVERLAP TOL        (T3) 10**   -6
 N. OF ELECTRONS PER CELL   198  EXCHANGE PSEUDO OVP (F(G))  (T4) 10**   -6
 CORE ELECTRONS PER CELL     60  EXCHANGE PSEUDO OVP (P(G))  (T5) 10**  -12
 N. OF SYMMETRY OPERATORS     1  POLE ORDER IN MONO ZONE                  4
 *******************************************************************************
 TYPE OF CALCULATION :  RESTRICTED CLOSED SHELL
 KOHN-SHAM HAMILTONIAN

 (EXCHANGE)[CORRELATION] FUNCTIONAL:(HSEsol GGA)[PBEsol]

 RANGE-SEPARATED HYBRID FUNCTIONAL 
 OMEGA (SHORT-RANGE)[LONG-RANGE]:(    0.1100)[    0.0000]

 HYBRID EXCHANGE - PERCENTAGE OF FOCK EXCHANGE    25.0000

 CAPPA:IS1  2;IS2  2;IS3  8; K PTS MONK NET  20; SYMMOPS:K SPACE   2;G SPACE   1

 *******************************************************************************
 MAX NUMBER OF SCF CYCLES      50  CONVERGENCE ON DELTAP        10**-16
 WEIGHT OF F(I) IN F(I+1)      30% CONVERGENCE ON ENERGY        10**- 6
 SHRINK. FACT.(MONKH.)    2  2  8  NUMBER OF K POINTS IN THE IBZ     20
 SHRINKING FACTOR(GILAT NET)    8  NUMBER OF K POINTS(GILAT NET)   1028
 *******************************************************************************
 *** K POINTS COORDINATES (OBLIQUE COORDINATES IN UNITS OF IS =  2)
   1-R(  0  0  0)   2-R(  1  0  0)   3-R(  0  1  0)   4-R(  1  1  0)
   5-C(  0  0  1)   6-C(  1  0  1)   7-C(  0  1  1)   8-C(  1  1  1)
   9-C(  0  0  2)  10-C(  1  0  2)  11-C(  0  1  2)  12-C(  1  1  2)
  13-C(  0  0  3)  14-C(  1  0  3)  15-C(  0  1  3)  16-C(  1  1  3)
  17-R(  0  0  4)  18-R(  1  0  4)  19-R(  0  1  4)  20-R(  1  1  4)

 DIRECT LATTICE VECTORS COMPON. (A.U.)     RECIP. LATTICE VECTORS COMPON. (A.U.) 
        X            Y            Z              X            Y            Z
   24.5689761  -14.2152832    0.0000000      0.2557366    0.0000000   -0.2182801
    0.0000000   28.4297713    0.0000000      0.1278719    0.2210072   -0.4351690
    7.0976881   12.2670781    8.3156375      0.0000000    0.0000000    0.7555867

 DISK SPACE FOR EIGENVECTORS (FTN 10)     7189632 REALS

 SYMMETRY ADAPTION OF THE BLOCH FUNCTIONS DISABLED
 TTTTTTTTTTTTTTTTTTTTTTTTTTTTTT gordsh1     TELAPSE        0.04 TCPU        0.04

 MATRIX SIZE: P(G)  271186, F(G)   53482, P(G) IRR  136652, F(G) IRR   53962
 MAX G-VECTOR INDEX FOR 1- AND 2-ELECTRON INTEGRALS  61

 TTTTTTTTTTTTTTTTTTTTTTTTTTTTTT INPUT       TELAPSE        0.39 TCPU        0.38

 NEIGHBORS OF THE NON-EQUIVALENT ATOMS

 N = NUMBER OF NEIGHBORS AT DISTANCE R
    ATOM  N     R/ANG      R/AU   NEIGHBORS (ATOM LABELS AND CELL INDICES)
   1 B    1     1.3787     2.6054   38 O    0 0 0
   1 B    1     1.3795     2.6068   37 O    1 2-3
   1 B    1     1.5517     2.9323   30 C    0 0-1
   1 B    1     2.3868     4.5104    2 B    1 1-1
   1 B    1     2.3912     4.5187    3 B    1 2-3
   1 B    1     2.5629     4.8432   27 C    0 1-2

   2 B    1     1.3792     2.6064   38 O   -1-1 1
   2 B    1     1.3798     2.6075   39 O    0 1-2
   2 B    1     1.5510     2.9309   19 C    0 0 0
   2 B    1     2.3868     4.5104    1 B   -1-1 1
   2 B    1     2.3894     4.5154    3 B    0 1-2
   2 B    1     2.5618     4.8412   22 C    0 0 0

   3 B    1     1.3790     2.6060   37 O    0 0 0
   3 B    1     1.3795     2.6069   39 O    0 0 0
   3 B    1     1.5529     2.9346   36 C   -1-1 2
   3 B    1     2.3894     4.5154    2 B    0-1 2
   3 B    1     2.3912     4.5187    1 B   -1-2 3
   3 B    1     2.5679     4.8526   35 C   -1-1 2

   4 B    1     1.3779     2.6038   41 O    0 0 0
   4 B    1     1.3786     2.6051   40 O    0 0 0
   4 B    1     1.5480     2.9253   24 C    0 0 0
   4 B    1     2.3858     4.5084    5 B    0 0 0
   4 B    1     2.3859     4.5087    6 B    0 0 0
   4 B    1     2.5586     4.8350   21 C    0 0 0

   5 B    1     1.3778     2.6037   41 O    0 0 0
   5 B    1     1.3814     2.6105   42 O    0 0 0
   5 B    1     1.5525     2.9339   31 C    0 0 0
   5 B    1     2.3858     4.5084    4 B    0 0 0
   5 B    1     2.3952     4.5264    6 B    0 0 0
   5 B    1     2.5591     4.8361   32 C    0 0 0

   6 B    1     1.3783     2.6045   40 O    0 0 0
   6 B    1     1.3812     2.6101   42 O    0 0 0
   6 B    1     1.5546     2.9377   25 C    0 0 0
   6 B    1     2.3859     4.5087    4 B    0 0 0
   6 B    1     2.3952     4.5264    5 B    0 0 0
   6 B    1     2.5605     4.8387   26 C    0 0 0

   7 H    1     1.0917     2.0630   20 C    0 0 0
   7 H    1     2.1462     4.0557   19 C    0 0 0
   7 H    1     2.1712     4.1030   23 C    0 0 0
   7 H    1     2.5280     4.7772   10 H    0 0 0
   7 H    1     2.5583     4.8346   38 O   -1-1 1
   7 H    1     2.7310     5.1609    2 B    0 0 0

   8 H    1     1.0909     2.0615   21 C    0 0 0
   8 H    1     2.1455     4.0543   24 C    0 0 0
   8 H    1     2.1688     4.0985   22 C    0 0 0
   8 H    1     2.5272     4.7758    9 H    0 1-1
   8 H    1     2.5563     4.8307   40 O    0 0 0
   8 H    1     2.7245     5.1485    4 B    0 0 0

   9 H    1     1.0909     2.0614   22 C    0-1 1
   9 H    1     2.1443     4.0522   19 C    0-1 1
   9 H    1     2.1694     4.0996   21 C    0-1 1
   9 H    1     2.5272     4.7758    8 H    0-1 1
   9 H    1     2.5616     4.8407   39 O    0 0-1
   9 H    1     2.7249     5.1493    2 B    0-1 1

  10 H    1     1.0912     2.0621   23 C    0 0 0
  10 H    1     2.1469     4.0571   24 C    0 0 0
  10 H    1     2.1689     4.0986   20 C    0 0 0
  10 H    1     2.5280     4.7772    7 H    0 0 0
  10 H    1     2.5562     4.8306   41 O    0 0 0
  10 H    1     2.7309     5.1607    4 B    0 0 0

  11 H    1     1.0911     2.0619   26 C    0 0 0
  11 H    1     2.1443     4.0521   25 C    0 0 0
  11 H    1     2.1685     4.0978   29 C    1 1-1
  11 H    1     2.5223     4.7664   14 H    1 1-1
  11 H    1     2.5623     4.8420   42 O    0 0 0
  11 H    1     2.7179     5.1361    6 B    0 0 0

  12 H    1     1.0917     2.0630   27 C    0 0 0
  12 H    1     2.1441     4.0518   30 C    0-1 1
  12 H    1     2.1716     4.1038   28 C    0-1 1
  12 H    1     2.5226     4.7669   13 H    0-1 1
  12 H    1     2.5541     4.8265   37 O    1 1-1
  12 H    1     2.7237     5.1471    1 B    0-1 2

  13 H    1     1.0919     2.0634   28 C    0 0 0
  13 H    1     2.1523     4.0672   25 C    0 0 0
  13 H    1     2.1668     4.0946   27 C    0 1-1
  13 H    1     2.5226     4.7669   12 H    0 1-1
  13 H    1     2.5923     4.8988   40 O    0 0 0
  13 H    1     2.7583     5.2125    6 B    0 0 0

  14 H    1     1.0915     2.0627   29 C    0 0 0
  14 H    1     2.1483     4.0597   30 C   -1-1 1
  14 H    1     2.1679     4.0968   26 C   -1-1 1
  14 H    1     2.5223     4.7664   11 H   -1-1 1
  14 H    1     2.5809     4.8771   38 O   -1-1 2
  14 H    1     2.7404     5.1785    1 B   -1-1 2

  15 H    1     1.0916     2.0628   32 C    0 0 0
  15 H    1     2.1436     4.0508   31 C    0 0 0
  15 H    1     2.1707     4.1021   35 C    0 0 0
  15 H    1     2.5217     4.7654   18 H    1 1-1
  15 H    1     2.5568     4.8317   42 O    0 0 0
  15 H    1     2.7167     5.1338    5 B    0 0 0

  16 H    1     1.0914     2.0625   33 C    0 0 0
  16 H    1     2.1488     4.0606   36 C    0 0 0
  16 H    1     2.1663     4.0937   34 C    0 0 0
  16 H    1     2.5170     4.7564   17 H    0 0 0
  16 H    1     2.5780     4.8717   37 O    1 1-2
  16 H    1     2.7396     5.1771    3 B    1 1-2

  17 H    1     1.0921     2.0638   34 C    0 0 0
  17 H    1     2.1502     4.0634   31 C    0 0 0
  17 H    1     2.1683     4.0976   33 C    0 0 0
  17 H    1     2.5170     4.7564   16 H    0 0 0
  17 H    1     2.5871     4.8888   41 O    0 0 0
  17 H    1     2.7510     5.1986    5 B    0 0 0

  18 H    1     1.0913     2.0622   35 C   -1-1 1
  18 H    1     2.1495     4.0619   36 C   -1-1 1
  18 H    1     2.1656     4.0924   32 C   -1-1 1
  18 H    1     2.5217     4.7654   15 H   -1-1 1
  18 H    1     2.5789     4.8734   39 O    0 0-1
  18 H    1     2.7392     5.1763    3 B    0 0-1

  19 C    1     1.4018     2.6489   22 C    0 0 0
  19 C    1     1.4025     2.6504   20 C    0 0 0
  19 C    1     1.5510     2.9309    2 B    0 0 0
  19 C    1     2.1443     4.0522    9 H    0 1-1
  19 C    1     2.1462     4.0557    7 H    0 0 0
  19 C    1     2.4236     4.5800   21 C    0 0 0

  20 C    1     1.0917     2.0630    7 H    0 0 0
  20 C    1     1.3915     2.6296   23 C    0 0 0
  20 C    1     1.4025     2.6504   19 C    0 0 0
  20 C    1     2.1689     4.0986   10 H    0 0 0
  20 C    1     2.4192     4.5716   22 C    0 0 0
  20 C    1     2.4241     4.5809   24 C    0 0 0

  21 C    1     1.0909     2.0615    8 H    0 0 0
  21 C    1     1.3909     2.6284   22 C    0 0 0
  21 C    1     1.4015     2.6484   24 C    0 0 0
  21 C    1     2.1694     4.0996    9 H    0 1-1
  21 C    1     2.4189     4.5711   23 C    0 0 0
  21 C    1     2.4236     4.5800   19 C    0 0 0

  22 C    1     1.0909     2.0614    9 H    0 1-1
  22 C    1     1.3909     2.6284   21 C    0 0 0
  22 C    1     1.4018     2.6489   19 C    0 0 0
  22 C    1     2.1688     4.0985    8 H    0 0 0
  22 C    1     2.4192     4.5716   20 C    0 0 0
  22 C    1     2.4226     4.5780   24 C    0 0 0

  23 C    1     1.0912     2.0621   10 H    0 0 0
  23 C    1     1.3915     2.6296   20 C    0 0 0
  23 C    1     1.4021     2.6497   24 C    0 0 0
  23 C    1     2.1712     4.1030    7 H    0 0 0
  23 C    1     2.4189     4.5711   21 C    0 0 0
  23 C    1     2.4238     4.5802   19 C    0 0 0

  24 C    1     1.4015     2.6484   21 C    0 0 0
  24 C    1     1.4021     2.6497   23 C    0 0 0
  24 C    1     1.5480     2.9253    4 B    0 0 0
  24 C    1     2.1455     4.0543    8 H    0 0 0
  24 C    1     2.1469     4.0571   10 H    0 0 0
  24 C    1     2.4226     4.5780   22 C    0 0 0

  25 C    1     1.4025     2.6504   26 C    0 0 0
  25 C    1     1.4037     2.6526   28 C    0 0 0
  25 C    1     1.5546     2.9377    6 B    0 0 0
  25 C    1     2.1443     4.0521   11 H    0 0 0
  25 C    1     2.1523     4.0672   13 H    0 0 0
  25 C    1     2.4271     4.5866   27 C    0 1-1

  26 C    1     1.0911     2.0619   11 H    0 0 0
  26 C    1     1.3916     2.6298   29 C    1 1-1
  26 C    1     1.4025     2.6504   25 C    0 0 0
  26 C    1     2.1679     4.0968   14 H    1 1-1
  26 C    1     2.4165     4.5666   28 C    0 0 0
  26 C    1     2.4246     4.5819   30 C    0 0 0

  27 C    1     1.0917     2.0630   12 H    0 0 0
  27 C    1     1.3928     2.6320   28 C    0-1 1
  27 C    1     1.4024     2.6502   30 C    0-1 1
  27 C    1     2.1668     4.0946   13 H    0-1 1
  27 C    1     2.4167     4.5668   29 C    1 0 0
  27 C    1     2.4271     4.5866   25 C    0-1 1

  28 C    1     1.0919     2.0634   13 H    0 0 0
  28 C    1     1.3928     2.6320   27 C    0 1-1
  28 C    1     1.4037     2.6526   25 C    0 0 0
  28 C    1     2.1716     4.1038   12 H    0 1-1
  28 C    1     2.4165     4.5666   26 C    0 0 0
  28 C    1     2.4277     4.5877   30 C    0 0 0

  29 C    1     1.0915     2.0627   14 H    0 0 0
  29 C    1     1.3916     2.6298   26 C   -1-1 1
  29 C    1     1.4023     2.6499   30 C   -1-1 1
  29 C    1     2.1685     4.0978   11 H   -1-1 1
  29 C    1     2.4167     4.5668   27 C   -1 0 0
  29 C    1     2.4281     4.5885   25 C   -1-1 1

  30 C    1     1.4023     2.6499   29 C    1 1-1
  30 C    1     1.4024     2.6502   27 C    0 1-1
  30 C    1     1.5517     2.9323    1 B    0 0 1
  30 C    1     2.1441     4.0518   12 H    0 1-1
  30 C    1     2.1483     4.0597   14 H    1 1-1
  30 C    1     2.4246     4.5819   26 C    0 0 0

  31 C    1     1.4022     2.6498   32 C    0 0 0
  31 C    1     1.4030     2.6513   34 C    0 0 0
  31 C    1     1.5525     2.9339    5 B    0 0 0
  31 C    1     2.1436     4.0508   15 H    0 0 0
  31 C    1     2.1502     4.0634   17 H    0 0 0
  31 C    1     2.4265     4.5853   33 C    0 0 0

  32 C    1     1.0916     2.0628   15 H    0 0 0
  32 C    1     1.3918     2.6301   35 C    0 0 0
  32 C    1     1.4022     2.6498   31 C    0 0 0
  32 C    1     2.1656     4.0924   18 H    1 1-1
  32 C    1     2.4163     4.5661   34 C    0 0 0
  32 C    1     2.4270     4.5863   36 C    0 0 0

  33 C    1     1.0914     2.0625   16 H    0 0 0
  33 C    1     1.3927     2.6318   34 C    0 0 0
  33 C    1     1.4029     2.6511   36 C    0 0 0
  33 C    1     2.1683     4.0976   17 H    0 0 0
  33 C    1     2.4155     4.5646   35 C    0 0 0
  33 C    1     2.4265     4.5853   31 C    0 0 0

  34 C    1     1.0921     2.0638   17 H    0 0 0
  34 C    1     1.3927     2.6318   33 C    0 0 0
  34 C    1     1.4030     2.6513   31 C    0 0 0
  34 C    1     2.1663     4.0937   16 H    0 0 0
  34 C    1     2.4163     4.5661   32 C    0 0 0
  34 C    1     2.4289     4.5899   36 C    0 0 0

  35 C    1     1.0913     2.0622   18 H    1 1-1
  35 C    1     1.3918     2.6301   32 C    0 0 0
  35 C    1     1.4029     2.6511   36 C    0 0 0
  35 C    1     2.1707     4.1021   15 H    0 0 0
  35 C    1     2.4155     4.5646   33 C    0 0 0
  35 C    1     2.4269     4.5861   31 C    0 0 0

  36 C    1     1.4029     2.6511   33 C    0 0 0
  36 C    1     1.4029     2.6511   35 C    0 0 0
  36 C    1     1.5529     2.9346    3 B    1 1-2
  36 C    1     2.1488     4.0606   16 H    0 0 0
  36 C    1     2.1495     4.0619   18 H    1 1-1
  36 C    1     2.4270     4.5863   32 C    0 0 0

  37 O    1     1.3790     2.6060    3 B    0 0 0
  37 O    1     1.3795     2.6068    1 B   -1-2 3
  37 O    1     2.3868     4.5105   39 O    0 0 0
  37 O    1     2.3885     4.5136   38 O   -1-2 3
  37 O    1     2.5389     4.7979   30 C   -1-2 2
  37 O    1     2.5412     4.8022   36 C   -1-1 2

  38 O    1     1.3787     2.6054    1 B    0 0 0
  38 O    1     1.3792     2.6064    2 B    1 1-1
  38 O    1     2.3885     4.5136   37 O    1 2-3
  38 O    1     2.3912     4.5188   39 O    1 2-3
  38 O    1     2.5351     4.7907   19 C    1 1-1
  38 O    1     2.5405     4.8008   30 C    0 0-1

  39 O    1     1.3795     2.6069    3 B    0 0 0
  39 O    1     1.3798     2.6075    2 B    0-1 2
  39 O    1     2.3868     4.5105   37 O    0 0 0
  39 O    1     2.3912     4.5188   38 O   -1-2 3
  39 O    1     2.5416     4.8030   19 C    0-1 2
  39 O    1     2.5427     4.8050   36 C   -1-1 2

  40 O    1     1.3783     2.6045    6 B    0 0 0
  40 O    1     1.3786     2.6051    4 B    0 0 0
  40 O    1     2.3876     4.5120   42 O    0 0 0
  40 O    1     2.3914     4.5191   41 O    0 0 0
  40 O    1     2.5354     4.7912   25 C    0 0 0
  40 O    1     2.5360     4.7924   24 C    0 0 0

  41 O    1     1.3778     2.6037    5 B    0 0 0
  41 O    1     1.3779     2.6038    4 B    0 0 0
  41 O    1     2.3870     4.5108   42 O    0 0 0
  41 O    1     2.3914     4.5191   40 O    0 0 0
  41 O    1     2.5306     4.7822   24 C    0 0 0
  41 O    1     2.5355     4.7914   31 C    0 0 0

  42 O    1     1.3812     2.6101    6 B    0 0 0
  42 O    1     1.3814     2.6105    5 B    0 0 0
  42 O    1     2.3870     4.5108   41 O    0 0 0
  42 O    1     2.3876     4.5120   40 O    0 0 0
  42 O    1     2.5481     4.8153   31 C    0 0 0
  42 O    1     2.5522     4.8230   25 C    0 0 0


 SYMMETRY ALLOWED INTERNAL DEGREE(S) OF FREEDOM: 123
 TTTTTTTTTTTTTTTTTTTTTTTTTTTTTT SYMM        TELAPSE        0.39 TCPU        0.39
 TTTTTTTTTTTTTTTTTTTTTTTTTTTTTT INT_SCREEN  TELAPSE        0.42 TCPU        0.42

 DFT PARAMETERS

     ATOM       ELECTRONS   NET CHARGE   R(ANGSTROM)
   1   5  B       5.0000      0.0000     0.89000000
   7   1  H       1.0000      0.0000     1.11000000
  19   6  C       6.0000      0.0000     0.77000000
  37   8  O       8.0000      0.0000     0.74000000

 SIZE OF GRID=    1341935
 TTTTTTTTTTTTTTTTTTTTTTTTTTTTTT MAKE_GRID2  TELAPSE        7.37 TCPU        7.36
 BECKE WEIGHT FUNCTION
 RADSAFE =     2.00
 TOLERANCES - DENSITY:10**- 6; POTENTIAL:10**- 9; GRID WGT:10**-14

 RADIAL INTEGRATION  - INTERVALS (POINTS,UPPER LIMIT):            1( 75,  4.0*R)

 ANGULAR INTEGRATION - INTERVALS (ACCURACY LEVEL [N. POINTS] UPPER LIMIT):
  1(  4[  86]   0.2)  2(  8[ 194]   0.5)  3( 12[ 350]   0.9)  4( 16[ 974]   3.5)
  5( 12[ 350]9999.0)
 TTTTTTTTTTTTTTTTTTTTTTTTTTTTTT INT_CALC    TELAPSE        7.43 TCPU        7.42
 EEEEEEEEEE INT_CALC TERMINATION  DATE 02 12 2025 TIME 08:06:36.3

 *******************************************************************************
 COF-5_z44_inc_L075                                                              
 CRYSTAL - SCF - TYPE OF CALCULATION :  RESTRICTED CLOSED SHELL
 *******************************************************************************

 CAPPA:IS1  2;IS2  2;IS3  8; K PTS MONK NET  20; SYMMOPS:K SPACE   2;G SPACE   1

 TTTTTTTTTTTTTTTTTTTTTTTTTTTTTT SDIK        TELAPSE        8.22 TCPU       14.91

 AAAAAAAAAAAAAAAAAAAAAAAAAAAAAAAAAAAAAAAAAAAAAAAAAAAAAAAAAAAAAAAAAAAAAAAAAAAAAAA
         ATOMIC WAVEFUNCTION(S)


 NUCLEAR CHARGE  5.0  SYMMETRY SPECIES            S    P
 N. ELECTRONS    5.0  NUMBER OF PRIMITIVE GTOS    8    4
                      NUMBER OF CONTRACTED GTOS   4    2
                      NUMBER OF CLOSED SHELLS     2    0
                      OPEN SHELL OCCUPATION       0    1

  ZNUC  SCFIT    TOTAL HF ENERGY   KINETIC ENERGY   VIRIAL THEOREM ACCURACY
   5.0    11    -2.451164084E+01  2.462155050E+01 -1.995536038E+00  1.5E-06

 NUCLEAR CHARGE  1.0  SYMMETRY SPECIES            S
 N. ELECTRONS    1.0  NUMBER OF PRIMITIVE GTOS    4
                      NUMBER OF CONTRACTED GTOS   2
                      NUMBER OF CLOSED SHELLS     0
                      OPEN SHELL OCCUPATION       1

  ZNUC  SCFIT    TOTAL HF ENERGY   KINETIC ENERGY   VIRIAL THEOREM ACCURACY
   1.0     1    -4.977266687E-01  5.190767460E-01 -1.958869132E+00  0.0E+00

 NUCLEAR CHARGE  6.0  SYMMETRY SPECIES            S    P
 N. ELECTRONS    6.0  NUMBER OF PRIMITIVE GTOS    8    4
                      NUMBER OF CONTRACTED GTOS   4    2
                      NUMBER OF CLOSED SHELLS     2    0
                      OPEN SHELL OCCUPATION       0    2

  ZNUC  SCFIT    TOTAL HF ENERGY   KINETIC ENERGY   VIRIAL THEOREM ACCURACY
   6.0     9    -3.766704647E+01  3.775180683E+01 -1.997754800E+00  1.1E-06

 NUCLEAR CHARGE  8.0  SYMMETRY SPECIES            S    P
 N. ELECTRONS    8.0  NUMBER OF PRIMITIVE GTOS    8    4
                      NUMBER OF CONTRACTED GTOS   4    2
                      NUMBER OF CLOSED SHELLS     2    0
                      OPEN SHELL OCCUPATION       0    4

  ZNUC  SCFIT    TOTAL HF ENERGY   KINETIC ENERGY   VIRIAL THEOREM ACCURACY
   8.0    12    -7.477373220E+01  7.477365593E+01 -2.000001020E+00  3.8E-06

 AAAAAAAAAAAAAAAAAAAAAAAAAAAAAAAAAAAAAAAAAAAAAAAAAAAAAAAAAAAAAAAAAAAAAAAAAAAAAAA

 CHARGE NORMALIZATION FACTOR   1.00000000
 TOTAL ATOMIC CHARGES:
   5.0000000   5.0000000   5.0000000   5.0000000   5.0000000   5.0000000
   1.0000000   1.0000000   1.0000000   1.0000000   1.0000000   1.0000000
   1.0000000   1.0000000   1.0000000   1.0000000   1.0000000   1.0000000
   6.0000000   6.0000000   6.0000000   6.0000000   6.0000000   6.0000000
   6.0000000   6.0000000   6.0000000   6.0000000   6.0000000   6.0000000
   6.0000000   6.0000000   6.0000000   6.0000000   6.0000000   6.0000000
   8.0000000   8.0000000   8.0000000   8.0000000   8.0000000   8.0000000
 TTTTTTTTTTTTTTTTTTTTTTTTTTTTTT MOQGAD      TELAPSE        8.30 TCPU       16.20
 TTTTTTTTTTTTTTTTTTTTTTTTTTTTTT SHELLXN     TELAPSE       13.06 TCPU      156.89
 TTTTTTTTTTTTTTTTTTTTTTTTTTTTTT MONMO3      TELAPSE       13.18 TCPU      160.72
 NUMERICALLY INTEGRATED DENSITY    197.9999569854
 TTTTTTTTTTTTTTTTTTTTTTTTTTTTTT NUMDFT      TELAPSE       13.71 TCPU      177.63
 CYC   0 ETOT(AU) -1.295945192532E+03 DETOT -1.30E+03 tst  0.00E+00 PX  1.00E+00
 TTTTTTTTTTTTTTTTTTTTTTTTTTTTTT DIIS        TELAPSE       13.74 TCPU      178.74
 TTTTTTTTTTTTTTTTTTTTTTTTTTTTTT FDIK        TELAPSE       14.24 TCPU      194.56
 INSULATING STATE
 TOP OF VALENCE BANDS -    BAND     99; K    1; EIG -3.1378900E-01 AU
 BOTTOM OF VIRTUAL BANDS - BAND    100; K    1; EIG -1.5663658E-01 AU
 DIRECT ENERGY BAND GAP:   4.2763 eV
 TTTTTTTTTTTTTTTTTTTTTTTTTTTTTT PDIG        TELAPSE       14.56 TCPU      200.73
 CHARGE NORMALIZATION FACTOR   1.00000000
 TOTAL ATOMIC CHARGES:
   4.1623927   4.1647598   4.1658680   4.1676001   4.1647213   4.1609993
   0.7850751   0.7850407   0.7851688   0.7852067   0.7851274   0.7850219
   0.7859990   0.7855577   0.7847890   0.7853749   0.7853736   0.7856183
   6.0430993   6.2648077   6.2648752   6.2658001   6.2645087   6.0452993
   6.0405878   6.2662164   6.2643487   6.2668157   6.2665900   6.0438902
   6.0422950   6.2649019   6.2657722   6.2653073   6.2669343   6.0398313
   8.6918196   8.6910242   8.6914714   8.6906855   8.6902102   8.6932137
 TTTTTTTTTTTTTTTTTTTTTTTTTTTTTT MOQGAD      TELAPSE       14.59 TCPU      200.77
 TTTTTTTTTTTTTTTTTTTTTTTTTTTTTT SHELLXN     TELAPSE       19.20 TCPU      347.39
 TTTTTTTTTTTTTTTTTTTTTTTTTTTTTT MONMO3      TELAPSE       19.32 TCPU      351.22
 NUMERICALLY INTEGRATED DENSITY    197.9999831651
 TTTTTTTTTTTTTTTTTTTTTTTTTTTTTT NUMDFT      TELAPSE       19.85 TCPU      368.17
 CYC   1 ETOT(AU) -1.288808760105E+03 DETOT  7.14E+00 tst  0.00E+00 PX  1.00E+00
 TTTTTTTTTTTTTTTTTTTTTTTTTTTTTT DIIS        TELAPSE       19.90 TCPU      369.73
 DIIS TEST: 0.11161E+01 AT SCF   CYCLE   1 - MIX   30 %
 TTTTTTTTTTTTTTTTTTTTTTTTTTTTTT FDIK        TELAPSE       20.41 TCPU      385.94
 INSULATING STATE
 TOP OF VALENCE BANDS -    BAND     99; K    1; EIG -2.2541959E-01 AU
 BOTTOM OF VIRTUAL BANDS - BAND    100; K    1; EIG -8.1121914E-02 AU
 DIRECT ENERGY BAND GAP:   3.9265 eV
 TTTTTTTTTTTTTTTTTTTTTTTTTTTTTT PDIG        TELAPSE       20.73 TCPU      392.11
 CHARGE NORMALIZATION FACTOR   1.00000000
 TOTAL ATOMIC CHARGES:
   4.7178031   4.7104658   4.7108460   4.7116969   4.7105449   4.7181091
   0.9086157   0.9090756   0.9096599   0.9095659   0.9082089   0.9078201
   0.9086114   0.9088554   0.9083824   0.9087177   0.9095200   0.9096174
   5.8697117   6.1387130   6.1371637   6.1313785   6.1326876   5.8656578
   5.8818669   6.1255323   6.1269651   6.1314842   6.1280433   5.8755427
   5.8703234   6.1340570   6.1364039   6.1329413   6.1306832   5.8721251
   8.3334984   8.3323688   8.3304852   8.3314546   8.3272494   8.3375469
 TTTTTTTTTTTTTTTTTTTTTTTTTTTTTT MOQGAD      TELAPSE       20.76 TCPU      392.14
 TTTTTTTTTTTTTTTTTTTTTTTTTTTTTT SHELLXN     TELAPSE       25.37 TCPU      538.93
 TTTTTTTTTTTTTTTTTTTTTTTTTTTTTT MONMO3      TELAPSE       25.49 TCPU      542.74
 NUMERICALLY INTEGRATED DENSITY    197.9999758857
 TTTTTTTTTTTTTTTTTTTTTTTTTTTTTT NUMDFT      TELAPSE       26.03 TCPU      559.90
 CYC   2 ETOT(AU) -1.289003995863E+03 DETOT -1.95E-01 tst  3.63E-03 PX  1.59E-01
 TTTTTTTTTTTTTTTTTTTTTTTTTTTTTT DIIS        TELAPSE       26.08 TCPU      561.40
 DIIS TEST: 0.46269E+00 AT SCF   CYCLE   2 - DIIS ACTIVE - HISTORY:     2 CYCLES
 TTTTTTTTTTTTTTTTTTTTTTTTTTTTTT FDIK        TELAPSE       26.58 TCPU      577.53
 INSULATING STATE
 TOP OF VALENCE BANDS -    BAND     99; K    1; EIG -2.3897395E-01 AU
 BOTTOM OF VIRTUAL BANDS - BAND    100; K    1; EIG -7.5725752E-02 AU
 DIRECT ENERGY BAND GAP:   4.4422 eV
 TTTTTTTTTTTTTTTTTTTTTTTTTTTTTT PDIG        TELAPSE       26.90 TCPU      583.71
 CHARGE NORMALIZATION FACTOR   1.00000000
 TOTAL ATOMIC CHARGES:
   4.5084698   4.5038490   4.5043941   4.5060469   4.5040227   4.5077442
   0.8875140   0.8873546   0.8879570   0.8880297   0.8856677   0.8854345
   0.8869584   0.8863003   0.8863761   0.8873935   0.8881674   0.8878286
   5.8890982   6.1601092   6.1605830   6.1604391   6.1605437   5.8908486
   5.8869921   6.1594704   6.1601358   6.1620384   6.1626367   5.8897828
   5.8901074   6.1597152   6.1603306   6.1616952   6.1616985   5.8892165
   8.5089094   8.5082378   8.5106240   8.5074601   8.5088523   8.5109667
 TTTTTTTTTTTTTTTTTTTTTTTTTTTTTT MOQGAD      TELAPSE       26.94 TCPU      583.75
 TTTTTTTTTTTTTTTTTTTTTTTTTTTTTT SHELLXN     TELAPSE       31.56 TCPU      730.57
 TTTTTTTTTTTTTTTTTTTTTTTTTTTTTT MONMO3      TELAPSE       31.68 TCPU      734.42
 NUMERICALLY INTEGRATED DENSITY    197.9999780914
 TTTTTTTTTTTTTTTTTTTTTTTTTTTTTT NUMDFT      TELAPSE       32.21 TCPU      751.43
 CYC   3 ETOT(AU) -1.289099493347E+03 DETOT -9.55E-02 tst  6.53E-04 PX  6.39E-02
 TTTTTTTTTTTTTTTTTTTTTTTTTTTTTT DIIS        TELAPSE       32.28 TCPU      753.59
 DIIS TEST: 0.13178E-01 AT SCF   CYCLE   3 - DIIS ACTIVE - HISTORY:     3 CYCLES
 TTTTTTTTTTTTTTTTTTTTTTTTTTTTTT FDIK        TELAPSE       32.79 TCPU      769.89
 INSULATING STATE
 TOP OF VALENCE BANDS -    BAND     99; K    1; EIG -2.4830278E-01 AU
 BOTTOM OF VIRTUAL BANDS - BAND    100; K    1; EIG -8.4213927E-02 AU
 DIRECT ENERGY BAND GAP:   4.4651 eV
 TTTTTTTTTTTTTTTTTTTTTTTTTTTTTT PDIG        TELAPSE       33.11 TCPU      776.06
 CHARGE NORMALIZATION FACTOR   1.00000000
 TOTAL ATOMIC CHARGES:
   4.5139685   4.5089884   4.5094822   4.5108237   4.5087123   4.5133826
   0.8700390   0.8703871   0.8708632   0.8710288   0.8690483   0.8690085
   0.8700983   0.8701393   0.8695480   0.8702449   0.8712531   0.8710940
   5.9403251   6.1694586   6.1679692   6.1653635   6.1649693   5.9377659
   5.9463712   6.1630640   6.1624127   6.1661217   6.1632121   5.9421011
   5.9396192   6.1670021   6.1684362   6.1655883   6.1650403   5.9400467
   8.4774003   8.4763130   8.4748748   8.4757293   8.4722622   8.4804431
 TTTTTTTTTTTTTTTTTTTTTTTTTTTTTT MOQGAD      TELAPSE       33.14 TCPU      776.10
 TTTTTTTTTTTTTTTTTTTTTTTTTTTTTT SHELLXN     TELAPSE       37.75 TCPU      922.92
 TTTTTTTTTTTTTTTTTTTTTTTTTTTTTT MONMO3      TELAPSE       37.87 TCPU      926.78
 NUMERICALLY INTEGRATED DENSITY    197.9999782834
 TTTTTTTTTTTTTTTTTTTTTTTTTTTTTT NUMDFT      TELAPSE       38.41 TCPU      943.83
 CYC   4 ETOT(AU) -1.289102254054E+03 DETOT -2.76E-03 tst  2.83E-05 PX  1.34E-02
 TTTTTTTTTTTTTTTTTTTTTTTTTTTTTT DIIS        TELAPSE       38.47 TCPU      945.69
 DIIS TEST: 0.39599E-02 AT SCF   CYCLE   4 - DIIS ACTIVE - HISTORY:     4 CYCLES
 TTTTTTTTTTTTTTTTTTTTTTTTTTTTTT FDIK        TELAPSE       38.97 TCPU      961.81
 INSULATING STATE
 TOP OF VALENCE BANDS -    BAND     99; K    1; EIG -2.4656459E-01 AU
 BOTTOM OF VIRTUAL BANDS - BAND    100; K    1; EIG -8.3929550E-02 AU
 DIRECT ENERGY BAND GAP:   4.4255 eV
 TTTTTTTTTTTTTTTTTTTTTTTTTTTTTT PDIG        TELAPSE       39.29 TCPU      967.99
 CHARGE NORMALIZATION FACTOR   1.00000000
 TOTAL ATOMIC CHARGES:
   4.5168617   4.5110056   4.5115307   4.5129990   4.5110452   4.5163674
   0.8733981   0.8733772   0.8739852   0.8740086   0.8720778   0.8717860
   0.8732019   0.8727179   0.8725774   0.8734447   0.8742188   0.8740297
   5.9201177   6.1679749   6.1680012   6.1657311   6.1660187   5.9207895
   5.9225157   6.1634815   6.1642528   6.1663373   6.1661171   5.9234426
   5.9211048   6.1667032   6.1675955   6.1667690   6.1662345   5.9205839
   8.4866205   8.4857789   8.4865570   8.4849933   8.4845805   8.4890662
 TTTTTTTTTTTTTTTTTTTTTTTTTTTTTT MOQGAD      TELAPSE       39.33 TCPU      968.03
 TTTTTTTTTTTTTTTTTTTTTTTTTTTTTT SHELLXN     TELAPSE       43.96 TCPU     1115.45
 TTTTTTTTTTTTTTTTTTTTTTTTTTTTTT MONMO3      TELAPSE       44.08 TCPU     1119.27
 NUMERICALLY INTEGRATED DENSITY    197.9999783236
 TTTTTTTTTTTTTTTTTTTTTTTTTTTTTT NUMDFT      TELAPSE       44.60 TCPU     1135.86
 CYC   5 ETOT(AU) -1.289103161014E+03 DETOT -9.07E-04 tst  6.79E-06 PX  6.85E-03
 TTTTTTTTTTTTTTTTTTTTTTTTTTTTTT DIIS        TELAPSE       44.67 TCPU     1138.02
 DIIS TEST: 0.66799E-04 AT SCF   CYCLE   5 - DIIS ACTIVE - HISTORY:     5 CYCLES
 TTTTTTTTTTTTTTTTTTTTTTTTTTTTTT FDIK        TELAPSE       45.16 TCPU     1153.79
 INSULATING STATE
 TOP OF VALENCE BANDS -    BAND     99; K    1; EIG -2.4641802E-01 AU
 BOTTOM OF VIRTUAL BANDS - BAND    100; K    1; EIG -8.3362707E-02 AU
 DIRECT ENERGY BAND GAP:   4.4370 eV
 TTTTTTTTTTTTTTTTTTTTTTTTTTTTTT PDIG        TELAPSE       45.48 TCPU     1159.96
 CHARGE NORMALIZATION FACTOR   1.00000000
 TOTAL ATOMIC CHARGES:
   4.5162485   4.5110365   4.5115466   4.5129670   4.5109539   4.5156405
   0.8741210   0.8743645   0.8747933   0.8749572   0.8728383   0.8727896
   0.8738983   0.8738088   0.8734866   0.8742445   0.8751309   0.8748988
   5.9213194   6.1682100   6.1670711   6.1656139   6.1651246   5.9195157
   5.9242738   6.1638163   6.1631885   6.1668825   6.1645956   5.9213551
   5.9206592   6.1662250   6.1674539   6.1660046   6.1658007   5.9210055
   8.4863940   8.4854547   8.4853772   8.4848516   8.4828642   8.4892180
 TTTTTTTTTTTTTTTTTTTTTTTTTTTTTT MOQGAD      TELAPSE       45.52 TCPU     1160.00
 TTTTTTTTTTTTTTTTTTTTTTTTTTTTTT SHELLXN     TELAPSE       50.14 TCPU     1307.30
 TTTTTTTTTTTTTTTTTTTTTTTTTTTTTT MONMO3      TELAPSE       50.26 TCPU     1311.13
 NUMERICALLY INTEGRATED DENSITY    197.9999782833
 TTTTTTTTTTTTTTTTTTTTTTTTTTTTTT NUMDFT      TELAPSE       50.79 TCPU     1327.99
 CYC   6 ETOT(AU) -1.289103179799E+03 DETOT -1.88E-05 tst  1.81E-07 PX  1.05E-03
 TTTTTTTTTTTTTTTTTTTTTTTTTTTTTT DIIS        TELAPSE       50.86 TCPU     1330.11
 DIIS TEST: 0.87504E-05 AT SCF   CYCLE   6 - DIIS ACTIVE - HISTORY:     6 CYCLES
 TTTTTTTTTTTTTTTTTTTTTTTTTTTTTT FDIK        TELAPSE       51.36 TCPU     1346.05
 INSULATING STATE
 TOP OF VALENCE BANDS -    BAND     99; K    1; EIG -2.4639447E-01 AU
 BOTTOM OF VIRTUAL BANDS - BAND    100; K    1; EIG -8.3434833E-02 AU
 DIRECT ENERGY BAND GAP:   4.4344 eV
 TTTTTTTTTTTTTTTTTTTTTTTTTTTTTT PDIG        TELAPSE       51.67 TCPU     1352.23
 CHARGE NORMALIZATION FACTOR   1.00000000
 TOTAL ATOMIC CHARGES:
   4.5165899   4.5109981   4.5115289   4.5129884   4.5110043   4.5160496
   0.8742271   0.8742438   0.8748559   0.8748901   0.8729189   0.8726540
   0.8740352   0.8736126   0.8734315   0.8742822   0.8750985   0.8749148
   5.9204364   6.1674473   6.1673063   6.1650559   6.1653340   5.9208227
   5.9230327   6.1628908   6.1635520   6.1657785   6.1652585   5.9234375
   5.9212920   6.1660550   6.1670448   6.1660753   6.1654765   5.9208018
   8.4862628   8.4853714   8.4858029   8.4846031   8.4837902   8.4887481
 TTTTTTTTTTTTTTTTTTTTTTTTTTTTTT MOQGAD      TELAPSE       51.71 TCPU     1352.27
 TTTTTTTTTTTTTTTTTTTTTTTTTTTTTT SHELLXN     TELAPSE       56.34 TCPU     1499.32
 TTTTTTTTTTTTTTTTTTTTTTTTTTTTTT MONMO3      TELAPSE       56.46 TCPU     1503.18
 NUMERICALLY INTEGRATED DENSITY    197.9999782888
 TTTTTTTTTTTTTTTTTTTTTTTTTTTTTT NUMDFT      TELAPSE       57.00 TCPU     1520.20
 CYC   7 ETOT(AU) -1.289103180884E+03 DETOT -1.08E-06 tst  7.66E-08 PX  4.51E-04
 TTTTTTTTTTTTTTTTTTTTTTTTTTTTTT DIIS        TELAPSE       57.08 TCPU     1522.81
 DIIS TEST: 0.18321E-05 AT SCF   CYCLE   7 - DIIS ACTIVE - HISTORY:     7 CYCLES
 TTTTTTTTTTTTTTTTTTTTTTTTTTTTTT FDIK        TELAPSE       57.58 TCPU     1538.68
 INSULATING STATE
 TOP OF VALENCE BANDS -    BAND     99; K    1; EIG -2.4640095E-01 AU
 BOTTOM OF VIRTUAL BANDS - BAND    100; K    1; EIG -8.3449307E-02 AU
 DIRECT ENERGY BAND GAP:   4.4341 eV
 TTTTTTTTTTTTTTTTTTTTTTTTTTTTTT PDIG        TELAPSE       57.89 TCPU     1544.86
 CHARGE NORMALIZATION FACTOR   1.00000000
 TOTAL ATOMIC CHARGES:
   4.5166199   4.5110728   4.5115940   4.5130401   4.5110483   4.5160642
   0.8741530   0.8742541   0.8747920   0.8748857   0.8728455   0.8726714
   0.8739460   0.8736464   0.8734149   0.8742361   0.8750818   0.8748659
   5.9208111   6.1676967   6.1671859   6.1652584   6.1651690   5.9203062
   5.9235581   6.1632112   6.1633253   6.1661462   6.1649694   5.9226716
   5.9210253   6.1661001   6.1671377   6.1659682   6.1656081   5.9209196
   8.4862950   8.4854117   8.4857932   8.4847126   8.4835561   8.4889311
 TTTTTTTTTTTTTTTTTTTTTTTTTTTTTT MOQGAD      TELAPSE       57.93 TCPU     1544.90
 TTTTTTTTTTTTTTTTTTTTTTTTTTTTTT SHELLXN     TELAPSE       62.55 TCPU     1691.90
 TTTTTTTTTTTTTTTTTTTTTTTTTTTTTT MONMO3      TELAPSE       62.67 TCPU     1695.75
 NUMERICALLY INTEGRATED DENSITY    197.9999782889
 TTTTTTTTTTTTTTTTTTTTTTTTTTTTTT NUMDFT      TELAPSE       63.21 TCPU     1712.95
 CYC   8 ETOT(AU) -1.289103181236E+03 DETOT -3.52E-07 tst  1.18E-08 PX  1.79E-04
 TTTTTTTTTTTTTTTTTTTTTTTTTTTTTT DIIS        TELAPSE       63.29 TCPU     1715.59
 DIIS TEST: 0.54474E-07 AT SCF   CYCLE   8 - DIIS ACTIVE - HISTORY:     8 CYCLES
 TTTTTTTTTTTTTTTTTTTTTTTTTTTTTT FDIK        TELAPSE       63.80 TCPU     1731.75
 INSULATING STATE
 TOP OF VALENCE BANDS -    BAND     99; K    1; EIG -2.4640698E-01 AU
 BOTTOM OF VIRTUAL BANDS - BAND    100; K    1; EIG -8.3441075E-02 AU
 DIRECT ENERGY BAND GAP:   4.4345 eV
 TTTTTTTTTTTTTTTTTTTTTTTTTTTTTT PDIG        TELAPSE       64.12 TCPU     1737.92
 CHARGE NORMALIZATION FACTOR   1.00000000
 TOTAL ATOMIC CHARGES:
   4.5165760   4.5110742   4.5115934   4.5130393   4.5110468   4.5160207
   0.8741483   0.8742438   0.8747903   0.8748676   0.8728459   0.8726545
   0.8739428   0.8736343   0.8734089   0.8742272   0.8750641   0.8748653
   5.9207048   6.1677166   6.1672303   6.1652465   6.1652665   5.9203517
   5.9234152   6.1632135   6.1634327   6.1661683   6.1650389   5.9226873
   5.9210462   6.1661180   6.1671908   6.1660602   6.1655887   5.9208392
   8.4863356   8.4854283   8.4857051   8.4847159   8.4835230   8.4889333
 TTTTTTTTTTTTTTTTTTTTTTTTTTTTTT MOQGAD      TELAPSE       64.16 TCPU     1737.96
 TTTTTTTTTTTTTTTTTTTTTTTTTTTTTT SHELLXN     TELAPSE       68.78 TCPU     1884.91
 +++ ENERGIES IN A.U. +++
 ::: EXT EL-POLE                                  -1.2145823093394E+03
 ::: EXT EL-SPHEROPOLE                             1.2975540980647E+01
 ::: BIELET ZONE E-E                               1.9322162087332E+03
 ::: TOTAL E-E                                     7.3060944037447E+02
 ::: TOTAL E-N + N-E                              -3.2934967640257E+03
 ::: TOTAL N-N                                     1.2756202948832E+02
 ::: KINETIC ENERGY                                1.2799407959759E+03
 ::: PSEUDO TOTAL   ENERGY                        -1.1553844981869E+03
 ::: VIRIAL COEFFICIENT                            1.0511456510913E+00
 TTTTTTTTTTTTTTTTTTTTTTTTTTTTTT MONMO3      TELAPSE       68.90 TCPU     1888.75
 NUMERICALLY INTEGRATED DENSITY    197.9999782882
 EXCHANGE ENERGY: -0.126029181099E+03  CORRELATION ENERGY: -0.768950203857E+01
 TTTTTTTTTTTTTTTTTTTTTTTTTTTTTT NUMDFT      TELAPSE       69.44 TCPU     1905.90
 CYC   9 ETOT(AU) -1.289103181325E+03 DETOT -8.82E-08 tst  1.86E-10 PX  1.79E-04

 == SCF ENDED - CONVERGENCE ON ENERGY      E(AU) -1.2891031813246E+03 CYCLES   9


 ENERGY EXPRESSION=HARTREE+FOCK EXCH*0.00000+(HSESOL     EXCH)*1.00000+PBESOL     CORR


 TOTAL ENERGY(DFT)(AU)(  9) -1.2891031813246E+03 DE-8.8E-08 tester 1.9E-10
 TTTTTTTTTTTTTTTTTTTTTTTTTTTTTT EDFT        TELAPSE       69.44 TCPU     1905.91
 
 INFORMATION **** DFTD3 ENERGY **** CALCULATE DFTD3 ENERGY

           DFT-D V3(BJ)
 DF                                         hsesol3c  
 parameters
 s6       :    1.0000
 s8       :    0.0000
 a1       :    0.5196
 a2       :    4.9385
 k1 k3    :   16.0000   -4.0000
 Cutoff   :   50.2022
 CN-Cutoff:   21.1671
 ABC-Cutoff:   21.1671
 
 Edisp /kcal,au:   -21.2640 -0.03388633

 E6    /kcal :   -22.1992
 E8    /kcal :     0.0000
 E6(ABC) "   :   0.935185
 
 INFORMATION **** DFTD3 ENERGY **** NORMAL TERMINATION OF DFTD3 MODULE

 GCP ENERGY CALCULATION
  level        hsesol3c            basis:hsesol3c
  Nbf            474
  Atoms           42

  Parameters: 
  sigma     1.0000
  eta       1.4281
  alpha     0.2936
  beta      1.9467

  dmp_scal      4.0000
  dmp_exp       6.0000
 cutoffs: 
   distance [bohr] 60.0
   noise    [a.u.] 2.2E-16
 SR-damping   T
 ** gCP correction **
  Egcp:        0.0829422704 / (a.u.) ||      52.0471 / (kcal/mol)
 INFORMATION **** GCP **** NORMAL TERMINATION OF GCP MODULE

 *******************************************************************************

 DFT-D3-GCP DISPERSION AND COUNTERPOISE CORRECTION

 D3 DISPERSION ENERGY (AU)      -3.3886334695046E-02
 GCP ENERGY (AU)                 8.2942270383289E-02
 TOTAL ENERGY + DISP + GCP (AU) -1.2890541253889E+03

 *******************************************************************************

 EIGENVECTORS IN FORTRAN UNIT 10
 TTTTTTTTTTTTTTTTTTTTTTTTTTTTTT END         TELAPSE       70.67 TCPU     1913.12
 EEEEEEEEEE TERMINATION  DATE 02 12 2025 TIME 08:07:39.5
