 Default number of threads is:           32

         
 *******************************************************************************
 *                                                                             *
 *                               CRYSTAL23                                     *
 *                      public : 1.0.1 - October 2022                          *
 *                       HTTP://WWW.CRYSTAL.UNITO.IT                           *
 *                                                                             *
 *                              MAIN AUTHORS                                   *
 *                                                                             *
 *  R. DOVESI(1,11), V.R. SAUNDERS(2), C. ROETTI(1,11), R. ORLANDO(1,11),      *
 *  C.M. ZICOVICH-WILSON(1,3), F. PASCALE(4), B. CIVALLERI(1,11),              *
 *  K. DOLL(5), N.M. HARRISON(6), I.J. BUSH(7), Ph. D'ARCO(8),                 *
 *  M. LLUNELL(9), M. CAUSA'(10), Y. NOEL(8), L. MASCHIO(1,11), A. ERBA(1,11)  *
 *  M. RE'RAT(14), S. CASASSA(1,11), B.G. SEARLE(2), J.K. DESMARAIS(1)         *
 *                                                                             *
 *        CONTRIBUTIONS TO THE CODE HAVE ALSO BEEN GIVEN BY                    *
 *                                                                             *
 *  M. FERRABONE(1,11), M. DE LA PIERRE(1,11), M. FERRERO(1,11),               *
 *  J. BAIMA(1,11), E. ALBANESE(1,11), M.F. PEINTINGER(12), R. BAST(13),       *
 *  B. KIRTMAN(15), V. LACIVITA(1,11), R. DEMICHELIS(1,16)                     *
 *  G. BRANDEBURG(17), S. SALUSTRO(1,11), G. SANSONE(1,11)                     *
 *  M.T. RUGGIERO(18), L.E. DAGA(1), L. DONA'(1), A. COSSARD(1)                *
 *                                                                             *
 * (1) THEORETICAL CHEMISTRY GROUP - UNIVERSITA' DI TORINO - TORINO (ITALY)    *
 * (2) SCIENTIFIC COMPUTING DEPARTMENT - STFC DARESBURY (UK)                   *
 * (3) UNIVERSIDAD AUTONOMA DEL ESTADO DE MORELOS - CUERNAVACA (MEXICO)        *
 * (4) UNIVERSITE' DE LORRAINE - NANCY (FRANCE)                                *
 * (5) UNIVERSITAET STUTTGART- STUTTGART (GERMANY)                             *
 * (6) IMPERIAL COLLEGE - LONDON (UK)                                          *
 * (7) SCIENTIFIC COMPUTING DEPARTMENT - STFC RAL (UK)                         *
 * (8) UPMC - SORBONNE UNIVERSITES - PARIS (FRANCE)                            *
 * (9) UNIVERSIDAD DE BARCELONA - BARCELONA (SPAIN)                            *
 *(10) UNIVERSITA' DI NAPOLI "FEDERICO II" - NAPOLI (ITALY)                    *
 *(11) NIS - NANOSTRUCTURED INTERFACES AND SURFACES - TORINO (ITALY)           *
 *(12) MPI FUER CHEMISCHE ENERGIEKONVERSION - MUELHEIM AN DER RUHR (GERMANY)   *
 *(13) UNIVERSITY OF TROMSO - TROMSO (NORWAY)                                  *
 *(14) UNIVERSITE' DE PAU ET DES PAYS DE L'ADOUR - PAU (FRANCE)                *
 *(15) UNIVERSITY OF CALIFORNIA SANTA BARBARA - SANTA BARBARA (USA)            *
 *(16) CURTIN UNIVERSITY - PERTH (AUSTRALIA)                                   *
 *(17) UNIVERSITY COLLEGE LONDON - LONDON (UK)                                 *
 *(18) UNIVERSITY OF VERMONT - BURLINGTON (USA)                                *
 *                                                                             *
 *******************************************************************************
 EEEEEEEEEE STARTING  DATE 02 12 2025 TIME 08:03:53.2
 COF-5_z40_inc_L020                                                              

 CRYSTAL CALCULATION
 (INPUT ACCORDING TO THE INTERNATIONAL TABLES FOR X-RAY CRYSTALLOGRAPHY)
 CRYSTAL FAMILY                       :  TRICLINIC   
 CRYSTAL CLASS  (GROTH - 1921)        :  TRICLINIC PEDIAL                     

 SPACE GROUP (NONCENTROSYMMETRIC)     :  P 1             

 LATTICE PARAMETERS  (ANGSTROMS AND DEGREES) - CONVENTIONAL CELL
        A           B           C        ALPHA        BETA       GAMMA
    15.02070    15.04439     4.47214    67.22960    89.99936   120.05310


 NUMBER OF IRREDUCIBLE ATOMS IN THE CONVENTIONAL CELL:   42

 INPUT COORDINATES

 ATOM AT. N.              COORDINATES
   1   5     5.770466600000E-01  1.511803900000E-01  5.006552400000E-01
   2   5     7.358252900000E-01  3.102055800000E-01  5.006652300000E-01
   3   5     5.767037500000E-01  3.101126000000E-01  4.992352500000E-01
   4   5     1.898507800000E-01  5.367278700000E-01  5.054502600000E-01
   5   5     3.481138300000E-01  5.356059500000E-01  5.094941700000E-01
   6   5     3.488459700000E-01  6.958607100000E-01  5.035285100000E-01
   7   1     8.655513300000E-01  2.320551700000E-01  5.045536600000E-01
   8   1     6.089216000000E-02  6.157267000000E-01  4.929632800000E-01
   9   1     8.665205300000E-01  5.184484600000E-01  4.928249800000E-01
  10   1     6.002395000000E-02  3.293352000000E-01  5.041222300000E-01
  11   1     5.555540100000E-01  8.257832100000E-01  5.042443000000E-01
  12   1     3.701576800000E-01  2.267203000000E-02  4.945955100000E-01
  13   1     2.717167200000E-01  8.287594700000E-01  4.959023600000E-01
  14   1     6.537989700000E-01  1.975911000000E-02  5.023829600000E-01
  15   1     5.556479600000E-01  6.141088500000E-01  4.977998500000E-01
  16   1     3.676995700000E-01  2.312234900000E-01  5.060830100000E-01
  17   1     2.703636300000E-01  3.272010000000E-01  5.057181300000E-01
  18   1     6.533674600000E-01  5.181062400000E-01  4.987333000000E-01
  19   6     8.551370600000E-01  3.696730700000E-01  5.004152400000E-01
  20   6     9.095252100000E-01  3.162253300000E-01  5.021813400000E-01
  21   6     1.703479000000E-02  5.315435200000E-01  4.957884200000E-01
  22   6     9.100303400000E-01  4.779668300000E-01  4.961255800000E-01
  23   6     1.660544000000E-02  3.698891500000E-01  5.015376300000E-01
  24   6     7.127494000000E-02  4.778965800000E-01  4.993543500000E-01
  25   6     4.079347500000E-01  8.154874100000E-01  5.018967100000E-01
  26   6     5.157779500000E-01  8.699095200000E-01  5.022868800000E-01
  27   6     4.097249600000E-01 -2.173501000000E-02  4.970105000000E-01
  28   6     3.555204700000E-01  8.711379600000E-01  4.981291800000E-01
  29   6     5.699719900000E-01 -2.300318000000E-02  5.008494800000E-01
  30   6     5.174176400000E-01  3.223953000000E-02  4.992252100000E-01
  31   6     4.076817900000E-01  4.767257800000E-01  4.999964300000E-01
  32   6     5.155734600000E-01  5.300654700000E-01  4.994449500000E-01
  33   6     4.083874000000E-01  3.153412700000E-01  5.039684900000E-01
  34   6     3.545327800000E-01  3.684802400000E-01  5.033605500000E-01
  35   6     5.693148100000E-01  4.768568200000E-01  5.003833100000E-01
  36   6     5.164645300000E-01  3.689427800000E-01  5.016251600000E-01
  37   8     5.240092900000E-01  2.041540500000E-01  4.996251200000E-01
  38   8     6.829383900000E-01  2.039920200000E-01  5.026151700000E-01
  39   8     6.828950100000E-01  3.634299900000E-01  4.980954500000E-01
  40   8     2.428965200000E-01  6.430024400000E-01  5.027618500000E-01
  41   8     2.420798900000E-01  4.827907800000E-01  5.102496200000E-01
  42   8     4.015146000000E-01  6.423331600000E-01  5.052335900000E-01

 *******************************************************************************

 << INFORMATION >>: FROM NOW ON, ALL COORDINATES REFER TO THE PRIMITIVE CELL

 *******************************************************************************

 LATTICE PARAMETERS  (ANGSTROMS AND DEGREES) - PRIMITIVE CELL
       A          B          C        ALPHA      BETA     GAMMA        VOLUME
   15.02070   15.04439    4.47214    67.22960  89.99936 120.05310    782.412148

 COORDINATES OF THE EQUIVALENT ATOMS (FRACTIONAL UNITS)

 N. ATOM EQUIV AT. N.          X                  Y                  Z

   1   1   1    5 B    -4.22953340000E-01  1.51180390000E-01 -4.99344760000E-01

   2   2   1    5 B    -2.64174710000E-01  3.10205580000E-01 -4.99334770000E-01

   3   3   1    5 B    -4.23296250000E-01  3.10112600000E-01  4.99235250000E-01

   4   4   1    5 B     1.89850780000E-01 -4.63272130000E-01 -4.94549740000E-01

   5   5   1    5 B     3.48113830000E-01 -4.64394050000E-01 -4.90505830000E-01

   6   6   1    5 B     3.48845970000E-01 -3.04139290000E-01 -4.96471490000E-01

   7   7   1    1 H    -1.34448670000E-01  2.32055170000E-01 -4.95446340000E-01

   8   8   1    1 H     6.08921600000E-02 -3.84273300000E-01  4.92963280000E-01

   9   9   1    1 H    -1.33479470000E-01 -4.81551540000E-01  4.92824980000E-01

  10  10   1    1 H     6.00239500000E-02  3.29335200000E-01 -4.95877770000E-01

  11  11   1    1 H    -4.44445990000E-01 -1.74216790000E-01 -4.95755700000E-01

  12  12   1    1 H     3.70157680000E-01  2.26720300000E-02  4.94595510000E-01

  13  13   1    1 H     2.71716720000E-01 -1.71240530000E-01  4.95902360000E-01

  14  14   1    1 H    -3.46201030000E-01  1.97591100000E-02 -4.97617040000E-01

  15  15   1    1 H    -4.44352040000E-01 -3.85891150000E-01  4.97799850000E-01

  16  16   1    1 H     3.67699570000E-01  2.31223490000E-01 -4.93916990000E-01

  17  17   1    1 H     2.70363630000E-01  3.27201000000E-01 -4.94281870000E-01

  18  18   1    1 H    -3.46632540000E-01 -4.81893760000E-01  4.98733300000E-01

  19  19   1    6 C    -1.44862940000E-01  3.69673070000E-01 -4.99584760000E-01

  20  20   1    6 C    -9.04747900000E-02  3.16225330000E-01 -4.97818660000E-01

  21  21   1    6 C     1.70347900000E-02 -4.68456480000E-01  4.95788420000E-01

  22  22   1    6 C    -8.99696600000E-02  4.77966830000E-01  4.96125580000E-01

  23  23   1    6 C     1.66054400000E-02  3.69889150000E-01 -4.98462370000E-01

  24  24   1    6 C     7.12749400000E-02  4.77896580000E-01  4.99354350000E-01

  25  25   1    6 C     4.07934750000E-01 -1.84512590000E-01 -4.98103290000E-01

  26  26   1    6 C    -4.84222050000E-01 -1.30090480000E-01 -4.97713120000E-01

  27  27   1    6 C     4.09724960000E-01 -2.17350100000E-02  4.97010500000E-01

  28  28   1    6 C     3.55520470000E-01 -1.28862040000E-01  4.98129180000E-01

  29  29   1    6 C    -4.30028010000E-01 -2.30031800000E-02 -4.99150520000E-01

  30  30   1    6 C    -4.82582360000E-01  3.22395300000E-02  4.99225210000E-01

  31  31   1    6 C     4.07681790000E-01  4.76725780000E-01  4.99996430000E-01

  32  32   1    6 C    -4.84426540000E-01 -4.69934530000E-01  4.99444950000E-01

  33  33   1    6 C     4.08387400000E-01  3.15341270000E-01 -4.96031510000E-01

  34  34   1    6 C     3.54532780000E-01  3.68480240000E-01 -4.96639450000E-01

  35  35   1    6 C    -4.30685190000E-01  4.76856820000E-01 -4.99616690000E-01

  36  36   1    6 C    -4.83535470000E-01  3.68942780000E-01 -4.98374840000E-01

  37  37   1    8 O    -4.75990710000E-01  2.04154050000E-01  4.99625120000E-01

  38  38   1    8 O    -3.17061610000E-01  2.03992020000E-01 -4.97384830000E-01

  39  39   1    8 O    -3.17104990000E-01  3.63429990000E-01  4.98095450000E-01

  40  40   1    8 O     2.42896520000E-01 -3.56997560000E-01 -4.97238150000E-01

  41  41   1    8 O     2.42079890000E-01  4.82790780000E-01 -4.89750380000E-01

  42  42   1    8 O     4.01514600000E-01 -3.57666840000E-01 -4.94766410000E-01

 NUMBER OF SYMMETRY OPERATORS         :    1
 *******************************************************************************
 * GEOMETRY EDITING - INPUT COORDINATES ARE GIVEN IN ANGSTROM         
 *******************************************************************************

 GCALCO - MAX INDICES DIRECT LATTICE VECTOR    10    10    31
 NO.OF VECTORS CREATED 6999 STARS 3500 RMAX   206.14282 BOHR

 GEOMETRY FOR WAVE FUNCTION - DIMENSIONALITY OF THE SYSTEM    3
 (NON PERIODIC DIRECTION: LATTICE PARAMETER FORMALLY SET TO 500)
 *******************************************************************************
 LATTICE PARAMETERS (ANGSTROMS AND DEGREES) - BOHR = 0.5291772083 ANGSTROM
 PRIMITIVE CELL - CENTRING CODE 1/0 VOLUME=   782.412148 - DENSITY  0.828 g/cm^3
         A              B              C           ALPHA      BETA       GAMMA 
    15.02070100    15.04438700     4.47213600    67.229597  89.999362 120.053104
 *******************************************************************************
 ATOMS IN THE ASYMMETRIC UNIT   42 - ATOMS IN THE UNIT CELL:   42
     ATOM                 X/A                 Y/B                 Z/C    
 *******************************************************************************
      1 T   5 B    -4.229533400000E-01  1.511803900000E-01 -4.993447600000E-01
      2 T   5 B    -2.641747100000E-01  3.102055800000E-01 -4.993347700000E-01
      3 T   5 B    -4.232962500000E-01  3.101126000000E-01  4.992352500000E-01
      4 T   5 B     1.898507800000E-01 -4.632721300000E-01 -4.945497400000E-01
      5 T   5 B     3.481138300000E-01 -4.643940500000E-01 -4.905058300000E-01
      6 T   5 B     3.488459700000E-01 -3.041392900000E-01 -4.964714900000E-01
      7 T   1 H    -1.344486700000E-01  2.320551700000E-01 -4.954463400000E-01
      8 T   1 H     6.089216000000E-02 -3.842733000000E-01  4.929632800000E-01
      9 T   1 H    -1.334794700000E-01 -4.815515400000E-01  4.928249800000E-01
     10 T   1 H     6.002395000000E-02  3.293352000000E-01 -4.958777700000E-01
     11 T   1 H    -4.444459900000E-01 -1.742167900000E-01 -4.957557000000E-01
     12 T   1 H     3.701576800000E-01  2.267203000000E-02  4.945955100000E-01
     13 T   1 H     2.717167200000E-01 -1.712405300000E-01  4.959023600000E-01
     14 T   1 H    -3.462010300000E-01  1.975911000000E-02 -4.976170400000E-01
     15 T   1 H    -4.443520400000E-01 -3.858911500000E-01  4.977998500000E-01
     16 T   1 H     3.676995700000E-01  2.312234900000E-01 -4.939169900000E-01
     17 T   1 H     2.703636300000E-01  3.272010000000E-01 -4.942818700000E-01
     18 T   1 H    -3.466325400000E-01 -4.818937600000E-01  4.987333000000E-01
     19 T   6 C    -1.448629400000E-01  3.696730700000E-01 -4.995847600000E-01
     20 T   6 C    -9.047479000000E-02  3.162253300000E-01 -4.978186600000E-01
     21 T   6 C     1.703479000000E-02 -4.684564800000E-01  4.957884200000E-01
     22 T   6 C    -8.996966000000E-02  4.779668300000E-01  4.961255800000E-01
     23 T   6 C     1.660544000000E-02  3.698891500000E-01 -4.984623700000E-01
     24 T   6 C     7.127494000000E-02  4.778965800000E-01  4.993543500000E-01
     25 T   6 C     4.079347500000E-01 -1.845125900000E-01 -4.981032900000E-01
     26 T   6 C    -4.842220500000E-01 -1.300904800000E-01 -4.977131200000E-01
     27 T   6 C     4.097249600000E-01 -2.173501000000E-02  4.970105000000E-01
     28 T   6 C     3.555204700000E-01 -1.288620400000E-01  4.981291800000E-01
     29 T   6 C    -4.300280100000E-01 -2.300318000000E-02 -4.991505200000E-01
     30 T   6 C    -4.825823600000E-01  3.223953000000E-02  4.992252100000E-01
     31 T   6 C     4.076817900000E-01  4.767257800000E-01  4.999964300000E-01
     32 T   6 C    -4.844265400000E-01 -4.699345300000E-01  4.994449500000E-01
     33 T   6 C     4.083874000000E-01  3.153412700000E-01 -4.960315100000E-01
     34 T   6 C     3.545327800000E-01  3.684802400000E-01 -4.966394500000E-01
     35 T   6 C    -4.306851900000E-01  4.768568200000E-01 -4.996166900000E-01
     36 T   6 C    -4.835354700000E-01  3.689427800000E-01 -4.983748400000E-01
     37 T   8 O    -4.759907100000E-01  2.041540500000E-01  4.996251200000E-01
     38 T   8 O    -3.170616100000E-01  2.039920200000E-01 -4.973848300000E-01
     39 T   8 O    -3.171049900000E-01  3.634299900000E-01  4.980954500000E-01
     40 T   8 O     2.428965200000E-01 -3.569975600000E-01 -4.972381500000E-01
     41 T   8 O     2.420798900000E-01  4.827907800000E-01 -4.897503800000E-01
     42 T   8 O     4.015146000000E-01 -3.576668400000E-01 -4.947664100000E-01

 T = ATOM BELONGING TO THE ASYMMETRIC UNIT

 ****    1 SYMMOPS - TRANSLATORS IN FRACTIONAL UNITS
 **** MATRICES AND TRANSLATORS IN THE CRYSTALLOGRAPHIC REFERENCE FRAME
   V INV                    ROTATION MATRICES                   TRANSLATORS
   1   1  1.00  0.00  0.00  0.00  1.00  0.00 -0.00  0.00  1.00  0.00  0.00  0.00

 DIRECT LATTICE VECTORS CARTESIAN COMPONENTS (ANGSTROM)
          X                    Y                    Z
   0.130013421718E+02  -0.752240388864E+01   0.000000000000E+00
   0.000000000000E+00   0.150443870000E+02   0.000000000000E+00
   0.100152896098E+01   0.173089253203E+01   0.400011889641E+01


 CARTESIAN COORDINATES - PRIMITIVE CELL
 *******************************************************************************
 *      ATOM          X(ANGSTROM)         Y(ANGSTROM)         Z(ANGSTROM)
 *******************************************************************************
    1     5 B    -5.999069334686E+00  4.591730027511E+00 -1.997438410298E+00
    2     5 B    -3.934724031216E+00  5.789786836490E+00 -1.997398449111E+00
    3     5 B     6.996392385735E+00 -5.395145296952E-01 -2.003118539130E+00
    4     5 B     1.973009065105E+00  5.790595092551E+00 -1.978257760188E+00
    5     5 B     4.034691224285E+00  4.590197484758E+00 -1.962081639381E+00
    6     5 B    -7.961577965118E+00  1.194208164333E+00  2.014173907731E+00
    7     1 H    -2.244217021329E+00  3.644940610936E+00 -1.981844266790E+00
    8     1 H     1.285396809356E+00 -5.385945200224E+00  1.971911731563E+00
    9     1 H    -1.241833772215E+00 -5.387534166546E+00  1.971358515120E+00
   10     1 H     2.837559646927E-01  3.644810677740E+00 -1.983570038086E+00
   11     1 H    -5.273379123006E+00  1.595110125996E+00  2.017037152836E+00
   12     1 H     4.306369421448E+00 -3.318189635441E+00 -2.021678050778E+00
   13     1 H     4.029342625868E+00 -3.761818023004E+00  1.983668401009E+00
   14     1 H    -4.999455928285E+00  2.040206053595E+00 -1.990527324879E+00
   15     1 H    -5.278611950222E+00 -1.601262244044E+00  1.991258586614E+00
   16     1 H     4.285915756181E+00 -1.422862376012E-01 -1.975726684956E+00
   17     1 H     3.020052456743E+00  2.033205251629E+00 -1.977186248339E+00
   18     1 H    -4.007192416658E+00 -3.779032507057E+00  1.994992497598E+00
   19     6 C    -2.383761256551E+00  5.786494741536E+00 -1.998398438833E+00
   20     6 C    -1.674873508013E+00  4.576333554946E+00 -1.991333828851E+00
   21     6 C     7.180215947604E-01 -6.317626674673E+00  1.983212627462E+00
   22     6 C    -6.728421980875E-01 -6.318140854704E+00  1.984561307549E+00
   23     6 C    -2.833314921585E-01  4.577057899543E+00 -1.993908745385E+00
   24     6 C     4.252587655514E-01  5.786938392901E+00 -2.002642124969E+00
   25     6 C    -7.194978812784E+00  2.546604395785E+00  2.007646513716E+00
   26     6 C    -5.792481702130E+00  2.554786915277E+00  2.009207240106E+00
   27     6 C     5.824744810935E+00 -2.548834771478E+00  1.988101092763E+00
   28     6 C     5.121134079617E+00 -3.750810887743E+00  1.992575945770E+00
   29     6 C    -5.089326042148E+00  3.755692257099E+00  2.003457469204E+00
   30     6 C    -6.775758843533E+00  3.248416043234E+00 -2.003158700324E+00
   31     6 C     4.799642393045E+00  3.239847599473E+00 -2.000073728628E+00
   32     6 C    -5.797986621791E+00 -2.561339311613E+00  1.997839182211E+00
   33     6 C     4.812794403220E+00  8.134839008105E-01 -1.984185016365E+00
   34     6 C     4.112003191552E+00  2.016991054375E+00 -1.986616848647E+00
   35     6 C    -5.098337146952E+00 -3.764470773865E+00  2.001592733778E+00
   36     6 C     6.215595238433E+00  8.028298856525E-01 -1.993558614978E+00
   37     8 O     6.311684146814E+00 -1.736532127969E+00 -2.001559012776E+00
   38     8 O    -4.620371793138E+00  4.593080694005E+00 -1.989598457270E+00
   39     8 O    -3.623933460862E+00 -6.329264078509E+00  1.992441021760E+00
   40     8 O     3.661511322102E+00 -6.327748445729E+00  2.011107176578E+00
   41     8 O     2.656864293577E+00  4.594563353155E+00 -1.959059749561E+00
   42     8 O    -7.275107397768E+00 -4.324409911870E-03  2.020994430459E+00

 *******************************************************************************
 STARTING BASIS SET HANDLING 
 *******************************************************************************

 Loading internal basis set: SOLDEF2MSVP         

 Please cite in your publication:
 L. Dona', J. G. Brandenburg and B. Civalleri, J. Chem. Phys., 151, 121101 (2019
 )                                                                              
                                                                                
                    

 *******************************************************************************
 LOCAL ATOMIC FUNCTIONS BASIS SET
 *******************************************************************************
   ATOM   X(AU)   Y(AU)   Z(AU)  N. TYPE  EXPONENT  S COEF   P COEF   D/F/G COEF
 *******************************************************************************
   1 B  -11.337   8.677  -3.775
                                  1 S  
                                         2.410E+03 1.755E-03 0.000E+00 0.000E+00
                                         3.619E+02 1.344E-02 0.000E+00 0.000E+00
                                         8.231E+01 6.637E-02 0.000E+00 0.000E+00
                                         2.311E+01 2.303E-01 0.000E+00 0.000E+00
                                         7.252E+00 5.150E-01 0.000E+00 0.000E+00
                                  2 S  
                                         2.367E+00 1.000E+00 0.000E+00 0.000E+00
                                  3 S  
                                         5.533E-01 1.000E+00 0.000E+00 0.000E+00
                                  4 S  
                                         1.716E-01 1.000E+00 0.000E+00 0.000E+00
                           5-     7 P  
                                         6.002E+00 0.000E+00-3.555E-02 0.000E+00
                                         1.240E+00 0.000E+00-1.983E-01 0.000E+00
                                         3.367E-01 0.000E+00-5.048E-01 0.000E+00
                           8-    10 P  
                                         1.256E-01 0.000E+00 1.000E+00 0.000E+00
                          11-    15 D  
                                         8.880E-01 0.000E+00 0.000E+00 1.000E+00
   2 B   -7.436  10.941  -3.775
   3 B   13.221  -1.020  -3.785
   4 B    3.728  10.943  -3.738
   5 B    7.624   8.674  -3.708
   6 B  -15.045   2.257   3.806
   7 H   -4.241   6.888  -3.745
                                 91 S  
                                         1.874E+01 1.968E-02 0.000E+00 0.000E+00
                                         2.826E+00 1.380E-01 0.000E+00 0.000E+00
                                         6.401E-01 4.783E-01 0.000E+00 0.000E+00
                                 92 S  
                                         1.756E-01 1.000E+00 0.000E+00 0.000E+00
   8 H    2.429 -10.178   3.726
   9 H   -2.347 -10.181   3.725
  10 H    0.536   6.888  -3.748
  11 H   -9.965   3.014   3.812
  12 H    8.138  -6.270  -3.820
  13 H    7.614  -7.109   3.749
  14 H   -9.448   3.855  -3.762
  15 H   -9.975  -3.026   3.763
  16 H    8.099  -0.269  -3.734
  17 H    5.707   3.842  -3.736
  18 H   -7.572  -7.141   3.770
  19 C   -4.505  10.935  -3.776
                                115 S  
                                         3.624E+03 1.634E-03 0.000E+00 0.000E+00
                                         5.440E+02 1.252E-02 0.000E+00 0.000E+00
                                         1.237E+02 6.211E-02 0.000E+00 0.000E+00
                                         3.476E+01 2.182E-01 0.000E+00 0.000E+00
                                         1.093E+01 4.980E-01 0.000E+00 0.000E+00
                                116 S  
                                         3.574E+00 1.000E+00 0.000E+00 0.000E+00
                                117 S  
                                         7.742E-01 1.000E+00 0.000E+00 0.000E+00
                                118 S  
                                         2.330E-01 1.000E+00 0.000E+00 0.000E+00
                         119-   121 P  
                                         9.443E+00 0.000E+00 3.790E-02 0.000E+00
                                         2.002E+00 0.000E+00 2.082E-01 0.000E+00
                                         5.463E-01 0.000E+00 5.047E-01 0.000E+00
                         122-   124 P  
                                         1.820E-01 0.000E+00 1.000E+00 0.000E+00
                         125-   129 D  
                                         8.880E-01 0.000E+00 0.000E+00 1.000E+00
  20 C   -3.165   8.648  -3.763
  21 C    1.357 -11.939   3.748
  22 C   -1.271 -11.940   3.750
  23 C   -0.535   8.649  -3.768
  24 C    0.804  10.936  -3.784
  25 C  -13.597   4.812   3.794
  26 C  -10.946   4.828   3.797
  27 C   11.007  -4.817   3.757
  28 C    9.678  -7.088   3.765
  29 C   -9.617   7.097   3.786
  30 C  -12.804   6.139  -3.785
  31 C    9.070   6.122  -3.780
  32 C  -10.957  -4.840   3.775
  33 C    9.095   1.537  -3.750
  34 C    7.771   3.812  -3.754
  35 C   -9.634  -7.114   3.782
  36 C   11.746   1.517  -3.767
  37 O   11.927  -3.282  -3.782
                                385 S  
                                         6.773E+03 1.727E-03 0.000E+00 0.000E+00
                                         1.017E+03 1.325E-02 0.000E+00 0.000E+00
                                         2.313E+02 6.603E-02 0.000E+00 0.000E+00
                                         6.501E+01 2.353E-01 0.000E+00 0.000E+00
                                         2.050E+01 5.498E-01 0.000E+00 0.000E+00
                                386 S  
                                         6.716E+00 1.000E+00 0.000E+00 0.000E+00
                                387 S  
                                         1.147E+00 1.000E+00 0.000E+00 0.000E+00
                                388 S  
                                         3.342E-01 1.000E+00 0.000E+00 0.000E+00
                         389-   391 P  
                                         1.769E+01 0.000E+00 4.359E-02 0.000E+00
                                         3.854E+00 0.000E+00 2.318E-01 0.000E+00
                                         1.047E+00 0.000E+00 5.146E-01 0.000E+00
                         392-   394 P  
                                         2.759E-01 0.000E+00 1.000E+00 0.000E+00
                         395-   399 D  
                                         8.000E-01 0.000E+00 0.000E+00 1.000E+00
  38 O   -8.731   8.680  -3.760
  39 O   -6.848 -11.961   3.765
  40 O    6.919 -11.958   3.800
  41 O    5.021   8.682  -3.702
  42 O  -13.748  -0.008   3.819

 *******************************************************************************
 FINISHED BASIS SET HANDLING 
 *******************************************************************************

 INFORMATION **** SET_MPP **** PCRYSTAL CALCULATION
 INFORMATION **** READM2 **** NEW DEFAULT: FOCK/KS MATRIX MIXING SET TO 30 %
 INFORMATION **** READM2 **** NEW DEFAULT: FULL DIRECT SCF MODE
 INFORMATION **** READM2 **** NEW DEFAULT: COULOMB BIPOLAR BUFFER SET TO 32 Mb
 INFORMATION **** READM2 **** NEW DEFAULT: EXCHANGE BIPOLAR BUFFER SET TO 32 Mb

 *******************************************************************************
 NEW DEFAULT: DFT INTEGRATION GRID INCREASED TO XLGRID
 NEW DEFAULT: DIIS ACCELERATOR ACTIVE
 USE KEYWORD NODIIS TO TURN IT OFF
 *******************************************************************************

 WARNING **** RDDFTP **** HSEsol-HJS ACTIVE
 RANGE SEPARATION - OMEGA:   0.110000000000000     
 WARNING **** RDDFTP **** HSEsol-3c has to be combined with sol-def2-mSVP basis set
 *******************************************************************************
 N. OF ATOMS PER CELL        42  COULOMB OVERLAP TOL         (T1) 10**   -6
 NUMBER OF SHELLS           234  COULOMB PENETRATION TOL     (T2) 10**   -6
 NUMBER OF AO               474  EXCHANGE OVERLAP TOL        (T3) 10**   -6
 N. OF ELECTRONS PER CELL   198  EXCHANGE PSEUDO OVP (F(G))  (T4) 10**   -6
 CORE ELECTRONS PER CELL     60  EXCHANGE PSEUDO OVP (P(G))  (T5) 10**  -12
 N. OF SYMMETRY OPERATORS     1  POLE ORDER IN MONO ZONE                  4
 *******************************************************************************
 TYPE OF CALCULATION :  RESTRICTED CLOSED SHELL
 KOHN-SHAM HAMILTONIAN

 (EXCHANGE)[CORRELATION] FUNCTIONAL:(HSEsol GGA)[PBEsol]

 RANGE-SEPARATED HYBRID FUNCTIONAL 
 OMEGA (SHORT-RANGE)[LONG-RANGE]:(    0.1100)[    0.0000]

 HYBRID EXCHANGE - PERCENTAGE OF FOCK EXCHANGE    25.0000

 CAPPA:IS1  2;IS2  2;IS3  8; K PTS MONK NET  20; SYMMOPS:K SPACE   2;G SPACE   1

 *******************************************************************************
 MAX NUMBER OF SCF CYCLES      50  CONVERGENCE ON DELTAP        10**-16
 WEIGHT OF F(I) IN F(I+1)      30% CONVERGENCE ON ENERGY        10**- 6
 SHRINK. FACT.(MONKH.)    2  2  8  NUMBER OF K POINTS IN THE IBZ     20
 SHRINKING FACTOR(GILAT NET)    8  NUMBER OF K POINTS(GILAT NET)   1028
 *******************************************************************************
 *** K POINTS COORDINATES (OBLIQUE COORDINATES IN UNITS OF IS =  2)
   1-R(  0  0  0)   2-R(  1  0  0)   3-R(  0  1  0)   4-R(  1  1  0)
   5-C(  0  0  1)   6-C(  1  0  1)   7-C(  0  1  1)   8-C(  1  1  1)
   9-C(  0  0  2)  10-C(  1  0  2)  11-C(  0  1  2)  12-C(  1  1  2)
  13-C(  0  0  3)  14-C(  1  0  3)  15-C(  0  1  3)  16-C(  1  1  3)
  17-R(  0  0  4)  18-R(  1  0  4)  19-R(  0  1  4)  20-R(  1  1  4)

 DIRECT LATTICE VECTORS COMPON. (A.U.)     RECIP. LATTICE VECTORS COMPON. (A.U.) 
        X            Y            Z              X            Y            Z
   24.5689761  -14.2152832    0.0000000      0.2557366    0.0000000   -0.0640300
    0.0000000   28.4297713    0.0000000      0.1278719    0.2210072   -0.1276480
    1.8926155    3.2709129    7.5591292      0.0000000    0.0000000    0.8312049

 DISK SPACE FOR EIGENVECTORS (FTN 10)     7189632 REALS

 SYMMETRY ADAPTION OF THE BLOCH FUNCTIONS DISABLED
 TTTTTTTTTTTTTTTTTTTTTTTTTTTTTT gordsh1     TELAPSE        0.04 TCPU        0.04

 MATRIX SIZE: P(G)  327418, F(G)   68429, P(G) IRR  165206, F(G) IRR   69125
 MAX G-VECTOR INDEX FOR 1- AND 2-ELECTRON INTEGRALS  83

 TTTTTTTTTTTTTTTTTTTTTTTTTTTTTT INPUT       TELAPSE        0.30 TCPU        0.30

 NEIGHBORS OF THE NON-EQUIVALENT ATOMS

 N = NUMBER OF NEIGHBORS AT DISTANCE R
    ATOM  N     R/ANG      R/AU   NEIGHBORS (ATOM LABELS AND CELL INDICES)
   1 B    1     1.3787     2.6054   38 O    0 0 0
   1 B    1     1.3795     2.6068   37 O   -1 0 0
   1 B    1     1.5517     2.9323   30 C    0 0 0
   1 B    1     2.3868     4.5104    2 B    0 0 0
   1 B    1     2.3912     4.5187    3 B   -1 0 0
   1 B    1     2.5629     4.8432   27 C   -1 0-1

   2 B    1     1.3792     2.6064   38 O    0 0 0
   2 B    1     1.3798     2.6075   39 O    0 1-1
   2 B    1     1.5510     2.9309   19 C    0 0 0
   2 B    1     2.3868     4.5104    1 B    0 0 0
   2 B    1     2.3894     4.5154    3 B   -1 0 0
   2 B    1     2.5618     4.8411   22 C    0 1-1

   3 B    1     1.3790     2.6060   37 O    0 0 0
   3 B    1     1.3795     2.6069   39 O    1 1-1
   3 B    1     1.5529     2.9346   36 C    0 0 0
   3 B    1     2.3894     4.5154    2 B    1 0 0
   3 B    1     2.3912     4.5187    1 B    1 0 0
   3 B    1     2.5679     4.8526   35 C    1 1-1

   4 B    1     1.3779     2.6038   41 O    0 0 0
   4 B    1     1.3786     2.6051   40 O    0 1-1
   4 B    1     1.5479     2.9252   24 C    0 0 0
   4 B    1     2.3857     4.5084    5 B    0 0 0
   4 B    1     2.3859     4.5087    6 B    1 1-1
   4 B    1     2.5585     4.8349   21 C    0 1-1

   5 B    1     1.3778     2.6037   41 O    0 0 0
   5 B    1     1.3814     2.6104   42 O    1 1-1
   5 B    1     1.5524     2.9337   31 C    0 0 0
   5 B    1     2.3857     4.5084    4 B    0 0 0
   5 B    1     2.3952     4.5263    6 B    1 1-1
   5 B    1     2.5591     4.8360   32 C    1 1-1

   6 B    1     1.3783     2.6045   40 O   -1 0 0
   6 B    1     1.3812     2.6101   42 O    0 0 0
   6 B    1     1.5546     2.9377   25 C    0 0 0
   6 B    1     2.3859     4.5087    4 B   -1-1 1
   6 B    1     2.3952     4.5263    5 B   -1-1 1
   6 B    1     2.5605     4.8387   26 C    0 0 0

   7 H    1     1.0917     2.0629   20 C    0 0 0
   7 H    1     2.1462     4.0557   19 C    0 0 0
   7 H    1     2.1712     4.1030   23 C    0 0 0
   7 H    1     2.5280     4.7772   10 H    0 0 0
   7 H    1     2.5583     4.8346   38 O    0 0 0
   7 H    1     2.7310     5.1609    2 B    0 0 0

   8 H    1     1.0909     2.0615   21 C    0 0 0
   8 H    1     2.1454     4.0543   24 C    0-1 1
   8 H    1     2.1688     4.0985   22 C    0 0 0
   8 H    1     2.5272     4.7758    9 H    0 0 0
   8 H    1     2.5563     4.8306   40 O    0 0 0
   8 H    1     2.7244     5.1483    4 B    0-1 1

   9 H    1     1.0909     2.0614   22 C    0 0 0
   9 H    1     2.1443     4.0521   19 C    0-1 1
   9 H    1     2.1694     4.0995   21 C    0 0 0
   9 H    1     2.5272     4.7758    8 H    0 0 0
   9 H    1     2.5616     4.8407   39 O    0 0 0
   9 H    1     2.7249     5.1493    2 B    0-1 1

  10 H    1     1.0912     2.0621   23 C    0 0 0
  10 H    1     2.1469     4.0570   24 C    0 0 0
  10 H    1     2.1689     4.0986   20 C    0 0 0
  10 H    1     2.5280     4.7772    7 H    0 0 0
  10 H    1     2.5562     4.8306   41 O    0 0 0
  10 H    1     2.7309     5.1607    4 B    0 0 0

  11 H    1     1.0911     2.0619   26 C    0 0 0
  11 H    1     2.1443     4.0521   25 C    0 0 0
  11 H    1     2.1684     4.0978   29 C    0 0 0
  11 H    1     2.5223     4.7664   14 H    0 0 1
  11 H    1     2.5622     4.8419   42 O    0 0 0
  11 H    1     2.7179     5.1361    6 B    0 0 0

  12 H    1     1.0917     2.0630   27 C    0 0-1
  12 H    1     2.1441     4.0518   30 C    1 0 0
  12 H    1     2.1716     4.1037   28 C    0 0-1
  12 H    1     2.5226     4.7669   13 H    0 0-1
  12 H    1     2.5541     4.8265   37 O    0 0 0
  12 H    1     2.7237     5.1471    1 B    1 0 0

  13 H    1     1.0919     2.0634   28 C    0 0 0
  13 H    1     2.1522     4.0671   25 C    1 0 0
  13 H    1     2.1668     4.0946   27 C    0 0 0
  13 H    1     2.5226     4.7669   12 H    0 0 1
  13 H    1     2.5923     4.8987   40 O    0 0 0
  13 H    1     2.7583     5.2124    6 B    1 0 0

  14 H    1     1.0915     2.0627   29 C    0 0-1
  14 H    1     2.1483     4.0597   30 C    0 0 0
  14 H    1     2.1679     4.0968   26 C    0 0-1
  14 H    1     2.5223     4.7664   11 H    0 0-1
  14 H    1     2.5809     4.8771   38 O    0 0 0
  14 H    1     2.7404     5.1785    1 B    0 0 0

  15 H    1     1.0916     2.0628   32 C    0 0 0
  15 H    1     2.1436     4.0508   31 C   -1-1 1
  15 H    1     2.1707     4.1021   35 C    0 0 0
  15 H    1     2.5217     4.7654   18 H    0 0 0
  15 H    1     2.5568     4.8316   42 O    0 0 0
  15 H    1     2.7166     5.1336    5 B   -1-1 1

  16 H    1     1.0914     2.0625   33 C    0 0 0
  16 H    1     2.1488     4.0606   36 C    0 0 0
  16 H    1     2.1663     4.0937   34 C    0 0 0
  16 H    1     2.5170     4.7564   17 H    0 0 0
  16 H    1     2.5780     4.8717   37 O    0 0 0
  16 H    1     2.7396     5.1770    3 B    0 0 0

  17 H    1     1.0921     2.0638   34 C    0 0 0
  17 H    1     2.1502     4.0633   31 C    0 0 0
  17 H    1     2.1683     4.0976   33 C    0 0 0
  17 H    1     2.5170     4.7564   16 H    0 0 0
  17 H    1     2.5870     4.8888   41 O    0 0 0
  17 H    1     2.7510     5.1986    5 B    0 0 0

  18 H    1     1.0913     2.0622   35 C    0 0 0
  18 H    1     2.1495     4.0619   36 C   -1-1 1
  18 H    1     2.1656     4.0923   32 C    0 0 0
  18 H    1     2.5217     4.7654   15 H    0 0 0
  18 H    1     2.5789     4.8734   39 O    0 0 0
  18 H    1     2.7392     5.1763    3 B   -1-1 1

  19 C    1     1.4017     2.6489   22 C    0 1-1
  19 C    1     1.4025     2.6504   20 C    0 0 0
  19 C    1     1.5510     2.9309    2 B    0 0 0
  19 C    1     2.1443     4.0521    9 H    0 1-1
  19 C    1     2.1462     4.0557    7 H    0 0 0
  19 C    1     2.4236     4.5800   21 C    0 1-1

  20 C    1     1.0917     2.0629    7 H    0 0 0
  20 C    1     1.3915     2.6296   23 C    0 0 0
  20 C    1     1.4025     2.6504   19 C    0 0 0
  20 C    1     2.1689     4.0986   10 H    0 0 0
  20 C    1     2.4191     4.5715   22 C    0 1-1
  20 C    1     2.4241     4.5809   24 C    0 0 0

  21 C    1     1.0909     2.0615    8 H    0 0 0
  21 C    1     1.3909     2.6284   22 C    0 0 0
  21 C    1     1.4015     2.6484   24 C    0-1 1
  21 C    1     2.1694     4.0995    9 H    0 0 0
  21 C    1     2.4189     4.5711   23 C    0-1 1
  21 C    1     2.4236     4.5800   19 C    0-1 1

  22 C    1     1.0909     2.0614    9 H    0 0 0
  22 C    1     1.3909     2.6284   21 C    0 0 0
  22 C    1     1.4017     2.6489   19 C    0-1 1
  22 C    1     2.1688     4.0985    8 H    0 0 0
  22 C    1     2.4191     4.5715   20 C    0-1 1
  22 C    1     2.4226     4.5780   24 C    0-1 1

  23 C    1     1.0912     2.0621   10 H    0 0 0
  23 C    1     1.3915     2.6296   20 C    0 0 0
  23 C    1     1.4021     2.6497   24 C    0 0 0
  23 C    1     2.1712     4.1030    7 H    0 0 0
  23 C    1     2.4189     4.5711   21 C    0 1-1
  23 C    1     2.4237     4.5802   19 C    0 0 0

  24 C    1     1.4015     2.6484   21 C    0 1-1
  24 C    1     1.4021     2.6497   23 C    0 0 0
  24 C    1     1.5479     2.9252    4 B    0 0 0
  24 C    1     2.1454     4.0543    8 H    0 1-1
  24 C    1     2.1469     4.0570   10 H    0 0 0
  24 C    1     2.4226     4.5780   22 C    0 1-1

  25 C    1     1.4025     2.6504   26 C    0 0 0
  25 C    1     1.4037     2.6526   28 C   -1 0 0
  25 C    1     1.5546     2.9377    6 B    0 0 0
  25 C    1     2.1443     4.0521   11 H    0 0 0
  25 C    1     2.1522     4.0671   13 H   -1 0 0
  25 C    1     2.4271     4.5866   27 C   -1 0 0

  26 C    1     1.0911     2.0619   11 H    0 0 0
  26 C    1     1.3916     2.6298   29 C    0 0 0
  26 C    1     1.4025     2.6504   25 C    0 0 0
  26 C    1     2.1679     4.0968   14 H    0 0 1
  26 C    1     2.4165     4.5665   28 C   -1 0 0
  26 C    1     2.4246     4.5819   30 C    0 0 1

  27 C    1     1.0917     2.0630   12 H    0 0 1
  27 C    1     1.3928     2.6320   28 C    0 0 0
  27 C    1     1.4024     2.6502   30 C    1 0 1
  27 C    1     2.1668     4.0946   13 H    0 0 0
  27 C    1     2.4166     4.5668   29 C    1 0 0
  27 C    1     2.4271     4.5866   25 C    1 0 0

  28 C    1     1.0919     2.0634   13 H    0 0 0
  28 C    1     1.3928     2.6320   27 C    0 0 0
  28 C    1     1.4037     2.6526   25 C    1 0 0
  28 C    1     2.1716     4.1037   12 H    0 0 1
  28 C    1     2.4165     4.5665   26 C    1 0 0
  28 C    1     2.4277     4.5877   30 C    1 0 1

  29 C    1     1.0915     2.0627   14 H    0 0 1
  29 C    1     1.3916     2.6298   26 C    0 0 0
  29 C    1     1.4023     2.6499   30 C    0 0 1
  29 C    1     2.1684     4.0978   11 H    0 0 0
  29 C    1     2.4166     4.5668   27 C   -1 0 0
  29 C    1     2.4281     4.5884   25 C    0 0 0

  30 C    1     1.4023     2.6499   29 C    0 0-1
  30 C    1     1.4024     2.6502   27 C   -1 0-1
  30 C    1     1.5517     2.9323    1 B    0 0 0
  30 C    1     2.1441     4.0518   12 H   -1 0 0
  30 C    1     2.1483     4.0597   14 H    0 0 0
  30 C    1     2.4246     4.5819   26 C    0 0-1

  31 C    1     1.4022     2.6498   32 C    1 1-1
  31 C    1     1.4030     2.6513   34 C    0 0 0
  31 C    1     1.5524     2.9337    5 B    0 0 0
  31 C    1     2.1436     4.0508   15 H    1 1-1
  31 C    1     2.1502     4.0633   17 H    0 0 0
  31 C    1     2.4265     4.5853   33 C    0 0 0

  32 C    1     1.0916     2.0628   15 H    0 0 0
  32 C    1     1.3918     2.6301   35 C    0 0 0
  32 C    1     1.4022     2.6498   31 C   -1-1 1
  32 C    1     2.1656     4.0923   18 H    0 0 0
  32 C    1     2.4163     4.5661   34 C   -1-1 1
  32 C    1     2.4270     4.5863   36 C   -1-1 1

  33 C    1     1.0914     2.0625   16 H    0 0 0
  33 C    1     1.3927     2.6318   34 C    0 0 0
  33 C    1     1.4029     2.6510   36 C    0 0 0
  33 C    1     2.1683     4.0976   17 H    0 0 0
  33 C    1     2.4155     4.5646   35 C    1 1-1
  33 C    1     2.4265     4.5853   31 C    0 0 0

  34 C    1     1.0921     2.0638   17 H    0 0 0
  34 C    1     1.3927     2.6318   33 C    0 0 0
  34 C    1     1.4030     2.6513   31 C    0 0 0
  34 C    1     2.1663     4.0937   16 H    0 0 0
  34 C    1     2.4163     4.5661   32 C    1 1-1
  34 C    1     2.4289     4.5899   36 C    0 0 0

  35 C    1     1.0913     2.0622   18 H    0 0 0
  35 C    1     1.3918     2.6301   32 C    0 0 0
  35 C    1     1.4029     2.6511   36 C   -1-1 1
  35 C    1     2.1707     4.1021   15 H    0 0 0
  35 C    1     2.4155     4.5646   33 C   -1-1 1
  35 C    1     2.4269     4.5861   31 C   -1-1 1

  36 C    1     1.4029     2.6510   33 C    0 0 0
  36 C    1     1.4029     2.6511   35 C    1 1-1
  36 C    1     1.5529     2.9346    3 B    0 0 0
  36 C    1     2.1488     4.0606   16 H    0 0 0
  36 C    1     2.1495     4.0619   18 H    1 1-1
  36 C    1     2.4270     4.5863   32 C    1 1-1

  37 O    1     1.3790     2.6060    3 B    0 0 0
  37 O    1     1.3795     2.6068    1 B    1 0 0
  37 O    1     2.3868     4.5105   39 O    1 1-1
  37 O    1     2.3885     4.5136   38 O    1 0 0
  37 O    1     2.5389     4.7979   30 C    1 0 0
  37 O    1     2.5412     4.8022   36 C    0 0 0

  38 O    1     1.3787     2.6054    1 B    0 0 0
  38 O    1     1.3792     2.6064    2 B    0 0 0
  38 O    1     2.3885     4.5136   37 O   -1 0 0
  38 O    1     2.3912     4.5188   39 O    0 1-1
  38 O    1     2.5351     4.7906   19 C    0 0 0
  38 O    1     2.5405     4.8008   30 C    0 0 0

  39 O    1     1.3795     2.6069    3 B   -1-1 1
  39 O    1     1.3798     2.6075    2 B    0-1 1
  39 O    1     2.3868     4.5105   37 O   -1-1 1
  39 O    1     2.3912     4.5188   38 O    0-1 1
  39 O    1     2.5416     4.8030   19 C    0-1 1
  39 O    1     2.5427     4.8050   36 C   -1-1 1

  40 O    1     1.3783     2.6045    6 B    1 0 0
  40 O    1     1.3786     2.6051    4 B    0-1 1
  40 O    1     2.3876     4.5119   42 O    1 0 0
  40 O    1     2.3914     4.5190   41 O    0-1 1
  40 O    1     2.5354     4.7912   25 C    1 0 0
  40 O    1     2.5360     4.7924   24 C    0-1 1

  41 O    1     1.3778     2.6037    5 B    0 0 0
  41 O    1     1.3779     2.6038    4 B    0 0 0
  41 O    1     2.3870     4.5108   42 O    1 1-1
  41 O    1     2.3914     4.5190   40 O    0 1-1
  41 O    1     2.5306     4.7821   24 C    0 0 0
  41 O    1     2.5354     4.7913   31 C    0 0 0

  42 O    1     1.3812     2.6101    6 B    0 0 0
  42 O    1     1.3814     2.6104    5 B   -1-1 1
  42 O    1     2.3870     4.5108   41 O   -1-1 1
  42 O    1     2.3876     4.5119   40 O   -1 0 0
  42 O    1     2.5481     4.8152   31 C   -1-1 1
  42 O    1     2.5522     4.8230   25 C    0 0 0


 SYMMETRY ALLOWED INTERNAL DEGREE(S) OF FREEDOM: 123
 TTTTTTTTTTTTTTTTTTTTTTTTTTTTTT SYMM        TELAPSE        0.31 TCPU        0.30
 TTTTTTTTTTTTTTTTTTTTTTTTTTTTTT INT_SCREEN  TELAPSE        0.33 TCPU        0.33

 DFT PARAMETERS

     ATOM       ELECTRONS   NET CHARGE   R(ANGSTROM)
   1   5  B       5.0000      0.0000     0.89000000
   7   1  H       1.0000      0.0000     1.11000000
  19   6  C       6.0000      0.0000     0.77000000
  37   8  O       8.0000      0.0000     0.74000000

 SIZE OF GRID=    1310682
 TTTTTTTTTTTTTTTTTTTTTTTTTTTTTT MAKE_GRID2  TELAPSE        9.57 TCPU        9.56
 BECKE WEIGHT FUNCTION
 RADSAFE =     2.00
 TOLERANCES - DENSITY:10**- 6; POTENTIAL:10**- 9; GRID WGT:10**-14

 RADIAL INTEGRATION  - INTERVALS (POINTS,UPPER LIMIT):            1( 75,  4.0*R)

 ANGULAR INTEGRATION - INTERVALS (ACCURACY LEVEL [N. POINTS] UPPER LIMIT):
  1(  4[  86]   0.2)  2(  8[ 194]   0.5)  3( 12[ 350]   0.9)  4( 16[ 974]   3.5)
  5( 12[ 350]9999.0)
 TTTTTTTTTTTTTTTTTTTTTTTTTTTTTT INT_CALC    TELAPSE        9.66 TCPU        9.65
 EEEEEEEEEE INT_CALC TERMINATION  DATE 02 12 2025 TIME 08:04:02.9

 *******************************************************************************
 COF-5_z40_inc_L020                                                              
 CRYSTAL - SCF - TYPE OF CALCULATION :  RESTRICTED CLOSED SHELL
 *******************************************************************************

 CAPPA:IS1  2;IS2  2;IS3  8; K PTS MONK NET  20; SYMMOPS:K SPACE   2;G SPACE   1

 TTTTTTTTTTTTTTTTTTTTTTTTTTTTTT SDIK        TELAPSE       10.35 TCPU       17.62

 AAAAAAAAAAAAAAAAAAAAAAAAAAAAAAAAAAAAAAAAAAAAAAAAAAAAAAAAAAAAAAAAAAAAAAAAAAAAAAA
         ATOMIC WAVEFUNCTION(S)


 NUCLEAR CHARGE  5.0  SYMMETRY SPECIES            S    P
 N. ELECTRONS    5.0  NUMBER OF PRIMITIVE GTOS    8    4
                      NUMBER OF CONTRACTED GTOS   4    2
                      NUMBER OF CLOSED SHELLS     2    0
                      OPEN SHELL OCCUPATION       0    1

  ZNUC  SCFIT    TOTAL HF ENERGY   KINETIC ENERGY   VIRIAL THEOREM ACCURACY
   5.0    11    -2.451164084E+01  2.462155050E+01 -1.995536038E+00  1.5E-06

 NUCLEAR CHARGE  1.0  SYMMETRY SPECIES            S
 N. ELECTRONS    1.0  NUMBER OF PRIMITIVE GTOS    4
                      NUMBER OF CONTRACTED GTOS   2
                      NUMBER OF CLOSED SHELLS     0
                      OPEN SHELL OCCUPATION       1

  ZNUC  SCFIT    TOTAL HF ENERGY   KINETIC ENERGY   VIRIAL THEOREM ACCURACY
   1.0     1    -4.977266687E-01  5.190767460E-01 -1.958869132E+00  0.0E+00

 NUCLEAR CHARGE  6.0  SYMMETRY SPECIES            S    P
 N. ELECTRONS    6.0  NUMBER OF PRIMITIVE GTOS    8    4
                      NUMBER OF CONTRACTED GTOS   4    2
                      NUMBER OF CLOSED SHELLS     2    0
                      OPEN SHELL OCCUPATION       0    2

  ZNUC  SCFIT    TOTAL HF ENERGY   KINETIC ENERGY   VIRIAL THEOREM ACCURACY
   6.0     9    -3.766704647E+01  3.775180683E+01 -1.997754800E+00  1.1E-06

 NUCLEAR CHARGE  8.0  SYMMETRY SPECIES            S    P
 N. ELECTRONS    8.0  NUMBER OF PRIMITIVE GTOS    8    4
                      NUMBER OF CONTRACTED GTOS   4    2
                      NUMBER OF CLOSED SHELLS     2    0
                      OPEN SHELL OCCUPATION       0    4

  ZNUC  SCFIT    TOTAL HF ENERGY   KINETIC ENERGY   VIRIAL THEOREM ACCURACY
   8.0    12    -7.477373220E+01  7.477365593E+01 -2.000001020E+00  3.8E-06

 AAAAAAAAAAAAAAAAAAAAAAAAAAAAAAAAAAAAAAAAAAAAAAAAAAAAAAAAAAAAAAAAAAAAAAAAAAAAAAA

 CHARGE NORMALIZATION FACTOR   1.00000000
 TOTAL ATOMIC CHARGES:
   5.0000000   5.0000000   5.0000000   5.0000000   5.0000000   5.0000000
   1.0000000   1.0000000   1.0000000   1.0000000   1.0000000   1.0000000
   1.0000000   1.0000000   1.0000000   1.0000000   1.0000000   1.0000000
   6.0000000   6.0000000   6.0000000   6.0000000   6.0000000   6.0000000
   6.0000000   6.0000000   6.0000000   6.0000000   6.0000000   6.0000000
   6.0000000   6.0000000   6.0000000   6.0000000   6.0000000   6.0000000
   8.0000000   8.0000000   8.0000000   8.0000000   8.0000000   8.0000000
 TTTTTTTTTTTTTTTTTTTTTTTTTTTTTT MOQGAD      TELAPSE       10.40 TCPU       19.04
 TTTTTTTTTTTTTTTTTTTTTTTTTTTTTT SHELLXN     TELAPSE       17.63 TCPU      248.62
 TTTTTTTTTTTTTTTTTTTTTTTTTTTTTT MONMO3      TELAPSE       17.78 TCPU      253.46
 NUMERICALLY INTEGRATED DENSITY    197.9999934065
 TTTTTTTTTTTTTTTTTTTTTTTTTTTTTT NUMDFT      TELAPSE       18.34 TCPU      271.27
 CYC   0 ETOT(AU) -1.295948811182E+03 DETOT -1.30E+03 tst  0.00E+00 PX  1.00E+00
 TTTTTTTTTTTTTTTTTTTTTTTTTTTTTT DIIS        TELAPSE       18.38 TCPU      272.39
 TTTTTTTTTTTTTTTTTTTTTTTTTTTTTT FDIK        TELAPSE       18.88 TCPU      288.25
 INSULATING STATE
 TOP OF VALENCE BANDS -    BAND     99; K    1; EIG -3.1067525E-01 AU
 BOTTOM OF VIRTUAL BANDS - BAND    100; K    1; EIG -1.5717357E-01 AU
 DIRECT ENERGY BAND GAP:   4.1770 eV
 TTTTTTTTTTTTTTTTTTTTTTTTTTTTTT PDIG        TELAPSE       19.16 TCPU      294.39
 CHARGE NORMALIZATION FACTOR   1.00000000
 TOTAL ATOMIC CHARGES:
   4.1547519   4.1572754   4.1584464   4.1601082   4.1574320   4.1539889
   0.7853819   0.7853435   0.7854258   0.7854552   0.7854296   0.7853438
   0.7863026   0.7858798   0.7850944   0.7856843   0.7856209   0.7858630
   6.0451130   6.2659699   6.2660657   6.2662318   6.2649187   6.0474007
   6.0418268   6.2668259   6.2650121   6.2675230   6.2673533   6.0453920
   6.0442796   6.2660641   6.2669622   6.2657372   6.2673612   6.0417916
   8.6956782   8.6949031   8.6943012   8.6944934   8.6930696   8.6968983
 TTTTTTTTTTTTTTTTTTTTTTTTTTTTTT MOQGAD      TELAPSE       19.21 TCPU      294.44
 TTTTTTTTTTTTTTTTTTTTTTTTTTTTTT SHELLXN     TELAPSE       26.72 TCPU      533.78
 TTTTTTTTTTTTTTTTTTTTTTTTTTTTTT MONMO3      TELAPSE       26.87 TCPU      538.58
 NUMERICALLY INTEGRATED DENSITY    198.0000039184
 TTTTTTTTTTTTTTTTTTTTTTTTTTTTTT NUMDFT      TELAPSE       27.43 TCPU      556.68
 CYC   1 ETOT(AU) -1.288815607874E+03 DETOT  7.13E+00 tst  0.00E+00 PX  1.00E+00
 TTTTTTTTTTTTTTTTTTTTTTTTTTTTTT DIIS        TELAPSE       27.48 TCPU      558.20
 DIIS TEST: 0.11032E+01 AT SCF   CYCLE   1 - MIX   30 %
 TTTTTTTTTTTTTTTTTTTTTTTTTTTTTT FDIK        TELAPSE       27.98 TCPU      574.17
 INSULATING STATE
 TOP OF VALENCE BANDS -    BAND     99; K    1; EIG -2.2027831E-01 AU
 BOTTOM OF VIRTUAL BANDS - BAND    100; K    1; EIG -7.9298916E-02 AU
 DIRECT ENERGY BAND GAP:   3.8362 eV
 TTTTTTTTTTTTTTTTTTTTTTTTTTTTTT PDIG        TELAPSE       28.28 TCPU      580.33
 CHARGE NORMALIZATION FACTOR   1.00000000
 TOTAL ATOMIC CHARGES:
   4.6994251   4.7039434   4.7040154   4.7045188   4.7032498   4.6994671
   0.9133487   0.9137080   0.9173823   0.9172955   0.9123175   0.9119333
   0.9129148   0.9131797   0.9128478   0.9134055   0.9170101   0.9172370
   5.8654839   6.1224672   6.1204563   6.1390326   6.1414941   5.8616860
   5.8741883   6.1296210   6.1320843   6.1349099   6.1326439   5.8697790
   5.8678711   6.1170911   6.1202570   6.1417086   6.1385638   5.8678951
   8.3362923   8.3349120   8.3469053   8.3334845   8.3440752   8.3398974
 TTTTTTTTTTTTTTTTTTTTTTTTTTTTTT MOQGAD      TELAPSE       28.33 TCPU      580.38
 TTTTTTTTTTTTTTTTTTTTTTTTTTTTTT SHELLXN     TELAPSE       35.83 TCPU      819.23
 TTTTTTTTTTTTTTTTTTTTTTTTTTTTTT MONMO3      TELAPSE       35.98 TCPU      824.05
 NUMERICALLY INTEGRATED DENSITY    198.0000072905
 TTTTTTTTTTTTTTTTTTTTTTTTTTTTTT NUMDFT      TELAPSE       36.54 TCPU      841.96
 CYC   2 ETOT(AU) -1.289010376739E+03 DETOT -1.95E-01 tst  4.14E-03 PX  1.58E-01
 TTTTTTTTTTTTTTTTTTTTTTTTTTTTTT DIIS        TELAPSE       36.59 TCPU      843.55
 DIIS TEST: 0.46337E+00 AT SCF   CYCLE   2 - DIIS ACTIVE - HISTORY:     2 CYCLES
 TTTTTTTTTTTTTTTTTTTTTTTTTTTTTT FDIK        TELAPSE       37.09 TCPU      859.50
 INSULATING STATE
 TOP OF VALENCE BANDS -    BAND     99; K    1; EIG -2.3375890E-01 AU
 BOTTOM OF VIRTUAL BANDS - BAND    100; K    1; EIG -7.4969698E-02 AU
 DIRECT ENERGY BAND GAP:   4.3209 eV
 TTTTTTTTTTTTTTTTTTTTTTTTTTTTTT PDIG        TELAPSE       37.38 TCPU      865.64
 CHARGE NORMALIZATION FACTOR   1.00000000
 TOTAL ATOMIC CHARGES:
   4.4930941   4.4953308   4.4957931   4.4971768   4.4949657   4.4923883
   0.8893395   0.8891692   0.8921194   0.8922987   0.8885908   0.8884635
   0.8901097   0.8895176   0.8881336   0.8893084   0.8924920   0.8920748
   5.8884354   6.1602980   6.1613640   6.1597963   6.1597747   5.8906015
   5.8947445   6.1584598   6.1586006   6.1612594   6.1611720   5.8962546
   5.8897673   6.1602215   6.1606561   6.1606824   6.1614649   5.8886196
   8.5141868   8.5136292   8.5111690   8.5131266   8.5090926   8.5162573
 TTTTTTTTTTTTTTTTTTTTTTTTTTTTTT MOQGAD      TELAPSE       37.43 TCPU      865.69
 TTTTTTTTTTTTTTTTTTTTTTTTTTTTTT SHELLXN     TELAPSE       44.92 TCPU     1104.73
 TTTTTTTTTTTTTTTTTTTTTTTTTTTTTT MONMO3      TELAPSE       45.08 TCPU     1109.57
 NUMERICALLY INTEGRATED DENSITY    198.0000070266
 TTTTTTTTTTTTTTTTTTTTTTTTTTTTTT NUMDFT      TELAPSE       45.64 TCPU     1127.62
 CYC   3 ETOT(AU) -1.289107076229E+03 DETOT -9.67E-02 tst  7.22E-04 PX  6.32E-02
 TTTTTTTTTTTTTTTTTTTTTTTTTTTTTT DIIS        TELAPSE       45.70 TCPU     1129.54
 DIIS TEST: 0.11885E-01 AT SCF   CYCLE   3 - DIIS ACTIVE - HISTORY:     3 CYCLES
 TTTTTTTTTTTTTTTTTTTTTTTTTTTTTT FDIK        TELAPSE       46.20 TCPU     1145.47
 INSULATING STATE
 TOP OF VALENCE BANDS -    BAND     99; K    1; EIG -2.4465889E-01 AU
 BOTTOM OF VIRTUAL BANDS - BAND    100; K    1; EIG -8.4018164E-02 AU
 DIRECT ENERGY BAND GAP:   4.3713 eV
 TTTTTTTTTTTTTTTTTTTTTTTTTTTTTT PDIG        TELAPSE       46.49 TCPU     1151.61
 CHARGE NORMALIZATION FACTOR   1.00000000
 TOTAL ATOMIC CHARGES:
   4.5000628   4.5005400   4.5007479   4.5020768   4.4998582   4.4996915
   0.8725663   0.8729735   0.8746678   0.8747516   0.8707970   0.8706510
   0.8720123   0.8719444   0.8720183   0.8727760   0.8747947   0.8749221
   5.9409147   6.1592891   6.1569412   6.1712877   6.1719457   5.9381472
   5.9462962   6.1652128   6.1656586   6.1675979   6.1660832   5.9445361
   5.9414409   6.1558839   6.1582546   6.1726203   6.1708444   5.9401734
   8.4793162   8.4779989   8.4875154   8.4768428   8.4853850   8.4819615
 TTTTTTTTTTTTTTTTTTTTTTTTTTTTTT MOQGAD      TELAPSE       46.53 TCPU     1151.66
 TTTTTTTTTTTTTTTTTTTTTTTTTTTTTT SHELLXN     TELAPSE       54.03 TCPU     1390.81
 TTTTTTTTTTTTTTTTTTTTTTTTTTTTTT MONMO3      TELAPSE       54.19 TCPU     1395.64
 NUMERICALLY INTEGRATED DENSITY    198.0000066375
 TTTTTTTTTTTTTTTTTTTTTTTTTTTTTT NUMDFT      TELAPSE       54.75 TCPU     1413.75
 CYC   4 ETOT(AU) -1.289109533254E+03 DETOT -2.46E-03 tst  2.86E-05 PX  1.26E-02
 TTTTTTTTTTTTTTTTTTTTTTTTTTTTTT DIIS        TELAPSE       54.81 TCPU     1415.63
 DIIS TEST: 0.40446E-02 AT SCF   CYCLE   4 - DIIS ACTIVE - HISTORY:     4 CYCLES
 TTTTTTTTTTTTTTTTTTTTTTTTTTTTTT FDIK        TELAPSE       55.31 TCPU     1431.68
 INSULATING STATE
 TOP OF VALENCE BANDS -    BAND     99; K    1; EIG -2.4255333E-01 AU
 BOTTOM OF VIRTUAL BANDS - BAND    100; K    1; EIG -8.3268589E-02 AU
 DIRECT ENERGY BAND GAP:   4.3344 eV
 TTTTTTTTTTTTTTTTTTTTTTTTTTTTTT PDIG        TELAPSE       55.61 TCPU     1437.83
 CHARGE NORMALIZATION FACTOR   1.00000000
 TOTAL ATOMIC CHARGES:
   4.5002768   4.5027530   4.5031379   4.5043317   4.5022181   4.4997677
   0.8757734   0.8757019   0.8783760   0.8784448   0.8746568   0.8744459
   0.8759478   0.8755481   0.8748106   0.8758324   0.8785949   0.8783959
   5.9190256   6.1619285   6.1624308   6.1689544   6.1695013   5.9200939
   5.9245458   6.1650364   6.1656708   6.1678607   6.1672787   5.9248209
   5.9207537   6.1607814   6.1618142   6.1699710   6.1699106   5.9197113
   8.4917192   8.4908209   8.4931709   8.4901557   8.4909917   8.4940377
 TTTTTTTTTTTTTTTTTTTTTTTTTTTTTT MOQGAD      TELAPSE       55.65 TCPU     1437.88
 TTTTTTTTTTTTTTTTTTTTTTTTTTTTTT SHELLXN     TELAPSE       63.13 TCPU     1676.32
 TTTTTTTTTTTTTTTTTTTTTTTTTTTTTT MONMO3      TELAPSE       63.28 TCPU     1681.14
 NUMERICALLY INTEGRATED DENSITY    198.0000067911
 TTTTTTTTTTTTTTTTTTTTTTTTTTTTTT NUMDFT      TELAPSE       63.85 TCPU     1699.20
 CYC   5 ETOT(AU) -1.289110458601E+03 DETOT -9.25E-04 tst  5.88E-06 PX  6.75E-03
 TTTTTTTTTTTTTTTTTTTTTTTTTTTTTT DIIS        TELAPSE       63.92 TCPU     1701.44
 DIIS TEST: 0.74022E-04 AT SCF   CYCLE   5 - DIIS ACTIVE - HISTORY:     5 CYCLES
 TTTTTTTTTTTTTTTTTTTTTTTTTTTTTT FDIK        TELAPSE       64.42 TCPU     1717.53
 INSULATING STATE
 TOP OF VALENCE BANDS -    BAND     99; K    1; EIG -2.4230803E-01 AU
 BOTTOM OF VIRTUAL BANDS - BAND    100; K    1; EIG -8.2677548E-02 AU
 DIRECT ENERGY BAND GAP:   4.3438 eV
 TTTTTTTTTTTTTTTTTTTTTTTTTTTTTT PDIG        TELAPSE       64.71 TCPU     1723.68
 CHARGE NORMALIZATION FACTOR   1.00000000
 TOTAL ATOMIC CHARGES:
   4.5006285   4.5021277   4.5024132   4.5036987   4.5015474   4.5001617
   0.8766288   0.8769152   0.8792889   0.8794230   0.8755590   0.8754291
   0.8768231   0.8766172   0.8759352   0.8767911   0.8794616   0.8794657
   5.9204368   6.1620837   6.1602448   6.1689631   6.1692567   5.9185660
   5.9257313   6.1646539   6.1648127   6.1671817   6.1662118   5.9250074
   5.9208718   6.1593771   6.1612670   6.1702470   6.1690880   5.9195482
   8.4902029   8.4892284   8.4946473   8.4881491   8.4925782   8.4927303
 TTTTTTTTTTTTTTTTTTTTTTTTTTTTTT MOQGAD      TELAPSE       64.76 TCPU     1723.72
 TTTTTTTTTTTTTTTTTTTTTTTTTTTTTT SHELLXN     TELAPSE       72.26 TCPU     1962.76
 TTTTTTTTTTTTTTTTTTTTTTTTTTTTTT MONMO3      TELAPSE       72.41 TCPU     1967.57
 NUMERICALLY INTEGRATED DENSITY    198.0000067946
 TTTTTTTTTTTTTTTTTTTTTTTTTTTTTT NUMDFT      TELAPSE       72.98 TCPU     1985.73
 CYC   6 ETOT(AU) -1.289110476175E+03 DETOT -1.76E-05 tst  1.87E-07 PX  1.13E-03
 TTTTTTTTTTTTTTTTTTTTTTTTTTTTTT DIIS        TELAPSE       73.05 TCPU     1987.92
 DIIS TEST: 0.12862E-04 AT SCF   CYCLE   6 - DIIS ACTIVE - HISTORY:     6 CYCLES
 TTTTTTTTTTTTTTTTTTTTTTTTTTTTTT FDIK        TELAPSE       73.54 TCPU     2003.63
 INSULATING STATE
 TOP OF VALENCE BANDS -    BAND     99; K    1; EIG -2.4234572E-01 AU
 BOTTOM OF VIRTUAL BANDS - BAND    100; K    1; EIG -8.2754468E-02 AU
 DIRECT ENERGY BAND GAP:   4.3427 eV
 TTTTTTTTTTTTTTTTTTTTTTTTTTTTTT PDIG        TELAPSE       73.83 TCPU     2009.78
 CHARGE NORMALIZATION FACTOR   1.00000000
 TOTAL ATOMIC CHARGES:
   4.5004325   4.5024373   4.5028099   4.5040620   4.5019168   4.4999274
   0.8767263   0.8767222   0.8792555   0.8793306   0.8755353   0.8753333
   0.8768242   0.8764829   0.8758145   0.8768059   0.8794778   0.8793079
   5.9195430   6.1610852   6.1612882   6.1683844   6.1689707   5.9202560
   5.9254294   6.1642559   6.1649102   6.1671329   6.1662258   5.9252964
   5.9211387   6.1596873   6.1609367   6.1694641   6.1691675   5.9200668
   8.4908655   8.4898453   8.4933355   8.4891679   8.4911608   8.4931835
 TTTTTTTTTTTTTTTTTTTTTTTTTTTTTT MOQGAD      TELAPSE       73.88 TCPU     2009.83
 TTTTTTTTTTTTTTTTTTTTTTTTTTTTTT SHELLXN     TELAPSE       81.37 TCPU     2248.70
 TTTTTTTTTTTTTTTTTTTTTTTTTTTTTT MONMO3      TELAPSE       81.52 TCPU     2253.52
 NUMERICALLY INTEGRATED DENSITY    198.0000067949
 TTTTTTTTTTTTTTTTTTTTTTTTTTTTTT NUMDFT      TELAPSE       82.09 TCPU     2271.61
 CYC   7 ETOT(AU) -1.289110478277E+03 DETOT -2.10E-06 tst  5.47E-08 PX  4.84E-04
 TTTTTTTTTTTTTTTTTTTTTTTTTTTTTT DIIS        TELAPSE       82.17 TCPU     2274.28
 DIIS TEST: 0.17814E-05 AT SCF   CYCLE   7 - DIIS ACTIVE - HISTORY:     7 CYCLES
 TTTTTTTTTTTTTTTTTTTTTTTTTTTTTT FDIK        TELAPSE       82.67 TCPU     2290.32
 INSULATING STATE
 TOP OF VALENCE BANDS -    BAND     99; K    1; EIG -2.4234550E-01 AU
 BOTTOM OF VIRTUAL BANDS - BAND    100; K    1; EIG -8.2776217E-02 AU
 DIRECT ENERGY BAND GAP:   4.3421 eV
 TTTTTTTTTTTTTTTTTTTTTTTTTTTTTT PDIG        TELAPSE       82.96 TCPU     2296.46
 CHARGE NORMALIZATION FACTOR   1.00000000
 TOTAL ATOMIC CHARGES:
   4.5005524   4.5024988   4.5028366   4.5040766   4.5019370   4.5000561
   0.8766308   0.8767380   0.8792105   0.8793129   0.8754826   0.8753155
   0.8767775   0.8764588   0.8757980   0.8767419   0.8794128   0.8793087
   5.9200259   6.1615017   6.1608126   6.1685821   6.1689863   5.9195447
   5.9253373   6.1644537   6.1648235   6.1670407   6.1663810   5.9252044
   5.9210649   6.1595787   6.1610031   6.1696929   6.1691282   5.9199159
   8.4907172   8.4898107   8.4936508   8.4889138   8.4915181   8.4931665
 TTTTTTTTTTTTTTTTTTTTTTTTTTTTTT MOQGAD      TELAPSE       83.01 TCPU     2296.51
 TTTTTTTTTTTTTTTTTTTTTTTTTTTTTT SHELLXN     TELAPSE       90.51 TCPU     2535.48
 TTTTTTTTTTTTTTTTTTTTTTTTTTTTTT MONMO3      TELAPSE       90.66 TCPU     2540.29
 NUMERICALLY INTEGRATED DENSITY    198.0000067949
 TTTTTTTTTTTTTTTTTTTTTTTTTTTTTT NUMDFT      TELAPSE       91.23 TCPU     2558.40
 CYC   8 ETOT(AU) -1.289110478592E+03 DETOT -3.15E-07 tst  1.23E-08 PX  1.72E-04
 TTTTTTTTTTTTTTTTTTTTTTTTTTTTTT DIIS        TELAPSE       91.31 TCPU     2561.00
 DIIS TEST: 0.14216E-06 AT SCF   CYCLE   8 - DIIS ACTIVE - HISTORY:     8 CYCLES
 TTTTTTTTTTTTTTTTTTTTTTTTTTTTTT FDIK        TELAPSE       91.81 TCPU     2577.19
 INSULATING STATE
 TOP OF VALENCE BANDS -    BAND     99; K    1; EIG -2.4234624E-01 AU
 BOTTOM OF VIRTUAL BANDS - BAND    100; K    1; EIG -8.2772417E-02 AU
 DIRECT ENERGY BAND GAP:   4.3422 eV
 TTTTTTTTTTTTTTTTTTTTTTTTTTTTTT PDIG        TELAPSE       92.11 TCPU     2583.34
 CHARGE NORMALIZATION FACTOR   1.00000000
 TOTAL ATOMIC CHARGES:
   4.5005549   4.5024651   4.5028060   4.5040633   4.5019196   4.5000676
   0.8766338   0.8767188   0.8792105   0.8793036   0.8754857   0.8753054
   0.8767638   0.8764665   0.8757882   0.8767370   0.8794132   0.8793012
   5.9197789   6.1614045   6.1609780   6.1685628   6.1690641   5.9197185
   5.9254488   6.1643989   6.1649011   6.1671836   6.1662473   5.9251222
   5.9210442   6.1596021   6.1610513   6.1697286   6.1691398   5.9198629
   8.4907236   8.4897244   8.4937103   8.4889237   8.4915736   8.4931029
 TTTTTTTTTTTTTTTTTTTTTTTTTTTTTT MOQGAD      TELAPSE       92.15 TCPU     2583.39
 TTTTTTTTTTTTTTTTTTTTTTTTTTTTTT SHELLXN     TELAPSE       99.65 TCPU     2822.36
 +++ ENERGIES IN A.U. +++
 ::: EXT EL-POLE                                  -1.2559495691954E+03
 ::: EXT EL-SPHEROPOLE                             1.4302489581613E+01
 ::: BIELET ZONE E-E                               2.1281139431783E+03
 ::: TOTAL E-E                                     8.8646686356453E+02
 ::: TOTAL E-N + N-E                              -3.6023062746403E+03
 ::: TOTAL N-N                                     2.8053522771598E+02
 ::: KINETIC ENERGY                                1.2799035981924E+03
 ::: PSEUDO TOTAL   ENERGY                        -1.1554005851674E+03
 ::: VIRIAL COEFFICIENT                            1.0511242143285E+00
 TTTTTTTTTTTTTTTTTTTTTTTTTTTTTT MONMO3      TELAPSE       99.80 TCPU     2827.19
 NUMERICALLY INTEGRATED DENSITY    198.0000067947
 EXCHANGE ENERGY: -0.126020042912E+03  CORRELATION ENERGY: -0.768985057419E+01
 TTTTTTTTTTTTTTTTTTTTTTTTTTTTTT NUMDFT      TELAPSE      100.37 TCPU     2845.41
 CYC   9 ETOT(AU) -1.289110478654E+03 DETOT -6.17E-08 tst  1.68E-09 PX  1.72E-04

 == SCF ENDED - CONVERGENCE ON ENERGY      E(AU) -1.2891104786540E+03 CYCLES   9


 ENERGY EXPRESSION=HARTREE+FOCK EXCH*0.00000+(HSESOL     EXCH)*1.00000+PBESOL     CORR


 TOTAL ENERGY(DFT)(AU)(  9) -1.2891104786540E+03 DE-6.2E-08 tester 1.7E-09
 TTTTTTTTTTTTTTTTTTTTTTTTTTTTTT EDFT        TELAPSE      100.37 TCPU     2845.42
 
 INFORMATION **** DFTD3 ENERGY **** CALCULATE DFTD3 ENERGY

           DFT-D V3(BJ)
 DF                                         hsesol3c  
 parameters
 s6       :    1.0000
 s8       :    0.0000
 a1       :    0.5196
 a2       :    4.9385
 k1 k3    :   16.0000   -4.0000
 Cutoff   :   50.2022
 CN-Cutoff:   21.1671
 ABC-Cutoff:   21.1671
 
 Edisp /kcal,au:   -25.5810 -0.04076593

 E6    /kcal :   -27.2248
 E8    /kcal :     0.0000
 E6(ABC) "   :   1.643825
 
 INFORMATION **** DFTD3 ENERGY **** NORMAL TERMINATION OF DFTD3 MODULE

 GCP ENERGY CALCULATION
  level        hsesol3c            basis:hsesol3c
  Nbf            474
  Atoms           42

  Parameters: 
  sigma     1.0000
  eta       1.4281
  alpha     0.2936
  beta      1.9467

  dmp_scal      4.0000
  dmp_exp       6.0000
 cutoffs: 
   distance [bohr] 60.0
   noise    [a.u.] 2.2E-16
 SR-damping   T
 ** gCP correction **
  Egcp:        0.0829888765 / (a.u.) ||      52.0763 / (kcal/mol)
 INFORMATION **** GCP **** NORMAL TERMINATION OF GCP MODULE

 *******************************************************************************

 DFT-D3-GCP DISPERSION AND COUNTERPOISE CORRECTION

 D3 DISPERSION ENERGY (AU)      -4.0765934792115E-02
 GCP ENERGY (AU)                 8.2988876464757E-02
 TOTAL ENERGY + DISP + GCP (AU) -1.2890682557123E+03

 *******************************************************************************

 EIGENVECTORS IN FORTRAN UNIT 10
 TTTTTTTTTTTTTTTTTTTTTTTTTTTTTT END         TELAPSE      101.49 TCPU     2852.50
 EEEEEEEEEE TERMINATION  DATE 02 12 2025 TIME 08:05:34.7
