 Default number of threads is:           32

         
 *******************************************************************************
 *                                                                             *
 *                               CRYSTAL23                                     *
 *                      public : 1.0.1 - October 2022                          *
 *                       HTTP://WWW.CRYSTAL.UNITO.IT                           *
 *                                                                             *
 *                              MAIN AUTHORS                                   *
 *                                                                             *
 *  R. DOVESI(1,11), V.R. SAUNDERS(2), C. ROETTI(1,11), R. ORLANDO(1,11),      *
 *  C.M. ZICOVICH-WILSON(1,3), F. PASCALE(4), B. CIVALLERI(1,11),              *
 *  K. DOLL(5), N.M. HARRISON(6), I.J. BUSH(7), Ph. D'ARCO(8),                 *
 *  M. LLUNELL(9), M. CAUSA'(10), Y. NOEL(8), L. MASCHIO(1,11), A. ERBA(1,11)  *
 *  M. RE'RAT(14), S. CASASSA(1,11), B.G. SEARLE(2), J.K. DESMARAIS(1)         *
 *                                                                             *
 *        CONTRIBUTIONS TO THE CODE HAVE ALSO BEEN GIVEN BY                    *
 *                                                                             *
 *  M. FERRABONE(1,11), M. DE LA PIERRE(1,11), M. FERRERO(1,11),               *
 *  J. BAIMA(1,11), E. ALBANESE(1,11), M.F. PEINTINGER(12), R. BAST(13),       *
 *  B. KIRTMAN(15), V. LACIVITA(1,11), R. DEMICHELIS(1,16)                     *
 *  G. BRANDEBURG(17), S. SALUSTRO(1,11), G. SANSONE(1,11)                     *
 *  M.T. RUGGIERO(18), L.E. DAGA(1), L. DONA'(1), A. COSSARD(1)                *
 *                                                                             *
 * (1) THEORETICAL CHEMISTRY GROUP - UNIVERSITA' DI TORINO - TORINO (ITALY)    *
 * (2) SCIENTIFIC COMPUTING DEPARTMENT - STFC DARESBURY (UK)                   *
 * (3) UNIVERSIDAD AUTONOMA DEL ESTADO DE MORELOS - CUERNAVACA (MEXICO)        *
 * (4) UNIVERSITE' DE LORRAINE - NANCY (FRANCE)                                *
 * (5) UNIVERSITAET STUTTGART- STUTTGART (GERMANY)                             *
 * (6) IMPERIAL COLLEGE - LONDON (UK)                                          *
 * (7) SCIENTIFIC COMPUTING DEPARTMENT - STFC RAL (UK)                         *
 * (8) UPMC - SORBONNE UNIVERSITES - PARIS (FRANCE)                            *
 * (9) UNIVERSIDAD DE BARCELONA - BARCELONA (SPAIN)                            *
 *(10) UNIVERSITA' DI NAPOLI "FEDERICO II" - NAPOLI (ITALY)                    *
 *(11) NIS - NANOSTRUCTURED INTERFACES AND SURFACES - TORINO (ITALY)           *
 *(12) MPI FUER CHEMISCHE ENERGIEKONVERSION - MUELHEIM AN DER RUHR (GERMANY)   *
 *(13) UNIVERSITY OF TROMSO - TROMSO (NORWAY)                                  *
 *(14) UNIVERSITE' DE PAU ET DES PAYS DE L'ADOUR - PAU (FRANCE)                *
 *(15) UNIVERSITY OF CALIFORNIA SANTA BARBARA - SANTA BARBARA (USA)            *
 *(16) CURTIN UNIVERSITY - PERTH (AUSTRALIA)                                   *
 *(17) UNIVERSITY COLLEGE LONDON - LONDON (UK)                                 *
 *(18) UNIVERSITY OF VERMONT - BURLINGTON (USA)                                *
 *                                                                             *
 *******************************************************************************
 EEEEEEEEEE STARTING  DATE 19 02 2026 TIME 19:35:04.8
 cof-1_z31_L000_serr                                                             

 CRYSTAL CALCULATION
 (INPUT ACCORDING TO THE INTERNATIONAL TABLES FOR X-RAY CRYSTALLOGRAPHY)
 CRYSTAL FAMILY                       :  TRICLINIC   
 CRYSTAL CLASS  (GROTH - 1921)        :  TRICLINIC PEDIAL                     

 SPACE GROUP (NONCENTROSYMMETRIC)     :  P 1             

 LATTICE PARAMETERS  (ANGSTROMS AND DEGREES) - CONVENTIONAL CELL
        A           B           C        ALPHA        BETA       GAMMA
    15.02361    15.02392     6.20000    90.00032    89.99994   119.99596


 NUMBER OF IRREDUCIBLE ATOMS IN THE CONVENTIONAL CELL:   84

 INPUT COORDINATES

 ATOM AT. N.              COORDINATES
   1   5     6.136805400000E-01  2.273182200000E-01  2.507704400000E-01
   2   5     6.136805400000E-01  2.273182200000E-01  7.507704400000E-01
   3   5     7.727362000000E-01  3.863778800000E-01  2.507704500000E-01
   4   5     7.727362000000E-01  3.863778800000E-01  7.507704500000E-01
   5   5     6.136762700000E-01  3.863606700000E-01  2.491505800000E-01
   6   5     6.136762700000E-01  3.863606700000E-01  7.491505800000E-01
   7   5     2.272552500000E-01  6.136332200000E-01  2.507704500000E-01
   8   5     2.272552500000E-01  6.136332200000E-01  7.507704500000E-01
   9   5     3.863632200000E-01  6.136124500000E-01  2.507704400000E-01
  10   5     3.863632200000E-01  6.136124500000E-01  7.507704400000E-01
  11   5     3.863435000000E-01  7.727516500000E-01  2.491505800000E-01
  12   5     3.863435000000E-01  7.727516500000E-01  7.491505800000E-01
  13   1     9.030436200000E-01  3.089300500000E-01  2.474121300000E-01
  14   1     9.030436200000E-01  3.089300500000E-01  7.474121300000E-01
  15   1     9.663453000000E-02  6.910534400000E-01  2.468985900000E-01
  16   1     9.663453000000E-02  6.910534400000E-01  7.468985900000E-01
  17   1     9.029714200000E-01  5.940724300000E-01  2.468195500000E-01
  18   1     9.029714200000E-01  5.940724300000E-01  7.468195500000E-01
  19   1     9.673618000000E-02  4.056849400000E-01  2.468392700000E-01
  20   1     9.673618000000E-02  4.056849400000E-01  7.468392700000E-01
  21   1     6.910324000000E-01  9.700412000000E-02  2.525878900000E-01
  22   1     6.910324000000E-01  9.700412000000E-02  7.525878900000E-01
  23   1     3.089297200000E-01  9.034373100000E-01  2.531014700000E-01
  24   1     3.089297200000E-01  9.034373100000E-01  7.531014700000E-01
  25   1     4.058699900000E-01  9.704998000000E-02  2.531805500000E-01
  26   1     4.058699900000E-01  9.704998000000E-02  7.531805600000E-01
  27   1     5.943122100000E-01  9.033473200000E-01  2.531607000000E-01
  28   1     5.943122100000E-01  9.033473200000E-01  7.531607000000E-01
  29   1     6.910727400000E-01  5.940542100000E-01  2.474121600000E-01
  30   1     6.910727400000E-01  5.940542100000E-01  7.474121600000E-01
  31   1     3.089618300000E-01  4.056093300000E-01  2.468985500000E-01
  32   1     3.089618300000E-01  4.056093300000E-01  7.468985500000E-01
  33   1     4.058405700000E-01  3.088232500000E-01  2.468194900000E-01
  34   1     4.058405700000E-01  3.088232500000E-01  7.468194900000E-01
  35   1     5.942908800000E-01  6.909579300000E-01  2.468393300000E-01
  36   1     5.942908800000E-01  6.909579300000E-01  7.468393300000E-01
  37   6     8.918903100000E-01  4.459436900000E-01  2.490913100000E-01
  38   6     8.918903100000E-01  4.459436900000E-01  7.490913000000E-01
  39   6     9.464891100000E-01  3.927856300000E-01  2.474911700000E-01
  40   6     9.464891100000E-01  3.927856300000E-01  7.474911700000E-01
  41   6     5.338812000000E-02  6.071853000000E-01  2.473529300000E-01
  42   6     5.338812000000E-02  6.071853000000E-01  7.473529300000E-01
  43   6     9.464521100000E-01  5.536921900000E-01  2.477677700000E-01
  44   6     9.464521100000E-01  5.536921900000E-01  7.477677700000E-01
  45   6     5.342634000000E-02  4.462499700000E-01  2.467009900000E-01
  46   6     5.342634000000E-02  4.462499700000E-01  7.467009900000E-01
  47   6     1.080358900000E-01  5.540356300000E-01  2.477875100000E-01
  48   6     1.080358900000E-01  5.540356300000E-01  7.477875100000E-01
  49   6     5.540394200000E-01  1.081684600000E-01  2.509087300000E-01
  50   6     5.540394200000E-01  1.081684600000E-01  7.509087300000E-01
  51   6     6.071778500000E-01  5.355594000000E-02  2.525088500000E-01
  52   6     6.071778500000E-01  5.355594000000E-02  7.525088500000E-01
  53   6     3.927986700000E-01  9.466631600000E-01  2.526471400000E-01
  54   6     3.927986700000E-01  9.466631600000E-01  7.526471400000E-01
  55   6     4.462875800000E-01  5.360286000000E-02  2.522323000000E-01
  56   6     4.462875800000E-01  5.360286000000E-02  7.522323000000E-01
  57   6     5.537168500000E-01  9.466235600000E-01  2.532990200000E-01
  58   6     5.537168500000E-01  9.466235600000E-01  7.532990100000E-01
  59   6     4.459279100000E-01  8.919920600000E-01  2.522125300000E-01
  60   6     4.459279100000E-01  8.919920600000E-01  7.522125300000E-01
  61   6     5.540448700000E-01  4.458745500000E-01  2.490913100000E-01
  62   6     5.540448700000E-01  4.458745500000E-01  7.490913000000E-01
  63   6     6.072102200000E-01  5.536257800000E-01  2.474911900000E-01
  64   6     6.072102200000E-01  5.536257800000E-01  7.474912000000E-01
  65   6     3.928233700000E-01  4.461720300000E-01  2.473529000000E-01
  66   6     3.928233700000E-01  4.461720300000E-01  7.473529000000E-01
  67   6     4.462872600000E-01  3.926899900000E-01  2.477677300000E-01
  68   6     4.462872600000E-01  3.926899900000E-01  7.477677300000E-01
  69   6     5.537429600000E-01  6.070980000000E-01  2.467010200000E-01
  70   6     5.537429600000E-01  6.070980000000E-01  7.467010300000E-01
  71   6     4.459599800000E-01  5.539582300000E-01  2.477875100000E-01
  72   6     4.459599800000E-01  5.539582300000E-01  7.477875100000E-01
  73   8     5.607366800000E-01  2.803706300000E-01  2.495851700000E-01
  74   8     5.607366800000E-01  2.803706300000E-01  7.495851700000E-01
  75   8     7.196817000000E-01  2.803783300000E-01  2.530027000000E-01
  76   8     7.196817000000E-01  2.803783300000E-01  7.530027000000E-01
  77   8     7.196794200000E-01  4.393234600000E-01  2.478467900000E-01
  78   8     7.196794200000E-01  4.393234600000E-01  7.478467900000E-01
  79   8     2.803245100000E-01  7.196511100000E-01  2.495851900000E-01
  80   8     2.803245100000E-01  7.196511100000E-01  7.495851900000E-01
  81   8     2.803439700000E-01  5.606956100000E-01  2.530027000000E-01
  82   8     2.803439700000E-01  5.606956100000E-01  7.530027000000E-01
  83   8     4.392638400000E-01  7.196354200000E-01  2.478467700000E-01
  84   8     4.392638400000E-01  7.196354200000E-01  7.478467800000E-01

 *******************************************************************************

 << INFORMATION >>: FROM NOW ON, ALL COORDINATES REFER TO THE PRIMITIVE CELL

 *******************************************************************************

 LATTICE PARAMETERS  (ANGSTROMS AND DEGREES) - PRIMITIVE CELL
       A          B          C        ALPHA      BETA     GAMMA        VOLUME
   15.02361   15.02392    6.20000    90.00032  89.99994 119.99596   1211.985598

 COORDINATES OF THE EQUIVALENT ATOMS (FRACTIONAL UNITS)

 N. ATOM EQUIV AT. N.          X                  Y                  Z

   1   1   1    5 B    -3.86319460000E-01  2.27318220000E-01  2.50770440000E-01

   2   2   1    5 B    -3.86319460000E-01  2.27318220000E-01 -2.49229560000E-01

   3   3   1    5 B    -2.27263800000E-01  3.86377880000E-01  2.50770450000E-01

   4   4   1    5 B    -2.27263800000E-01  3.86377880000E-01 -2.49229550000E-01

   5   5   1    5 B    -3.86323730000E-01  3.86360670000E-01  2.49150580000E-01

   6   6   1    5 B    -3.86323730000E-01  3.86360670000E-01 -2.50849420000E-01

   7   7   1    5 B     2.27255250000E-01 -3.86366780000E-01  2.50770450000E-01

   8   8   1    5 B     2.27255250000E-01 -3.86366780000E-01 -2.49229550000E-01

   9   9   1    5 B     3.86363220000E-01 -3.86387550000E-01  2.50770440000E-01

  10  10   1    5 B     3.86363220000E-01 -3.86387550000E-01 -2.49229560000E-01

  11  11   1    5 B     3.86343500000E-01 -2.27248350000E-01  2.49150580000E-01

  12  12   1    5 B     3.86343500000E-01 -2.27248350000E-01 -2.50849420000E-01

  13  13   1    1 H    -9.69563800000E-02  3.08930050000E-01  2.47412130000E-01

  14  14   1    1 H    -9.69563800000E-02  3.08930050000E-01 -2.52587870000E-01

  15  15   1    1 H     9.66345300000E-02 -3.08946560000E-01  2.46898590000E-01

  16  16   1    1 H     9.66345300000E-02 -3.08946560000E-01 -2.53101410000E-01

  17  17   1    1 H    -9.70285800000E-02 -4.05927570000E-01  2.46819550000E-01

  18  18   1    1 H    -9.70285800000E-02 -4.05927570000E-01 -2.53180450000E-01

  19  19   1    1 H     9.67361800000E-02  4.05684940000E-01  2.46839270000E-01

  20  20   1    1 H     9.67361800000E-02  4.05684940000E-01 -2.53160730000E-01

  21  21   1    1 H    -3.08967600000E-01  9.70041200000E-02  2.52587890000E-01

  22  22   1    1 H    -3.08967600000E-01  9.70041200000E-02 -2.47412110000E-01

  23  23   1    1 H     3.08929720000E-01 -9.65626900000E-02  2.53101470000E-01

  24  24   1    1 H     3.08929720000E-01 -9.65626900000E-02 -2.46898530000E-01

  25  25   1    1 H     4.05869990000E-01  9.70499800000E-02  2.53180550000E-01

  26  26   1    1 H     4.05869990000E-01  9.70499800000E-02 -2.46819440000E-01

  27  27   1    1 H    -4.05687790000E-01 -9.66526800000E-02  2.53160700000E-01

  28  28   1    1 H    -4.05687790000E-01 -9.66526800000E-02 -2.46839300000E-01

  29  29   1    1 H    -3.08927260000E-01 -4.05945790000E-01  2.47412160000E-01

  30  30   1    1 H    -3.08927260000E-01 -4.05945790000E-01 -2.52587840000E-01

  31  31   1    1 H     3.08961830000E-01  4.05609330000E-01  2.46898550000E-01

  32  32   1    1 H     3.08961830000E-01  4.05609330000E-01 -2.53101450000E-01

  33  33   1    1 H     4.05840570000E-01  3.08823250000E-01  2.46819490000E-01

  34  34   1    1 H     4.05840570000E-01  3.08823250000E-01 -2.53180510000E-01

  35  35   1    1 H    -4.05709120000E-01 -3.09042070000E-01  2.46839330000E-01

  36  36   1    1 H    -4.05709120000E-01 -3.09042070000E-01 -2.53160670000E-01

  37  37   1    6 C    -1.08109690000E-01  4.45943690000E-01  2.49091310000E-01

  38  38   1    6 C    -1.08109690000E-01  4.45943690000E-01 -2.50908700000E-01

  39  39   1    6 C    -5.35108900000E-02  3.92785630000E-01  2.47491170000E-01

  40  40   1    6 C    -5.35108900000E-02  3.92785630000E-01 -2.52508830000E-01

  41  41   1    6 C     5.33881200000E-02 -3.92814700000E-01  2.47352930000E-01

  42  42   1    6 C     5.33881200000E-02 -3.92814700000E-01 -2.52647070000E-01

  43  43   1    6 C    -5.35478900000E-02 -4.46307810000E-01  2.47767770000E-01

  44  44   1    6 C    -5.35478900000E-02 -4.46307810000E-01 -2.52232230000E-01

  45  45   1    6 C     5.34263400000E-02  4.46249970000E-01  2.46700990000E-01

  46  46   1    6 C     5.34263400000E-02  4.46249970000E-01 -2.53299010000E-01

  47  47   1    6 C     1.08035890000E-01 -4.45964370000E-01  2.47787510000E-01

  48  48   1    6 C     1.08035890000E-01 -4.45964370000E-01 -2.52212490000E-01

  49  49   1    6 C    -4.45960580000E-01  1.08168460000E-01  2.50908730000E-01

  50  50   1    6 C    -4.45960580000E-01  1.08168460000E-01 -2.49091270000E-01

  51  51   1    6 C    -3.92822150000E-01  5.35559400000E-02  2.52508850000E-01

  52  52   1    6 C    -3.92822150000E-01  5.35559400000E-02 -2.47491150000E-01

  53  53   1    6 C     3.92798670000E-01 -5.33368400000E-02  2.52647140000E-01

  54  54   1    6 C     3.92798670000E-01 -5.33368400000E-02 -2.47352860000E-01

  55  55   1    6 C     4.46287580000E-01  5.36028600000E-02  2.52232300000E-01

  56  56   1    6 C     4.46287580000E-01  5.36028600000E-02 -2.47767700000E-01

  57  57   1    6 C    -4.46283150000E-01 -5.33764400000E-02  2.53299020000E-01

  58  58   1    6 C    -4.46283150000E-01 -5.33764400000E-02 -2.46700990000E-01

  59  59   1    6 C     4.45927910000E-01 -1.08007940000E-01  2.52212530000E-01

  60  60   1    6 C     4.45927910000E-01 -1.08007940000E-01 -2.47787470000E-01

  61  61   1    6 C    -4.45955130000E-01  4.45874550000E-01  2.49091310000E-01

  62  62   1    6 C    -4.45955130000E-01  4.45874550000E-01 -2.50908700000E-01

  63  63   1    6 C    -3.92789780000E-01 -4.46374220000E-01  2.47491190000E-01

  64  64   1    6 C    -3.92789780000E-01 -4.46374220000E-01 -2.52508800000E-01

  65  65   1    6 C     3.92823370000E-01  4.46172030000E-01  2.47352900000E-01

  66  66   1    6 C     3.92823370000E-01  4.46172030000E-01 -2.52647100000E-01

  67  67   1    6 C     4.46287260000E-01  3.92689990000E-01  2.47767730000E-01

  68  68   1    6 C     4.46287260000E-01  3.92689990000E-01 -2.52232270000E-01

  69  69   1    6 C    -4.46257040000E-01 -3.92902000000E-01  2.46701020000E-01

  70  70   1    6 C    -4.46257040000E-01 -3.92902000000E-01 -2.53298970000E-01

  71  71   1    6 C     4.45959980000E-01 -4.46041770000E-01  2.47787510000E-01

  72  72   1    6 C     4.45959980000E-01 -4.46041770000E-01 -2.52212490000E-01

  73  73   1    8 O    -4.39263320000E-01  2.80370630000E-01  2.49585170000E-01

  74  74   1    8 O    -4.39263320000E-01  2.80370630000E-01 -2.50414830000E-01

  75  75   1    8 O    -2.80318300000E-01  2.80378330000E-01  2.53002700000E-01

  76  76   1    8 O    -2.80318300000E-01  2.80378330000E-01 -2.46997300000E-01

  77  77   1    8 O    -2.80320580000E-01  4.39323460000E-01  2.47846790000E-01

  78  78   1    8 O    -2.80320580000E-01  4.39323460000E-01 -2.52153210000E-01

  79  79   1    8 O     2.80324510000E-01 -2.80348890000E-01  2.49585190000E-01

  80  80   1    8 O     2.80324510000E-01 -2.80348890000E-01 -2.50414810000E-01

  81  81   1    8 O     2.80343970000E-01 -4.39304390000E-01  2.53002700000E-01

  82  82   1    8 O     2.80343970000E-01 -4.39304390000E-01 -2.46997300000E-01

  83  83   1    8 O     4.39263840000E-01 -2.80364580000E-01  2.47846770000E-01

  84  84   1    8 O     4.39263840000E-01 -2.80364580000E-01 -2.52153220000E-01

 NUMBER OF SYMMETRY OPERATORS         :    1
 *******************************************************************************
 * GEOMETRY EDITING - INPUT COORDINATES ARE GIVEN IN ANGSTROM         
 *******************************************************************************

 GCALCO - MAX INDICES DIRECT LATTICE VECTOR    11    11    25
 NO.OF VECTORS CREATED 6999 STARS 3500 RMAX   238.87863 BOHR

 GEOMETRY FOR WAVE FUNCTION - DIMENSIONALITY OF THE SYSTEM    3
 (NON PERIODIC DIRECTION: LATTICE PARAMETER FORMALLY SET TO 500)
 *******************************************************************************
 LATTICE PARAMETERS (ANGSTROMS AND DEGREES) - BOHR = 0.5291772083 ANGSTROM
 PRIMITIVE CELL - CENTRING CODE 1/0 VOLUME=  1211.985598 - DENSITY  1.069 g/cm^3
         A              B              C           ALPHA      BETA       GAMMA 
    15.02361100    15.02391600     6.20000000    90.000323  89.999944 119.995964
 *******************************************************************************
 ATOMS IN THE ASYMMETRIC UNIT   84 - ATOMS IN THE UNIT CELL:   84
     ATOM                 X/A                 Y/B                 Z/C    
 *******************************************************************************
      1 T   5 B    -3.863194600000E-01  2.273182200000E-01  2.507704400000E-01
      2 T   5 B    -3.863194600000E-01  2.273182200000E-01 -2.492295600000E-01
      3 T   5 B    -2.272638000000E-01  3.863778800000E-01  2.507704500000E-01
      4 T   5 B    -2.272638000000E-01  3.863778800000E-01 -2.492295500000E-01
      5 T   5 B    -3.863237300000E-01  3.863606700000E-01  2.491505800000E-01
      6 T   5 B    -3.863237300000E-01  3.863606700000E-01 -2.508494200000E-01
      7 T   5 B     2.272552500000E-01 -3.863667800000E-01  2.507704500000E-01
      8 T   5 B     2.272552500000E-01 -3.863667800000E-01 -2.492295500000E-01
      9 T   5 B     3.863632200000E-01 -3.863875500000E-01  2.507704400000E-01
     10 T   5 B     3.863632200000E-01 -3.863875500000E-01 -2.492295600000E-01
     11 T   5 B     3.863435000000E-01 -2.272483500000E-01  2.491505800000E-01
     12 T   5 B     3.863435000000E-01 -2.272483500000E-01 -2.508494200000E-01
     13 T   1 H    -9.695638000000E-02  3.089300500000E-01  2.474121300000E-01
     14 T   1 H    -9.695638000000E-02  3.089300500000E-01 -2.525878700000E-01
     15 T   1 H     9.663453000000E-02 -3.089465600000E-01  2.468985900000E-01
     16 T   1 H     9.663453000000E-02 -3.089465600000E-01 -2.531014100000E-01
     17 T   1 H    -9.702858000000E-02 -4.059275700000E-01  2.468195500000E-01
     18 T   1 H    -9.702858000000E-02 -4.059275700000E-01 -2.531804500000E-01
     19 T   1 H     9.673618000000E-02  4.056849400000E-01  2.468392700000E-01
     20 T   1 H     9.673618000000E-02  4.056849400000E-01 -2.531607300000E-01
     21 T   1 H    -3.089676000000E-01  9.700412000000E-02  2.525878900000E-01
     22 T   1 H    -3.089676000000E-01  9.700412000000E-02 -2.474121100000E-01
     23 T   1 H     3.089297200000E-01 -9.656269000000E-02  2.531014700000E-01
     24 T   1 H     3.089297200000E-01 -9.656269000000E-02 -2.468985300000E-01
     25 T   1 H     4.058699900000E-01  9.704998000000E-02  2.531805500000E-01
     26 T   1 H     4.058699900000E-01  9.704998000000E-02 -2.468194400000E-01
     27 T   1 H    -4.056877900000E-01 -9.665268000000E-02  2.531607000000E-01
     28 T   1 H    -4.056877900000E-01 -9.665268000000E-02 -2.468393000000E-01
     29 T   1 H    -3.089272600000E-01 -4.059457900000E-01  2.474121600000E-01
     30 T   1 H    -3.089272600000E-01 -4.059457900000E-01 -2.525878400000E-01
     31 T   1 H     3.089618300000E-01  4.056093300000E-01  2.468985500000E-01
     32 T   1 H     3.089618300000E-01  4.056093300000E-01 -2.531014500000E-01
     33 T   1 H     4.058405700000E-01  3.088232500000E-01  2.468194900000E-01
     34 T   1 H     4.058405700000E-01  3.088232500000E-01 -2.531805100000E-01
     35 T   1 H    -4.057091200000E-01 -3.090420700000E-01  2.468393300000E-01
     36 T   1 H    -4.057091200000E-01 -3.090420700000E-01 -2.531606700000E-01
     37 T   6 C    -1.081096900000E-01  4.459436900000E-01  2.490913100000E-01
     38 T   6 C    -1.081096900000E-01  4.459436900000E-01 -2.509087000000E-01
     39 T   6 C    -5.351089000000E-02  3.927856300000E-01  2.474911700000E-01
     40 T   6 C    -5.351089000000E-02  3.927856300000E-01 -2.525088300000E-01
     41 T   6 C     5.338812000000E-02 -3.928147000000E-01  2.473529300000E-01
     42 T   6 C     5.338812000000E-02 -3.928147000000E-01 -2.526470700000E-01
     43 T   6 C    -5.354789000000E-02 -4.463078100000E-01  2.477677700000E-01
     44 T   6 C    -5.354789000000E-02 -4.463078100000E-01 -2.522322300000E-01
     45 T   6 C     5.342634000000E-02  4.462499700000E-01  2.467009900000E-01
     46 T   6 C     5.342634000000E-02  4.462499700000E-01 -2.532990100000E-01
     47 T   6 C     1.080358900000E-01 -4.459643700000E-01  2.477875100000E-01
     48 T   6 C     1.080358900000E-01 -4.459643700000E-01 -2.522124900000E-01
     49 T   6 C    -4.459605800000E-01  1.081684600000E-01  2.509087300000E-01
     50 T   6 C    -4.459605800000E-01  1.081684600000E-01 -2.490912700000E-01
     51 T   6 C    -3.928221500000E-01  5.355594000000E-02  2.525088500000E-01
     52 T   6 C    -3.928221500000E-01  5.355594000000E-02 -2.474911500000E-01
     53 T   6 C     3.927986700000E-01 -5.333684000000E-02  2.526471400000E-01
     54 T   6 C     3.927986700000E-01 -5.333684000000E-02 -2.473528600000E-01
     55 T   6 C     4.462875800000E-01  5.360286000000E-02  2.522323000000E-01
     56 T   6 C     4.462875800000E-01  5.360286000000E-02 -2.477677000000E-01
     57 T   6 C    -4.462831500000E-01 -5.337644000000E-02  2.532990200000E-01
     58 T   6 C    -4.462831500000E-01 -5.337644000000E-02 -2.467009900000E-01
     59 T   6 C     4.459279100000E-01 -1.080079400000E-01  2.522125300000E-01
     60 T   6 C     4.459279100000E-01 -1.080079400000E-01 -2.477874700000E-01
     61 T   6 C    -4.459551300000E-01  4.458745500000E-01  2.490913100000E-01
     62 T   6 C    -4.459551300000E-01  4.458745500000E-01 -2.509087000000E-01
     63 T   6 C    -3.927897800000E-01 -4.463742200000E-01  2.474911900000E-01
     64 T   6 C    -3.927897800000E-01 -4.463742200000E-01 -2.525088000000E-01
     65 T   6 C     3.928233700000E-01  4.461720300000E-01  2.473529000000E-01
     66 T   6 C     3.928233700000E-01  4.461720300000E-01 -2.526471000000E-01
     67 T   6 C     4.462872600000E-01  3.926899900000E-01  2.477677300000E-01
     68 T   6 C     4.462872600000E-01  3.926899900000E-01 -2.522322700000E-01
     69 T   6 C    -4.462570400000E-01 -3.929020000000E-01  2.467010200000E-01
     70 T   6 C    -4.462570400000E-01 -3.929020000000E-01 -2.532989700000E-01
     71 T   6 C     4.459599800000E-01 -4.460417700000E-01  2.477875100000E-01
     72 T   6 C     4.459599800000E-01 -4.460417700000E-01 -2.522124900000E-01
     73 T   8 O    -4.392633200000E-01  2.803706300000E-01  2.495851700000E-01
     74 T   8 O    -4.392633200000E-01  2.803706300000E-01 -2.504148300000E-01
     75 T   8 O    -2.803183000000E-01  2.803783300000E-01  2.530027000000E-01
     76 T   8 O    -2.803183000000E-01  2.803783300000E-01 -2.469973000000E-01
     77 T   8 O    -2.803205800000E-01  4.393234600000E-01  2.478467900000E-01
     78 T   8 O    -2.803205800000E-01  4.393234600000E-01 -2.521532100000E-01
     79 T   8 O     2.803245100000E-01 -2.803488900000E-01  2.495851900000E-01
     80 T   8 O     2.803245100000E-01 -2.803488900000E-01 -2.504148100000E-01
     81 T   8 O     2.803439700000E-01 -4.393043900000E-01  2.530027000000E-01
     82 T   8 O     2.803439700000E-01 -4.393043900000E-01 -2.469973000000E-01
     83 T   8 O     4.392638400000E-01 -2.803645800000E-01  2.478467700000E-01
     84 T   8 O     4.392638400000E-01 -2.803645800000E-01 -2.521532200000E-01

 T = ATOM BELONGING TO THE ASYMMETRIC UNIT

 ****    1 SYMMOPS - TRANSLATORS IN FRACTIONAL UNITS
 **** MATRICES AND TRANSLATORS IN THE CRYSTALLOGRAPHIC REFERENCE FRAME
   V INV                    ROTATION MATRICES                   TRANSLATORS
   1   1  1.00 -0.00  0.00  0.00  1.00  0.00  0.00  0.00  1.00  0.00  0.00  0.00

 DIRECT LATTICE VECTORS CARTESIAN COMPONENTS (ANGSTROM)
          X                    Y                    Z
   0.130113578931E+02  -0.751088897922E+01   0.000000000000E+00
   0.000000000000E+00   0.150239160000E+02   0.000000000000E+00
  -0.131792926326E-04  -0.349519635990E-04   0.619999999989E+01


 CARTESIAN COORDINATES - PRIMITIVE CELL
 *******************************************************************************
 *      ATOM          X(ANGSTROM)         Y(ANGSTROM)         Z(ANGSTROM)
 *******************************************************************************
    1     5 B    -5.026544060089E+00  6.316803652201E+00  1.554776727972E+00
    2     5 B    -5.026537470443E+00  6.316821128183E+00 -1.545223271972E+00
    3     5 B    -2.957013942913E+00  7.511853219253E+00  1.554776789972E+00
    4     5 B    -2.957007353267E+00  7.511870695235E+00 -1.545223209972E+00
    5     5 B    -5.026599597239E+00 -6.317639810451E+00  1.544733595972E+00
    6     5 B    -5.026593007593E+00 -6.317622334470E+00 -1.555266403972E+00
    7     5 B     2.956896085849E+00 -7.511639765524E+00  1.554776789972E+00
    8     5 B     2.956902675495E+00 -7.511622289542E+00 -1.545223209972E+00
    9     5 B     5.027106827157E+00  6.316921889362E+00  1.554776727972E+00
   10     5 B     5.027113416803E+00  6.316939365344E+00 -1.545223271972E+00
   11     5 B     5.026850264528E+00 -6.315951966183E+00  1.544733595972E+00
   12     5 B     5.026856854174E+00 -6.315934490201E+00 -1.555266403972E+00
   13     1 H    -1.261537420912E+00  5.369559079543E+00  1.533955205972E+00
   14     1 H    -1.261530831266E+00  5.369576555525E+00 -1.566044793972E+00
   15     1 H     1.257343200709E+00 -5.367407021908E+00  1.530771257972E+00
   16     1 H     1.257349790355E+00 -5.367389545926E+00 -1.569228741972E+00
   17     1 H    -1.262476833142E+00 -5.369859448401E+00  1.530281209972E+00
   18     1 H    -1.262470243496E+00 -5.369841972419E+00 -1.569718789972E+00
   19     1 H     1.258665806020E+00  5.368393125254E+00  1.530403473972E+00
   20     1 H     1.258672395666E+00  5.368410601236E+00 -1.569596525972E+00
   21     1 H    -4.020091349888E+00  3.777994263866E+00  1.566044917972E+00
   22     1 H    -4.020084760242E+00  3.778011739848E+00 -1.533955081972E+00
   23     1 H     4.019591815023E+00 -3.771095418988E+00  1.569229113972E+00
   24     1 H     4.019598404670E+00 -3.771077943006E+00 -1.530770885972E+00
   25     1 H     5.280916361201E+00 -1.590382536721E+00  1.569719409972E+00
   26     1 H     5.280922950847E+00 -1.590365060740E+00 -1.530280527972E+00
   27     1 H    -5.278552365012E+00  1.594965356955E+00  1.569596339972E+00
   28     1 H    -5.278545775366E+00  1.594982832937E+00 -1.530403659972E+00
   29     1 H    -4.019566403499E+00 -3.778585744541E+00  1.533955391972E+00
   30     1 H    -4.019559813852E+00 -3.778568268559E+00 -1.566044607972E+00
   31     1 H     4.020009691475E+00  3.773253869202E+00  1.530771009972E+00
   32     1 H     4.020016281122E+00  3.773271345183E+00 -1.569228989972E+00
   33     1 H     5.280533650886E+00  1.591502475489E+00  1.530280837972E+00
   34     1 H     5.280540240532E+00  1.591519951471E+00 -1.569719161972E+00
   35     1 H    -5.278829813965E+00 -1.595794569490E+00  1.530403845972E+00
   36     1 H    -5.278823224318E+00 -1.595777093508E+00 -1.569596153972E+00
   37     6 C    -1.406657151145E+00  7.511811712227E+00  1.544366121972E+00
   38     6 C    -1.406650561498E+00  7.511829188209E+00 -1.555633939972E+00
   39     6 C    -6.962526027245E-01  6.303084014794E+00  1.534445253972E+00
   40     6 C    -6.962460130782E-01  6.303101490776E+00 -1.565554745972E+00
   41     6 C     6.946486766208E-01 -6.302615943965E+00  1.533588165972E+00
   42     6 C     6.946552662671E-01 -6.302598467983E+00 -1.566411833972E+00
   43     6 C    -6.967340266120E-01 -6.303107450693E+00  1.536160173972E+00
   44     6 C    -6.967274369657E-01 -6.303089974711E+00 -1.563839825972E+00
   45     6 C     6.951459793116E-01  6.303134133293E+00  1.529546137972E+00
   46     6 C     6.951525689579E-01  6.303151609274E+00 -1.570453861971E+00
   47     6 C     1.405690364421E+00 -7.511585470094E+00  1.536282561972E+00
   48     6 C     1.405696954067E+00 -7.511567994112E+00 -1.563717437972E+00
   49     6 C     7.208801873682E+00 -2.536223486593E+00  1.555634125972E+00
   50     6 C     7.208808463328E+00 -2.536206010611E+00 -1.544365873972E+00
   51     6 C    -5.111152909858E+00  3.755054675408E+00  1.565554869972E+00
   52     6 C    -5.111146320212E+00  3.755072151390E+00 -1.534445129972E+00
   53     6 C     5.110840745576E+00 -3.751604235933E+00  1.566412267972E+00
   54     6 C     5.110847335222E+00 -3.751586759951E+00 -1.533587731972E+00
   55     6 C     5.806804102363E+00 -2.546700416198E+00  1.563840259972E+00
   56     6 C     5.806810692009E+00 -2.546682940216E+00 -1.536159739972E+00
   57     6 C    -5.806753124593E+00  2.550051188708E+00  1.570453923971E+00
   58     6 C    -5.806746534946E+00  2.550068664690E+00 -1.529546137972E+00
   59     6 C     5.802124307530E+00 -4.972026057960E+00  1.563717685972E+00
   60     6 C     5.802130897176E+00 -4.972008581978E+00 -1.536282313972E+00
   61     6 C     7.208872809535E+00  2.537403571433E+00  1.544366121972E+00
   62     6 C     7.208879399181E+00  2.537421047415E+00 -1.555633939972E+00
   63     6 C    -5.110731666074E+00 -3.756097006398E+00  1.534445377972E+00
   64     6 C    -5.110725076428E+00 -3.756079530416E+00 -1.565554559972E+00
   65     6 C     5.111162195890E+00  3.752789734288E+00  1.533587979972E+00
   66     6 C     5.111168785537E+00  3.752807210270E+00 -1.566412019972E+00
   67     6 C     5.806799997568E+00  2.547718701133E+00  1.536159925972E+00
   68     6 C     5.806806587214E+00  2.547736177115E+00 -1.563840073972E+00
   69     6 C    -5.806413311081E+00 -2.551148183283E+00  1.529546323972E+00
   70     6 C    -5.806406721435E+00 -2.551130707302E+00 -1.570453613971E+00
   71     6 C     5.802541640096E+00  4.973057355415E+00  1.536282561972E+00
   72     6 C     5.802548229743E+00  4.973074831397E+00 -1.563717437972E+00
   73     8 O     7.295942337888E+00  6.251204408774E-04  1.547428053972E+00
   74     8 O     7.295948927535E+00  6.425964226779E-04 -1.552571945972E+00
   75     8 O    -3.647325059670E+00  6.317811265342E+00  1.568616739972E+00
   76     8 O    -3.647318470024E+00  6.317828741324E+00 -1.531383259972E+00
   77     8 O    -3.647354657615E+00 -6.318109147893E+00  1.536650097972E+00
   78     8 O    -3.647348067968E+00 -6.318091671911E+00 -1.563349901972E+00
   79     8 O     3.647399236449E+00 -6.317433170309E+00  1.547428177972E+00
   80     8 O     3.647405826096E+00 -6.317415694327E+00 -1.552571821972E+00
   81     8 O     3.647652392434E+00  6.318202468605E+00  1.568616739972E+00
   82     8 O     3.647658982080E+00  6.318219944587E+00 -1.531383259972E+00
   83     8 O    -7.295942127783E+00 -5.555176344062E-04  1.536649973972E+00
   84     8 O    -7.295935538137E+00 -5.380416529570E-04 -1.563349963972E+00

 *******************************************************************************
 STARTING BASIS SET HANDLING 
 *******************************************************************************

 Loading internal basis set: SOLDEF2MSVP         

 Please cite in your publication:
 L. Dona', J. G. Brandenburg and B. Civalleri, J. Chem. Phys., 151, 121101 (2019
 )                                                                              
                                                                                
                    

 *******************************************************************************
 LOCAL ATOMIC FUNCTIONS BASIS SET
 *******************************************************************************
   ATOM   X(AU)   Y(AU)   Z(AU)  N. TYPE  EXPONENT  S COEF   P COEF   D/F/G COEF
 *******************************************************************************
   1 B   -9.499  11.937   2.938
                                  1 S  
                                         2.410E+03 1.755E-03 0.000E+00 0.000E+00
                                         3.619E+02 1.344E-02 0.000E+00 0.000E+00
                                         8.231E+01 6.637E-02 0.000E+00 0.000E+00
                                         2.311E+01 2.303E-01 0.000E+00 0.000E+00
                                         7.252E+00 5.150E-01 0.000E+00 0.000E+00
                                  2 S  
                                         2.367E+00 1.000E+00 0.000E+00 0.000E+00
                                  3 S  
                                         5.533E-01 1.000E+00 0.000E+00 0.000E+00
                                  4 S  
                                         1.716E-01 1.000E+00 0.000E+00 0.000E+00
                           5-     7 P  
                                         6.002E+00 0.000E+00-3.555E-02 0.000E+00
                                         1.240E+00 0.000E+00-1.983E-01 0.000E+00
                                         3.367E-01 0.000E+00-5.048E-01 0.000E+00
                           8-    10 P  
                                         1.256E-01 0.000E+00 1.000E+00 0.000E+00
                          11-    15 D  
                                         8.880E-01 0.000E+00 0.000E+00 1.000E+00
   2 B   -9.499  11.937  -2.920
   3 B   -5.588  14.195   2.938
   4 B   -5.588  14.195  -2.920
   5 B   -9.499 -11.939   2.919
   6 B   -9.499 -11.939  -2.939
   7 B    5.588 -14.195   2.938
   8 B    5.588 -14.195  -2.920
   9 B    9.500  11.937   2.938
  10 B    9.500  11.937  -2.920
  11 B    9.499 -11.935   2.919
  12 B    9.499 -11.935  -2.939
  13 H   -2.384  10.147   2.899
                                181 S  
                                         1.874E+01 1.968E-02 0.000E+00 0.000E+00
                                         2.826E+00 1.380E-01 0.000E+00 0.000E+00
                                         6.401E-01 4.783E-01 0.000E+00 0.000E+00
                                182 S  
                                         1.756E-01 1.000E+00 0.000E+00 0.000E+00
  14 H   -2.384  10.147  -2.959
  15 H    2.376 -10.143   2.893
  16 H    2.376 -10.143  -2.965
  17 H   -2.386 -10.148   2.892
  18 H   -2.386 -10.148  -2.966
  19 H    2.379  10.145   2.892
  20 H    2.379  10.145  -2.966
  21 H   -7.597   7.139   2.959
  22 H   -7.597   7.139  -2.899
  23 H    7.596  -7.126   2.965
  24 H    7.596  -7.126  -2.893
  25 H    9.979  -3.005   2.966
  26 H    9.979  -3.005  -2.892
  27 H   -9.975   3.014   2.966
  28 H   -9.975   3.014  -2.892
  29 H   -7.596  -7.140   2.899
  30 H   -7.596  -7.140  -2.959
  31 H    7.597   7.130   2.893
  32 H    7.597   7.130  -2.965
  33 H    9.979   3.008   2.892
  34 H    9.979   3.008  -2.966
  35 H   -9.976  -3.016   2.892
  36 H   -9.976  -3.016  -2.966
  37 C   -2.658  14.195   2.918
                                229 S  
                                         3.624E+03 1.634E-03 0.000E+00 0.000E+00
                                         5.440E+02 1.252E-02 0.000E+00 0.000E+00
                                         1.237E+02 6.211E-02 0.000E+00 0.000E+00
                                         3.476E+01 2.182E-01 0.000E+00 0.000E+00
                                         1.093E+01 4.980E-01 0.000E+00 0.000E+00
                                230 S  
                                         3.574E+00 1.000E+00 0.000E+00 0.000E+00
                                231 S  
                                         7.742E-01 1.000E+00 0.000E+00 0.000E+00
                                232 S  
                                         2.330E-01 1.000E+00 0.000E+00 0.000E+00
                         233-   235 P  
                                         9.443E+00 0.000E+00 3.790E-02 0.000E+00
                                         2.002E+00 0.000E+00 2.082E-01 0.000E+00
                                         5.463E-01 0.000E+00 5.047E-01 0.000E+00
                         236-   238 P  
                                         1.820E-01 0.000E+00 1.000E+00 0.000E+00
                         239-   243 D  
                                         8.880E-01 0.000E+00 0.000E+00 1.000E+00
  38 C   -2.658  14.195  -2.940
  39 C   -1.316  11.911   2.900
  40 C   -1.316  11.911  -2.958
  41 C    1.313 -11.910   2.898
  42 C    1.313 -11.910  -2.960
  43 C   -1.317 -11.911   2.903
  44 C   -1.317 -11.911  -2.955
  45 C    1.314  11.911   2.890
  46 C    1.314  11.911  -2.968
  47 C    2.656 -14.195   2.903
  48 C    2.656 -14.195  -2.955
  49 C   13.623  -4.793   2.940
  50 C   13.623  -4.793  -2.918
  51 C   -9.659   7.096   2.958
  52 C   -9.659   7.096  -2.900
  53 C    9.658  -7.090   2.960
  54 C    9.658  -7.089  -2.898
  55 C   10.973  -4.813   2.955
  56 C   10.973  -4.813  -2.903
  57 C  -10.973   4.819   2.968
  58 C  -10.973   4.819  -2.890
  59 C   10.964  -9.396   2.955
  60 C   10.964  -9.396  -2.903
  61 C   13.623   4.795   2.918
  62 C   13.623   4.795  -2.940
  63 C   -9.658  -7.098   2.900
  64 C   -9.658  -7.098  -2.958
  65 C    9.659   7.092   2.898
  66 C    9.659   7.092  -2.960
  67 C   10.973   4.814   2.903
  68 C   10.973   4.815  -2.955
  69 C  -10.973  -4.821   2.890
  70 C  -10.973  -4.821  -2.968
  71 C   10.965   9.398   2.903
  72 C   10.965   9.398  -2.955
  73 O   13.787   0.001   2.924
                                769 S  
                                         6.773E+03 1.727E-03 0.000E+00 0.000E+00
                                         1.017E+03 1.325E-02 0.000E+00 0.000E+00
                                         2.313E+02 6.603E-02 0.000E+00 0.000E+00
                                         6.501E+01 2.353E-01 0.000E+00 0.000E+00
                                         2.050E+01 5.498E-01 0.000E+00 0.000E+00
                                770 S  
                                         6.716E+00 1.000E+00 0.000E+00 0.000E+00
                                771 S  
                                         1.147E+00 1.000E+00 0.000E+00 0.000E+00
                                772 S  
                                         3.342E-01 1.000E+00 0.000E+00 0.000E+00
                         773-   775 P  
                                         1.769E+01 0.000E+00 4.359E-02 0.000E+00
                                         3.854E+00 0.000E+00 2.318E-01 0.000E+00
                                         1.047E+00 0.000E+00 5.146E-01 0.000E+00
                         776-   778 P  
                                         2.759E-01 0.000E+00 1.000E+00 0.000E+00
                         779-   783 D  
                                         8.000E-01 0.000E+00 0.000E+00 1.000E+00
  74 O   13.787   0.001  -2.934
  75 O   -6.892  11.939   2.964
  76 O   -6.892  11.939  -2.894
  77 O   -6.893 -11.939   2.904
  78 O   -6.892 -11.939  -2.954
  79 O    6.893 -11.938   2.924
  80 O    6.893 -11.938  -2.934
  81 O    6.893  11.940   2.964
  82 O    6.893  11.940  -2.894
  83 O  -13.787  -0.001   2.904
  84 O  -13.787  -0.001  -2.954

 *******************************************************************************
 FINISHED BASIS SET HANDLING 
 *******************************************************************************

 INFORMATION **** SET_MPP **** PCRYSTAL CALCULATION
 INFORMATION **** READM2 **** NEW DEFAULT: FOCK/KS MATRIX MIXING SET TO 30 %
 INFORMATION **** READM2 **** NEW DEFAULT: FULL DIRECT SCF MODE
 INFORMATION **** READM2 **** NEW DEFAULT: COULOMB BIPOLAR BUFFER SET TO 32 Mb
 INFORMATION **** READM2 **** NEW DEFAULT: EXCHANGE BIPOLAR BUFFER SET TO 32 Mb

 *******************************************************************************
 NEW DEFAULT: DFT INTEGRATION GRID INCREASED TO XLGRID
 NEW DEFAULT: DIIS ACCELERATOR ACTIVE
 USE KEYWORD NODIIS TO TURN IT OFF
 *******************************************************************************

 WARNING **** RDDFTP **** HSEsol-HJS ACTIVE
 RANGE SEPARATION - OMEGA:   0.110000000000000     
 WARNING **** RDDFTP **** HSEsol-3c has to be combined with sol-def2-mSVP basis set
 *******************************************************************************
 N. OF ATOMS PER CELL        84  COULOMB OVERLAP TOL         (T1) 10**   -6
 NUMBER OF SHELLS           468  COULOMB PENETRATION TOL     (T2) 10**   -6
 NUMBER OF AO               948  EXCHANGE OVERLAP TOL        (T3) 10**   -6
 N. OF ELECTRONS PER CELL   396  EXCHANGE PSEUDO OVP (F(G))  (T4) 10**   -6
 CORE ELECTRONS PER CELL    120  EXCHANGE PSEUDO OVP (P(G))  (T5) 10**  -12
 N. OF SYMMETRY OPERATORS     1  POLE ORDER IN MONO ZONE                  4
 *******************************************************************************
 TYPE OF CALCULATION :  RESTRICTED CLOSED SHELL
 KOHN-SHAM HAMILTONIAN

 (EXCHANGE)[CORRELATION] FUNCTIONAL:(HSEsol GGA)[PBEsol]

 RANGE-SEPARATED HYBRID FUNCTIONAL 
 OMEGA (SHORT-RANGE)[LONG-RANGE]:(    0.1100)[    0.0000]

 HYBRID EXCHANGE - PERCENTAGE OF FOCK EXCHANGE    25.0000

 CAPPA:IS1  2;IS2  2;IS3  8; K PTS MONK NET  20; SYMMOPS:K SPACE   2;G SPACE   1

 *******************************************************************************
 MAX NUMBER OF SCF CYCLES      50  CONVERGENCE ON DELTAP        10**-16
 WEIGHT OF F(I) IN F(I+1)      30% CONVERGENCE ON ENERGY        10**- 6
 SHRINK. FACT.(MONKH.)    2  2  8  NUMBER OF K POINTS IN THE IBZ     20
 SHRINKING FACTOR(GILAT NET)    8  NUMBER OF K POINTS(GILAT NET)   1028
 *******************************************************************************
 *** K POINTS COORDINATES (OBLIQUE COORDINATES IN UNITS OF IS =  2)
   1-R(  0  0  0)   2-R(  1  0  0)   3-R(  0  1  0)   4-R(  1  1  0)
   5-C(  0  0  1)   6-C(  1  0  1)   7-C(  0  1  1)   8-C(  1  1  1)
   9-C(  0  0  2)  10-C(  1  0  2)  11-C(  0  1  2)  12-C(  1  1  2)
  13-C(  0  0  3)  14-C(  1  0  3)  15-C(  0  1  3)  16-C(  1  1  3)
  17-R(  0  0  4)  18-R(  1  0  4)  19-R(  0  1  4)  20-R(  1  1  4)

 DIRECT LATTICE VECTORS COMPON. (A.U.)     RECIP. LATTICE VECTORS COMPON. (A.U.) 
        X            Y            Z              X            Y            Z
   24.5879030  -14.1935232    0.0000000      0.2555397    0.0000000    0.0000005
    0.0000000   28.3910867    0.0000000      0.1277517    0.2213084    0.0000015
   -0.0000249   -0.0000660   11.7163020      0.0000000    0.0000000    0.5362772

 DISK SPACE FOR EIGENVECTORS (FTN 10)    28758528 REALS

 SYMMETRY ADAPTION OF THE BLOCH FUNCTIONS DISABLED
 TTTTTTTTTTTTTTTTTTTTTTTTTTTTTT gordsh1     TELAPSE        0.05 TCPU        0.05

 MATRIX SIZE: P(G)  884328, F(G)  178826, P(G) IRR  444330, F(G) IRR  180074
 MAX G-VECTOR INDEX FOR 1- AND 2-ELECTRON INTEGRALS  69

 TTTTTTTTTTTTTTTTTTTTTTTTTTTTTT INPUT       TELAPSE        3.19 TCPU        3.18

 NEIGHBORS OF THE NON-EQUIVALENT ATOMS

 N = NUMBER OF NEIGHBORS AT DISTANCE R
    ATOM  N     R/ANG      R/AU   NEIGHBORS (ATOM LABELS AND CELL INDICES)
   1 B    1     1.3791     2.6061   73 O   -1 0 0
   1 B    1     1.3793     2.6065   75 O    0 0 0
   1 B    1     1.5503     2.9297   49 C   -1 0 0
   1 B    1     2.3895     4.5155    5 B    0 1 0
   1 B    1     2.3898     4.5160    3 B    0 0 0
   1 B    1     2.5632     4.8437   51 C    0 0 0

   2 B    1     1.3791     2.6061   74 O   -1 0 0
   2 B    1     1.3793     2.6065   76 O    0 0 0
   2 B    1     1.5503     2.9297   50 C   -1 0 0
   2 B    1     2.3895     4.5155    6 B    0 1 0
   2 B    1     2.3898     4.5160    4 B    0 0 0
   2 B    1     2.5632     4.8437   52 C    0 0 0

   3 B    1     1.3793     2.6065   77 O    0 1 0
   3 B    1     1.3793     2.6065   75 O    0 0 0
   3 B    1     1.5504     2.9298   37 C    0 0 0
   3 B    1     2.3895     4.5156    5 B    0 1 0
   3 B    1     2.3898     4.5160    1 B    0 0 0
   3 B    1     2.5634     4.8440   43 C    0 1 0

   4 B    1     1.3793     2.6065   78 O    0 1 0
   4 B    1     1.3793     2.6065   76 O    0 0 0
   4 B    1     1.5504     2.9298   38 C    0 0 0
   4 B    1     2.3895     4.5156    6 B    0 1 0
   4 B    1     2.3898     4.5160    2 B    0 0 0
   4 B    1     2.5634     4.8440   44 C    0 1 0

   5 B    1     1.3791     2.6061   73 O   -1-1 0
   5 B    1     1.3793     2.6064   77 O    0 0 0
   5 B    1     1.5502     2.9294   61 C   -1-1 0
   5 B    1     2.3895     4.5155    1 B    0-1 0
   5 B    1     2.3895     4.5156    3 B    0-1 0
   5 B    1     2.5629     4.8433   63 C    0 0 0

   6 B    1     1.3791     2.6061   74 O   -1-1 0
   6 B    1     1.3793     2.6064   78 O    0 0 0
   6 B    1     1.5502     2.9294   62 C   -1-1 0
   6 B    1     2.3895     4.5155    2 B    0-1 0
   6 B    1     2.3895     4.5156    4 B    0-1 0
   6 B    1     2.5629     4.8433   64 C    0 0 0

   7 B    1     1.3795     2.6068   79 O    0 0 0
   7 B    1     1.3795     2.6070   81 O    0-1 0
   7 B    1     1.5513     2.9316   47 C    0 0 0
   7 B    1     2.3905     4.5174   11 B    0 0 0
   7 B    1     2.3905     4.5175    9 B    0-1 0
   7 B    1     2.5648     4.8468   45 C    0-1 0

   8 B    1     1.3795     2.6068   80 O    0 0 0
   8 B    1     1.3795     2.6070   82 O    0-1 0
   8 B    1     1.5513     2.9316   48 C    0 0 0
   8 B    1     2.3905     4.5174   12 B    0 0 0
   8 B    1     2.3905     4.5175   10 B    0-1 0
   8 B    1     2.5648     4.8468   46 C    0-1 0

   9 B    1     1.3795     2.6069   81 O    0 0 0
   9 B    1     1.3797     2.6072   83 O    1 1 0
   9 B    1     1.5516     2.9322   71 C    0 0 0
   9 B    1     2.3905     4.5175    7 B    0 1 0
   9 B    1     2.3911     4.5185   11 B    0 1 0
   9 B    1     2.5651     4.8473   69 C    1 1 0

  10 B    1     1.3795     2.6069   82 O    0 0 0
  10 B    1     1.3797     2.6072   84 O    1 1 0
  10 B    1     1.5516     2.9322   72 C    0 0 0
  10 B    1     2.3905     4.5175    8 B    0 1 0
  10 B    1     2.3911     4.5185   12 B    0 1 0
  10 B    1     2.5651     4.8473   70 C    1 1 0

  11 B    1     1.3795     2.6068   79 O    0 0 0
  11 B    1     1.3796     2.6071   83 O    1 0 0
  11 B    1     1.5516     2.9322   59 C    0 0 0
  11 B    1     2.3905     4.5174    7 B    0 0 0
  11 B    1     2.3911     4.5185    9 B    0-1 0
  11 B    1     2.5651     4.8473   57 C    1 0 0

  12 B    1     1.3795     2.6068   80 O    0 0 0
  12 B    1     1.3796     2.6071   84 O    1 0 0
  12 B    1     1.5516     2.9322   60 C    0 0 0
  12 B    1     2.3905     4.5174    8 B    0 0 0
  12 B    1     2.3911     4.5185   10 B    0-1 0
  12 B    1     2.5651     4.8473   58 C    1 0 0

  13 H    1     1.0913     2.0623   39 C    0 0 0
  13 H    1     2.1472     4.0576   37 C    0 0 0
  13 H    1     2.1680     4.0969   45 C    0 0 0
  13 H    1     2.5202     4.7625   19 H    0 0 0
  13 H    1     2.5676     4.8520   75 O    0 0 0
  13 H    1     2.7321     5.1630    3 B    0 0 0

  14 H    1     1.0913     2.0623   40 C    0 0 0
  14 H    1     2.1472     4.0576   38 C    0 0 0
  14 H    1     2.1680     4.0969   46 C    0 0 0
  14 H    1     2.5202     4.7625   20 H    0 0 0
  14 H    1     2.5676     4.8520   76 O    0 0 0
  14 H    1     2.7321     5.1630    4 B    0 0 0

  15 H    1     1.0914     2.0625   41 C    0 0 0
  15 H    1     2.1493     4.0616   47 C    0 0 0
  15 H    1     2.1666     4.0942   43 C    0 0 0
  15 H    1     2.5198     4.7618   17 H    0 0 0
  15 H    1     2.5720     4.8604   79 O    0 0 0
  15 H    1     2.7362     5.1707    7 B    0 0 0

  16 H    1     1.0914     2.0625   42 C    0 0 0
  16 H    1     2.1493     4.0616   48 C    0 0 0
  16 H    1     2.1666     4.0942   44 C    0 0 0
  16 H    1     2.5198     4.7618   18 H    0 0 0
  16 H    1     2.5720     4.8604   80 O    0 0 0
  16 H    1     2.7362     5.1707    8 B    0 0 0

  17 H    1     1.0914     2.0624   43 C    0 0 0
  17 H    1     2.1471     4.0575   37 C    0-1 0
  17 H    1     2.1680     4.0970   41 C    0 0 0
  17 H    1     2.5198     4.7618   15 H    0 0 0
  17 H    1     2.5665     4.8500   77 O    0 0 0
  17 H    1     2.7315     5.1618    3 B    0-1 0

  18 H    1     1.0914     2.0624   44 C    0 0 0
  18 H    1     2.1471     4.0575   38 C    0-1 0
  18 H    1     2.1680     4.0970   42 C    0 0 0
  18 H    1     2.5198     4.7618   16 H    0 0 0
  18 H    1     2.5665     4.8500   78 O    0 0 0
  18 H    1     2.7315     5.1618    4 B    0-1 0

  19 H    1     1.0915     2.0626   45 C    0 0 0
  19 H    1     2.1490     4.0610   47 C    0 1 0
  19 H    1     2.1669     4.0948   39 C    0 0 0
  19 H    1     2.5202     4.7625   13 H    0 0 0
  19 H    1     2.5712     4.8588   81 O    0 0 0
  19 H    1     2.7351     5.1686    7 B    0 1 0

  20 H    1     1.0915     2.0626   46 C    0 0 0
  20 H    1     2.1490     4.0610   48 C    0 1 0
  20 H    1     2.1669     4.0948   40 C    0 0 0
  20 H    1     2.5202     4.7625   14 H    0 0 0
  20 H    1     2.5712     4.8588   82 O    0 0 0
  20 H    1     2.7351     5.1686    8 B    0 1 0

  21 H    1     1.0913     2.0623   51 C    0 0 0
  21 H    1     2.1469     4.0571   49 C   -1 0 0
  21 H    1     2.1680     4.0968   57 C    0 0 0
  21 H    1     2.5198     4.7617   27 H    0 0 0
  21 H    1     2.5670     4.8510   75 O    0 0 0
  21 H    1     2.7310     5.1609    1 B    0 0 0

  22 H    1     1.0913     2.0623   52 C    0 0 0
  22 H    1     2.1469     4.0571   50 C   -1 0 0
  22 H    1     2.1680     4.0968   58 C    0 0 0
  22 H    1     2.5198     4.7617   28 H    0 0 0
  22 H    1     2.5670     4.8510   76 O    0 0 0
  22 H    1     2.7310     5.1609    2 B    0 0 0

  23 H    1     1.0914     2.0625   53 C    0 0 0
  23 H    1     2.1493     4.0617   59 C    0 0 0
  23 H    1     2.1664     4.0939   55 C    0 0 0
  23 H    1     2.5192     4.7606   25 H    0 0 0
  23 H    1     2.5735     4.8632   79 O    0 0 0
  23 H    1     2.7371     5.1723   11 B    0 0 0

  24 H    1     1.0914     2.0625   54 C    0 0 0
  24 H    1     2.1493     4.0617   60 C    0 0 0
  24 H    1     2.1664     4.0939   56 C    0 0 0
  24 H    1     2.5192     4.7606   26 H    0 0 0
  24 H    1     2.5735     4.8632   80 O    0 0 0
  24 H    1     2.7371     5.1723   12 B    0 0 0

  25 H    1     1.0914     2.0624   55 C    0 0 0
  25 H    1     2.1475     4.0581   49 C    0 0 0
  25 H    1     2.1679     4.0967   53 C    0 0 0
  25 H    1     2.5192     4.7606   23 H    0 0 0
  25 H    1     2.5675     4.8519   73 O    0 0 0
  25 H    1     2.7328     5.1643    1 B    1 0 0

  26 H    1     1.0914     2.0624   56 C    0 0 0
  26 H    1     2.1475     4.0581   50 C    0 0 0
  26 H    1     2.1679     4.0967   54 C    0 0 0
  26 H    1     2.5192     4.7606   24 H    0 0 0
  26 H    1     2.5675     4.8519   74 O    0 0 0
  26 H    1     2.7328     5.1643    2 B    1 0 0

  27 H    1     1.0914     2.0625   57 C    0 0 0
  27 H    1     2.1491     4.0612   59 C   -1 0 0
  27 H    1     2.1666     4.0942   51 C    0 0 0
  27 H    1     2.5198     4.7617   21 H    0 0 0
  27 H    1     2.5723     4.8609   83 O    0 0 0
  27 H    1     2.7355     5.1693   11 B   -1 0 0

  28 H    1     1.0914     2.0625   58 C    0 0 0
  28 H    1     2.1491     4.0612   60 C   -1 0 0
  28 H    1     2.1666     4.0942   52 C    0 0 0
  28 H    1     2.5198     4.7617   22 H    0 0 0
  28 H    1     2.5723     4.8609   84 O    0 0 0
  28 H    1     2.7355     5.1693   12 B   -1 0 0

  29 H    1     1.0914     2.0624   63 C    0 0 0
  29 H    1     2.1475     4.0582   61 C   -1-1 0
  29 H    1     2.1678     4.0966   69 C    0 0 0
  29 H    1     2.5200     4.7621   35 H    0 0 0
  29 H    1     2.5667     4.8503   77 O    0 0 0
  29 H    1     2.7315     5.1618    5 B    0 0 0

  30 H    1     1.0914     2.0624   64 C    0 0 0
  30 H    1     2.1475     4.0582   62 C   -1-1 0
  30 H    1     2.1678     4.0966   70 C    0 0 0
  30 H    1     2.5200     4.7621   36 H    0 0 0
  30 H    1     2.5667     4.8503   78 O    0 0 0
  30 H    1     2.7315     5.1618    6 B    0 0 0

  31 H    1     1.0913     2.0623   65 C    0 0 0
  31 H    1     2.1487     4.0605   71 C    0 0 0
  31 H    1     2.1667     4.0945   67 C    0 0 0
  31 H    1     2.5197     4.7616   33 H    0 0 0
  31 H    1     2.5723     4.8610   81 O    0 0 0
  31 H    1     2.7359     5.1701    9 B    0 0 0

  32 H    1     1.0913     2.0623   66 C    0 0 0
  32 H    1     2.1487     4.0605   72 C    0 0 0
  32 H    1     2.1667     4.0945   68 C    0 0 0
  32 H    1     2.5197     4.7616   34 H    0 0 0
  32 H    1     2.5723     4.8610   82 O    0 0 0
  32 H    1     2.7359     5.1701   10 B    0 0 0

  33 H    1     1.0915     2.0626   67 C    0 0 0
  33 H    1     2.1479     4.0589   61 C    0 0 0
  33 H    1     2.1679     4.0968   65 C    0 0 0
  33 H    1     2.5197     4.7616   31 H    0 0 0
  33 H    1     2.5677     4.8522   73 O    0 0 0
  33 H    1     2.7331     5.1648    5 B    1 1 0

  34 H    1     1.0915     2.0626   68 C    0 0 0
  34 H    1     2.1479     4.0589   62 C    0 0 0
  34 H    1     2.1679     4.0968   66 C    0 0 0
  34 H    1     2.5197     4.7616   32 H    0 0 0
  34 H    1     2.5677     4.8522   74 O    0 0 0
  34 H    1     2.7331     5.1648    6 B    1 1 0

  35 H    1     1.0914     2.0624   69 C    0 0 0
  35 H    1     2.1486     4.0602   71 C   -1-1 0
  35 H    1     2.1668     4.0947   63 C    0 0 0
  35 H    1     2.5200     4.7621   29 H    0 0 0
  35 H    1     2.5717     4.8598   83 O    0 0 0
  35 H    1     2.7349     5.1682    9 B   -1-1 0

  36 H    1     1.0914     2.0624   70 C    0 0 0
  36 H    1     2.1486     4.0602   72 C   -1-1 0
  36 H    1     2.1668     4.0947   64 C    0 0 0
  36 H    1     2.5200     4.7621   30 H    0 0 0
  36 H    1     2.5717     4.8598   84 O    0 0 0
  36 H    1     2.7349     5.1682   10 B   -1-1 0

  37 C    1     1.4020     2.6495   43 C    0 1 0
  37 C    1     1.4021     2.6495   39 C    0 0 0
  37 C    1     1.5504     2.9298    3 B    0 0 0
  37 C    1     2.1471     4.0575   17 H    0 1 0
  37 C    1     2.1472     4.0576   13 H    0 0 0
  37 C    1     2.4246     4.5817   41 C    0 1 0

  38 C    1     1.4020     2.6495   44 C    0 1 0
  38 C    1     1.4021     2.6495   40 C    0 0 0
  38 C    1     1.5504     2.9298    4 B    0 0 0
  38 C    1     2.1471     4.0575   18 H    0 1 0
  38 C    1     2.1472     4.0576   14 H    0 0 0
  38 C    1     2.4246     4.5817   42 C    0 1 0

  39 C    1     1.0913     2.0623   13 H    0 0 0
  39 C    1     1.3914     2.6294   45 C    0 0 0
  39 C    1     1.4021     2.6495   37 C    0 0 0
  39 C    1     2.1669     4.0948   19 H    0 0 0
  39 C    1     2.4177     4.5688   43 C    0 1 0
  39 C    1     2.4250     4.5825   47 C    0 1 0

  40 C    1     1.0913     2.0623   14 H    0 0 0
  40 C    1     1.3914     2.6294   46 C    0 0 0
  40 C    1     1.4021     2.6495   38 C    0 0 0
  40 C    1     2.1669     4.0948   20 H    0 0 0
  40 C    1     2.4177     4.5688   44 C    0 1 0
  40 C    1     2.4250     4.5825   48 C    0 1 0

  41 C    1     1.0914     2.0625   15 H    0 0 0
  41 C    1     1.3914     2.6293   43 C    0 0 0
  41 C    1     1.4026     2.6505   47 C    0 0 0
  41 C    1     2.1680     4.0970   17 H    0 0 0
  41 C    1     2.4182     4.5697   45 C    0-1 0
  41 C    1     2.4246     4.5817   37 C    0-1 0

  42 C    1     1.0914     2.0625   16 H    0 0 0
  42 C    1     1.3914     2.6293   44 C    0 0 0
  42 C    1     1.4026     2.6505   48 C    0 0 0
  42 C    1     2.1680     4.0970   18 H    0 0 0
  42 C    1     2.4182     4.5697   46 C    0-1 0
  42 C    1     2.4246     4.5817   38 C    0-1 0

  43 C    1     1.0914     2.0624   17 H    0 0 0
  43 C    1     1.3914     2.6293   41 C    0 0 0
  43 C    1     1.4020     2.6495   37 C    0-1 0
  43 C    1     2.1666     4.0942   15 H    0 0 0
  43 C    1     2.4177     4.5688   39 C    0-1 0
  43 C    1     2.4250     4.5826   47 C    0 0 0

  44 C    1     1.0914     2.0624   18 H    0 0 0
  44 C    1     1.3914     2.6293   42 C    0 0 0
  44 C    1     1.4020     2.6495   38 C    0-1 0
  44 C    1     2.1666     4.0942   16 H    0 0 0
  44 C    1     2.4177     4.5688   40 C    0-1 0
  44 C    1     2.4250     4.5826   48 C    0 0 0

  45 C    1     1.0915     2.0626   19 H    0 0 0
  45 C    1     1.3914     2.6294   39 C    0 0 0
  45 C    1     1.4025     2.6504   47 C    0 1 0
  45 C    1     2.1680     4.0969   13 H    0 0 0
  45 C    1     2.4182     4.5697   41 C    0 1 0
  45 C    1     2.4246     4.5818   37 C    0 0 0

  46 C    1     1.0915     2.0626   20 H    0 0 0
  46 C    1     1.3914     2.6294   40 C    0 0 0
  46 C    1     1.4025     2.6504   48 C    0 1 0
  46 C    1     2.1680     4.0969   14 H    0 0 0
  46 C    1     2.4182     4.5697   42 C    0 1 0
  46 C    1     2.4246     4.5818   38 C    0 0 0

  47 C    1     1.4025     2.6504   45 C    0-1 0
  47 C    1     1.4026     2.6505   41 C    0 0 0
  47 C    1     1.5513     2.9316    7 B    0 0 0
  47 C    1     2.1490     4.0610   19 H    0-1 0
  47 C    1     2.1493     4.0616   15 H    0 0 0
  47 C    1     2.4250     4.5825   39 C    0-1 0

  48 C    1     1.4025     2.6504   46 C    0-1 0
  48 C    1     1.4026     2.6505   42 C    0 0 0
  48 C    1     1.5513     2.9316    8 B    0 0 0
  48 C    1     2.1490     4.0610   20 H    0-1 0
  48 C    1     2.1493     4.0616   16 H    0 0 0
  48 C    1     2.4250     4.5825   40 C    0-1 0

  49 C    1     1.4020     2.6494   51 C    1 0 0
  49 C    1     1.4021     2.6495   55 C    0 0 0
  49 C    1     1.5503     2.9297    1 B    1 0 0
  49 C    1     2.1469     4.0571   21 H    1 0 0
  49 C    1     2.1475     4.0581   25 H    0 0 0
  49 C    1     2.4246     4.5818   53 C    0 0 0

  50 C    1     1.4020     2.6494   52 C    1 0 0
  50 C    1     1.4021     2.6495   56 C    0 0 0
  50 C    1     1.5503     2.9297    2 B    1 0 0
  50 C    1     2.1469     4.0571   22 H    1 0 0
  50 C    1     2.1475     4.0581   26 H    0 0 0
  50 C    1     2.4246     4.5818   54 C    0 0 0

  51 C    1     1.0913     2.0623   21 H    0 0 0
  51 C    1     1.3914     2.6293   57 C    0 0 0
  51 C    1     1.4020     2.6494   49 C   -1 0 0
  51 C    1     2.1666     4.0942   27 H    0 0 0
  51 C    1     2.4175     4.5684   55 C   -1 0 0
  51 C    1     2.4251     4.5828   59 C   -1 0 0

  52 C    1     1.0913     2.0623   22 H    0 0 0
  52 C    1     1.3914     2.6293   58 C    0 0 0
  52 C    1     1.4020     2.6494   50 C   -1 0 0
  52 C    1     2.1666     4.0942   28 H    0 0 0
  52 C    1     2.4175     4.5684   56 C   -1 0 0
  52 C    1     2.4251     4.5828   60 C   -1 0 0

  53 C    1     1.0914     2.0625   23 H    0 0 0
  53 C    1     1.3915     2.6295   55 C    0 0 0
  53 C    1     1.4026     2.6505   59 C    0 0 0
  53 C    1     2.1679     4.0967   25 H    0 0 0
  53 C    1     2.4179     4.5691   57 C    1 0 0
  53 C    1     2.4246     4.5818   49 C    0 0 0

  54 C    1     1.0914     2.0625   24 H    0 0 0
  54 C    1     1.3915     2.6295   56 C    0 0 0
  54 C    1     1.4026     2.6505   60 C    0 0 0
  54 C    1     2.1679     4.0967   26 H    0 0 0
  54 C    1     2.4179     4.5691   58 C    1 0 0
  54 C    1     2.4246     4.5818   50 C    0 0 0

  55 C    1     1.0914     2.0624   25 H    0 0 0
  55 C    1     1.3915     2.6295   53 C    0 0 0
  55 C    1     1.4021     2.6495   49 C    0 0 0
  55 C    1     2.1664     4.0939   23 H    0 0 0
  55 C    1     2.4175     4.5684   51 C    1 0 0
  55 C    1     2.4253     4.5832   59 C    0 0 0

  56 C    1     1.0914     2.0624   26 H    0 0 0
  56 C    1     1.3915     2.6295   54 C    0 0 0
  56 C    1     1.4021     2.6495   50 C    0 0 0
  56 C    1     2.1664     4.0939   24 H    0 0 0
  56 C    1     2.4175     4.5684   52 C    1 0 0
  56 C    1     2.4253     4.5832   60 C    0 0 0

  57 C    1     1.0914     2.0625   27 H    0 0 0
  57 C    1     1.3914     2.6293   51 C    0 0 0
  57 C    1     1.4025     2.6504   59 C   -1 0 0
  57 C    1     2.1680     4.0968   21 H    0 0 0
  57 C    1     2.4179     4.5691   53 C   -1 0 0
  57 C    1     2.4247     4.5819   49 C   -1 0 0

  58 C    1     1.0914     2.0625   28 H    0 0 0
  58 C    1     1.3914     2.6293   52 C    0 0 0
  58 C    1     1.4025     2.6504   60 C   -1 0 0
  58 C    1     2.1680     4.0968   22 H    0 0 0
  58 C    1     2.4179     4.5691   54 C   -1 0 0
  58 C    1     2.4247     4.5819   50 C   -1 0 0

  59 C    1     1.4025     2.6504   57 C    1 0 0
  59 C    1     1.4026     2.6505   53 C    0 0 0
  59 C    1     1.5516     2.9322   11 B    0 0 0
  59 C    1     2.1491     4.0612   27 H    1 0 0
  59 C    1     2.1493     4.0617   23 H    0 0 0
  59 C    1     2.4251     4.5828   51 C    1 0 0

  60 C    1     1.4025     2.6504   58 C    1 0 0
  60 C    1     1.4026     2.6505   54 C    0 0 0
  60 C    1     1.5516     2.9322   12 B    0 0 0
  60 C    1     2.1491     4.0612   28 H    1 0 0
  60 C    1     2.1493     4.0617   24 H    0 0 0
  60 C    1     2.4251     4.5828   52 C    1 0 0

  61 C    1     1.4021     2.6496   63 C    1 1 0
  61 C    1     1.4021     2.6497   67 C    0 0 0
  61 C    1     1.5502     2.9294    5 B    1 1 0
  61 C    1     2.1475     4.0582   29 H    1 1 0
  61 C    1     2.1479     4.0589   33 H    0 0 0
  61 C    1     2.4244     4.5814   65 C    0 0 0

  62 C    1     1.4021     2.6496   64 C    1 1 0
  62 C    1     1.4021     2.6497   68 C    0 0 0
  62 C    1     1.5502     2.9294    6 B    1 1 0
  62 C    1     2.1475     4.0582   30 H    1 1 0
  62 C    1     2.1479     4.0589   34 H    0 0 0
  62 C    1     2.4244     4.5814   66 C    0 0 0

  63 C    1     1.0914     2.0624   29 H    0 0 0
  63 C    1     1.3914     2.6293   69 C    0 0 0
  63 C    1     1.4021     2.6496   61 C   -1-1 0
  63 C    1     2.1668     4.0947   35 H    0 0 0
  63 C    1     2.4179     4.5692   67 C   -1-1 0
  63 C    1     2.4251     4.5827   71 C   -1-1 0

  64 C    1     1.0914     2.0624   30 H    0 0 0
  64 C    1     1.3914     2.6293   70 C    0 0 0
  64 C    1     1.4021     2.6496   62 C   -1-1 0
  64 C    1     2.1668     4.0947   36 H    0 0 0
  64 C    1     2.4179     4.5692   68 C   -1-1 0
  64 C    1     2.4251     4.5827   72 C   -1-1 0

  65 C    1     1.0913     2.0623   31 H    0 0 0
  65 C    1     1.3914     2.6294   67 C    0 0 0
  65 C    1     1.4025     2.6504   71 C    0 0 0
  65 C    1     2.1679     4.0968   33 H    0 0 0
  65 C    1     2.4178     4.5690   69 C    1 1 0
  65 C    1     2.4244     4.5814   61 C    0 0 0

  66 C    1     1.0913     2.0623   32 H    0 0 0
  66 C    1     1.3914     2.6294   68 C    0 0 0
  66 C    1     1.4025     2.6504   72 C    0 0 0
  66 C    1     2.1679     4.0968   34 H    0 0 0
  66 C    1     2.4178     4.5690   70 C    1 1 0
  66 C    1     2.4244     4.5814   62 C    0 0 0

  67 C    1     1.0915     2.0626   33 H    0 0 0
  67 C    1     1.3914     2.6294   65 C    0 0 0
  67 C    1     1.4021     2.6497   61 C    0 0 0
  67 C    1     2.1667     4.0945   31 H    0 0 0
  67 C    1     2.4179     4.5692   63 C    1 1 0
  67 C    1     2.4253     4.5832   71 C    0 0 0

  68 C    1     1.0915     2.0626   34 H    0 0 0
  68 C    1     1.3914     2.6294   66 C    0 0 0
  68 C    1     1.4021     2.6497   62 C    0 0 0
  68 C    1     2.1667     4.0945   32 H    0 0 0
  68 C    1     2.4179     4.5692   64 C    1 1 0
  68 C    1     2.4253     4.5832   72 C    0 0 0

  69 C    1     1.0914     2.0624   35 H    0 0 0
  69 C    1     1.3914     2.6293   63 C    0 0 0
  69 C    1     1.4025     2.6503   71 C   -1-1 0
  69 C    1     2.1678     4.0966   29 H    0 0 0
  69 C    1     2.4178     4.5690   65 C   -1-1 0
  69 C    1     2.4245     4.5817   61 C   -1-1 0

  70 C    1     1.0914     2.0624   36 H    0 0 0
  70 C    1     1.3914     2.6293   64 C    0 0 0
  70 C    1     1.4025     2.6503   72 C   -1-1 0
  70 C    1     2.1678     4.0966   30 H    0 0 0
  70 C    1     2.4178     4.5690   66 C   -1-1 0
  70 C    1     2.4245     4.5817   62 C   -1-1 0

  71 C    1     1.4025     2.6503   69 C    1 1 0
  71 C    1     1.4025     2.6504   65 C    0 0 0
  71 C    1     1.5516     2.9322    9 B    0 0 0
  71 C    1     2.1486     4.0602   35 H    1 1 0
  71 C    1     2.1487     4.0605   31 H    0 0 0
  71 C    1     2.4251     4.5827   63 C    1 1 0

  72 C    1     1.4025     2.6503   70 C    1 1 0
  72 C    1     1.4025     2.6504   66 C    0 0 0
  72 C    1     1.5516     2.9322   10 B    0 0 0
  72 C    1     2.1486     4.0602   36 H    1 1 0
  72 C    1     2.1487     4.0605   32 H    0 0 0
  72 C    1     2.4251     4.5827   64 C    1 1 0

  73 O    1     1.3791     2.6061    1 B    1 0 0
  73 O    1     1.3791     2.6061    5 B    1 1 0
  73 O    1     2.3880     4.5126   75 O    1 0 0
  73 O    1     2.3882     4.5130   77 O    1 1 0
  73 O    1     2.5383     4.7966   61 C    0 0 0
  73 O    1     2.5384     4.7968   49 C    0 0 0

  74 O    1     1.3791     2.6061    2 B    1 0 0
  74 O    1     1.3791     2.6061    6 B    1 1 0
  74 O    1     2.3880     4.5126   76 O    1 0 0
  74 O    1     2.3882     4.5130   78 O    1 1 0
  74 O    1     2.5383     4.7966   62 C    0 0 0
  74 O    1     2.5384     4.7968   50 C    0 0 0

  75 O    1     1.3793     2.6065    1 B    0 0 0
  75 O    1     1.3793     2.6065    3 B    0 0 0
  75 O    1     2.3880     4.5126   73 O   -1 0 0
  75 O    1     2.3882     4.5131   77 O    0 1 0
  75 O    1     2.5391     4.7981   37 C    0 0 0
  75 O    1     2.5395     4.7990   49 C   -1 0 0

  76 O    1     1.3793     2.6065    2 B    0 0 0
  76 O    1     1.3793     2.6065    4 B    0 0 0
  76 O    1     2.3880     4.5126   74 O   -1 0 0
  76 O    1     2.3882     4.5131   78 O    0 1 0
  76 O    1     2.5391     4.7981   38 C    0 0 0
  76 O    1     2.5395     4.7990   50 C   -1 0 0

  77 O    1     1.3793     2.6064    5 B    0 0 0
  77 O    1     1.3793     2.6065    3 B    0-1 0
  77 O    1     2.3882     4.5130   73 O   -1-1 0
  77 O    1     2.3882     4.5131   75 O    0-1 0
  77 O    1     2.5390     4.7980   37 C    0-1 0
  77 O    1     2.5391     4.7982   61 C   -1-1 0

  78 O    1     1.3793     2.6064    6 B    0 0 0
  78 O    1     1.3793     2.6065    4 B    0-1 0
  78 O    1     2.3882     4.5130   74 O   -1-1 0
  78 O    1     2.3882     4.5131   76 O    0-1 0
  78 O    1     2.5390     4.7980   38 C    0-1 0
  78 O    1     2.5391     4.7982   62 C   -1-1 0

  79 O    1     1.3795     2.6068   11 B    0 0 0
  79 O    1     1.3795     2.6068    7 B    0 0 0
  79 O    1     2.3880     4.5126   83 O    1 0 0
  79 O    1     2.3884     4.5134   81 O    0-1 0
  79 O    1     2.5400     4.7998   47 C    0 0 0
  79 O    1     2.5403     4.8005   59 C    0 0 0

  80 O    1     1.3795     2.6068   12 B    0 0 0
  80 O    1     1.3795     2.6068    8 B    0 0 0
  80 O    1     2.3880     4.5126   84 O    1 0 0
  80 O    1     2.3884     4.5134   82 O    0-1 0
  80 O    1     2.5400     4.7998   48 C    0 0 0
  80 O    1     2.5403     4.8005   60 C    0 0 0

  81 O    1     1.3795     2.6069    9 B    0 0 0
  81 O    1     1.3795     2.6070    7 B    0 1 0
  81 O    1     2.3881     4.5128   83 O    1 1 0
  81 O    1     2.3884     4.5134   79 O    0 1 0
  81 O    1     2.5404     4.8006   47 C    0 1 0
  81 O    1     2.5405     4.8008   71 C    0 0 0

  82 O    1     1.3795     2.6069   10 B    0 0 0
  82 O    1     1.3795     2.6070    8 B    0 1 0
  82 O    1     2.3881     4.5128   84 O    1 1 0
  82 O    1     2.3884     4.5134   80 O    0 1 0
  82 O    1     2.5404     4.8006   48 C    0 1 0
  82 O    1     2.5405     4.8008   72 C    0 0 0

  83 O    1     1.3796     2.6071   11 B   -1 0 0
  83 O    1     1.3797     2.6072    9 B   -1-1 0
  83 O    1     2.3880     4.5126   79 O   -1 0 0
  83 O    1     2.3881     4.5128   81 O   -1-1 0
  83 O    1     2.5409     4.8016   71 C   -1-1 0
  83 O    1     2.5410     4.8019   59 C   -1 0 0

  84 O    1     1.3796     2.6071   12 B   -1 0 0
  84 O    1     1.3797     2.6072   10 B   -1-1 0
  84 O    1     2.3880     4.5126   80 O   -1 0 0
  84 O    1     2.3881     4.5128   82 O   -1-1 0
  84 O    1     2.5409     4.8016   72 C   -1-1 0
  84 O    1     2.5410     4.8019   60 C   -1 0 0


 SYMMETRY ALLOWED INTERNAL DEGREE(S) OF FREEDOM: 249
 TTTTTTTTTTTTTTTTTTTTTTTTTTTTTT SYMM        TELAPSE        3.19 TCPU        3.19
 TTTTTTTTTTTTTTTTTTTTTTTTTTTTTT INT_SCREEN  TELAPSE        3.39 TCPU        3.39

 DFT PARAMETERS

     ATOM       ELECTRONS   NET CHARGE   R(ANGSTROM)
   1   5  B       5.0000      0.0000     0.89000000
  13   1  H       1.0000      0.0000     1.11000000
  37   6  C       6.0000      0.0000     0.77000000
  73   8  O       8.0000      0.0000     0.74000000

 SIZE OF GRID=    2416128
 TTTTTTTTTTTTTTTTTTTTTTTTTTTTTT MAKE_GRID2  TELAPSE       32.27 TCPU       32.23
 BECKE WEIGHT FUNCTION
 RADSAFE =     2.00
 TOLERANCES - DENSITY:10**- 6; POTENTIAL:10**- 9; GRID WGT:10**-14

 RADIAL INTEGRATION  - INTERVALS (POINTS,UPPER LIMIT):            1( 75,  4.0*R)

 ANGULAR INTEGRATION - INTERVALS (ACCURACY LEVEL [N. POINTS] UPPER LIMIT):
  1(  4[  86]   0.2)  2(  8[ 194]   0.5)  3( 12[ 350]   0.9)  4( 16[ 974]   3.5)
  5( 12[ 350]9999.0)
 TTTTTTTTTTTTTTTTTTTTTTTTTTTTTT INT_CALC    TELAPSE       32.63 TCPU       32.59
 EEEEEEEEEE INT_CALC TERMINATION  DATE 19 02 2026 TIME 19:35:37.4

 *******************************************************************************
 cof-1_z31_L000_serr                                                             
 CRYSTAL - SCF - TYPE OF CALCULATION :  RESTRICTED CLOSED SHELL
 *******************************************************************************

 CAPPA:IS1  2;IS2  2;IS3  8; K PTS MONK NET  20; SYMMOPS:K SPACE   2;G SPACE   1

 TTTTTTTTTTTTTTTTTTTTTTTTTTTTTT SDIK        TELAPSE       35.37 TCPU       64.43

 AAAAAAAAAAAAAAAAAAAAAAAAAAAAAAAAAAAAAAAAAAAAAAAAAAAAAAAAAAAAAAAAAAAAAAAAAAAAAAA
         ATOMIC WAVEFUNCTION(S)


 NUCLEAR CHARGE  5.0  SYMMETRY SPECIES            S    P
 N. ELECTRONS    5.0  NUMBER OF PRIMITIVE GTOS    8    4
                      NUMBER OF CONTRACTED GTOS   4    2
                      NUMBER OF CLOSED SHELLS     2    0
                      OPEN SHELL OCCUPATION       0    1

  ZNUC  SCFIT    TOTAL HF ENERGY   KINETIC ENERGY   VIRIAL THEOREM ACCURACY
   5.0    11    -2.451164084E+01  2.462155050E+01 -1.995536038E+00  1.5E-06

 NUCLEAR CHARGE  1.0  SYMMETRY SPECIES            S
 N. ELECTRONS    1.0  NUMBER OF PRIMITIVE GTOS    4
                      NUMBER OF CONTRACTED GTOS   2
                      NUMBER OF CLOSED SHELLS     0
                      OPEN SHELL OCCUPATION       1

  ZNUC  SCFIT    TOTAL HF ENERGY   KINETIC ENERGY   VIRIAL THEOREM ACCURACY
   1.0     1    -4.977266687E-01  5.190767460E-01 -1.958869132E+00  0.0E+00

 NUCLEAR CHARGE  6.0  SYMMETRY SPECIES            S    P
 N. ELECTRONS    6.0  NUMBER OF PRIMITIVE GTOS    8    4
                      NUMBER OF CONTRACTED GTOS   4    2
                      NUMBER OF CLOSED SHELLS     2    0
                      OPEN SHELL OCCUPATION       0    2

  ZNUC  SCFIT    TOTAL HF ENERGY   KINETIC ENERGY   VIRIAL THEOREM ACCURACY
   6.0     9    -3.766704647E+01  3.775180683E+01 -1.997754800E+00  1.1E-06

 NUCLEAR CHARGE  8.0  SYMMETRY SPECIES            S    P
 N. ELECTRONS    8.0  NUMBER OF PRIMITIVE GTOS    8    4
                      NUMBER OF CONTRACTED GTOS   4    2
                      NUMBER OF CLOSED SHELLS     2    0
                      OPEN SHELL OCCUPATION       0    4

  ZNUC  SCFIT    TOTAL HF ENERGY   KINETIC ENERGY   VIRIAL THEOREM ACCURACY
   8.0    12    -7.477373220E+01  7.477365593E+01 -2.000001020E+00  3.8E-06

 AAAAAAAAAAAAAAAAAAAAAAAAAAAAAAAAAAAAAAAAAAAAAAAAAAAAAAAAAAAAAAAAAAAAAAAAAAAAAAA

 CHARGE NORMALIZATION FACTOR   1.00000000
 TOTAL ATOMIC CHARGES:
   5.0000000   5.0000000   5.0000000   5.0000000   5.0000000   5.0000000
   5.0000000   5.0000000   5.0000000   5.0000000   5.0000000   5.0000000
   1.0000000   1.0000000   1.0000000   1.0000000   1.0000000   1.0000000
   1.0000000   1.0000000   1.0000000   1.0000000   1.0000000   1.0000000
   1.0000000   1.0000000   1.0000000   1.0000000   1.0000000   1.0000000
   1.0000000   1.0000000   1.0000000   1.0000000   1.0000000   1.0000000
   6.0000000   6.0000000   6.0000000   6.0000000   6.0000000   6.0000000
   6.0000000   6.0000000   6.0000000   6.0000000   6.0000000   6.0000000
   6.0000000   6.0000000   6.0000000   6.0000000   6.0000000   6.0000000
   6.0000000   6.0000000   6.0000000   6.0000000   6.0000000   6.0000000
   6.0000000   6.0000000   6.0000000   6.0000000   6.0000000   6.0000000
   6.0000000   6.0000000   6.0000000   6.0000000   6.0000000   6.0000000
   8.0000000   8.0000000   8.0000000   8.0000000   8.0000000   8.0000000
   8.0000000   8.0000000   8.0000000   8.0000000   8.0000000   8.0000000
 TTTTTTTTTTTTTTTTTTTTTTTTTTTTTT MOQGAD      TELAPSE       35.57 TCPU       67.60
 TTTTTTTTTTTTTTTTTTTTTTTTTTTTTT SHELLXN     TELAPSE       71.13 TCPU     1198.74
 TTTTTTTTTTTTTTTTTTTTTTTTTTTTTT MONMO3      TELAPSE       71.91 TCPU     1223.80
 NUMERICALLY INTEGRATED DENSITY    395.9997054670
 TTTTTTTTTTTTTTTTTTTTTTTTTTTTTT NUMDFT      TELAPSE       73.79 TCPU     1283.62
 CYC   0 ETOT(AU) -2.592185580327E+03 DETOT -2.59E+03 tst  0.00E+00 PX  1.00E+00
 TTTTTTTTTTTTTTTTTTTTTTTTTTTTTT DIIS        TELAPSE       73.91 TCPU     1287.53
 TTTTTTTTTTTTTTTTTTTTTTTTTTTTTT FDIK        TELAPSE       75.85 TCPU     1349.35
 INSULATING STATE
 TOP OF VALENCE BANDS -    BAND    198; K    1; EIG -2.6656505E-01 AU
 BOTTOM OF VIRTUAL BANDS - BAND    199; K    1; EIG -2.0408687E-01 AU
 DIRECT ENERGY BAND GAP:   1.7001 eV
 TTTTTTTTTTTTTTTTTTTTTTTTTTTTTT PDIG        TELAPSE       77.56 TCPU     1356.43
 CHARGE NORMALIZATION FACTOR   1.00000000
 TOTAL ATOMIC CHARGES:
   4.0990598   4.0990598   4.0989723   4.0989723   4.0991144   4.0991144
   4.0990364   4.0990364   4.0989062   4.0989062   4.0990837   4.0990837
   0.7864665   0.7864665   0.7865754   0.7865754   0.7864243   0.7864243
   0.7865395   0.7865395   0.7864444   0.7864444   0.7866052   0.7866052
   0.7864359   0.7864359   0.7865696   0.7865696   0.7864246   0.7864246
   0.7866056   0.7866056   0.7864164   0.7864164   0.7865703   0.7865703
   6.0639868   6.0639868   6.2763088   6.2763088   6.2762390   6.2762390
   6.2762516   6.2762516   6.2761508   6.2761508   6.0631358   6.0631358
   6.0640199   6.0640199   6.2762983   6.2762983   6.2763536   6.2763536
   6.2762040   6.2762040   6.2763469   6.2763469   6.0626193   6.0626193
   6.0643753   6.0643753   6.2760124   6.2760124   6.2765660   6.2765660
   6.2759240   6.2759240   6.2765325   6.2765325   6.0625634   6.0625634
   8.7117416   8.7117416   8.7118434   8.7118435   8.7117717   8.7117717
   8.7121086   8.7121086   8.7121371   8.7121371   8.7122585   8.7122585
 TTTTTTTTTTTTTTTTTTTTTTTTTTTTTT MOQGAD      TELAPSE       77.69 TCPU     1356.55
 TTTTTTTTTTTTTTTTTTTTTTTTTTTTTT SHELLXN     TELAPSE      114.53 TCPU     2532.14
 TTTTTTTTTTTTTTTTTTTTTTTTTTTTTT MONMO3      TELAPSE      115.31 TCPU     2556.91
 NUMERICALLY INTEGRATED DENSITY    395.9998421802
 TTTTTTTTTTTTTTTTTTTTTTTTTTTTTT NUMDFT      TELAPSE      117.27 TCPU     2619.70
 CYC   1 ETOT(AU) -2.577503803194E+03 DETOT  1.47E+01 tst  0.00E+00 PX  1.00E+00
 TTTTTTTTTTTTTTTTTTTTTTTTTTTTTT DIIS        TELAPSE      117.43 TCPU     2624.77
 DIIS TEST: 0.24369E+01 AT SCF   CYCLE   1 - MIX   30 %
 TTTTTTTTTTTTTTTTTTTTTTTTTTTTTT FDIK        TELAPSE      119.50 TCPU     2690.72
 INSULATING STATE
 TOP OF VALENCE BANDS -    BAND    198; K    1; EIG -1.5501004E-01 AU
 BOTTOM OF VIRTUAL BANDS - BAND    199; K    1; EIG -1.2790297E-01 AU
 DIRECT ENERGY BAND GAP:   0.7376 eV
 TTTTTTTTTTTTTTTTTTTTTTTTTTTTTT PDIG        TELAPSE      121.20 TCPU     2697.79
 CHARGE NORMALIZATION FACTOR   1.00000000
 TOTAL ATOMIC CHARGES:
   4.6867854   4.6867854   4.6867646   4.6867646   4.6866784   4.6866784
   4.6876443   4.6876443   4.6877186   4.6877186   4.6878764   4.6878763
   0.9325501   0.9325501   0.9326368   0.9326368   0.9325205   0.9325205
   0.9325688   0.9325688   0.9325553   0.9325553   0.9326424   0.9326424
   0.9325383   0.9325383   0.9326196   0.9326196   0.9325058   0.9325058
   0.9326449   0.9326449   0.9324919   0.9324919   0.9326352   0.9326352
   5.8613186   5.8613186   6.1151070   6.1151070   6.1156967   6.1156967
   6.1149839   6.1149839   6.1157029   6.1157029   5.8644429   5.8644429
   5.8611126   5.8611127   6.1147902   6.1147902   6.1157408   6.1157408
   6.1150488   6.1150488   6.1155575   6.1155575   5.8648990   5.8648990
   5.8612956   5.8612956   6.1150202   6.1150202   6.1155640   6.1155640
   6.1153306   6.1153306   6.1154795   6.1154795   5.8646090   5.8646090
   8.3538252   8.3538252   8.3542640   8.3542640   8.3542074   8.3542074
   8.3536281   8.3536281   8.3538875   8.3538875   8.3541110   8.3541110
 TTTTTTTTTTTTTTTTTTTTTTTTTTTTTT MOQGAD      TELAPSE      121.32 TCPU     2697.92
 TTTTTTTTTTTTTTTTTTTTTTTTTTTTTT SHELLXN     TELAPSE      158.16 TCPU     3873.31
 TTTTTTTTTTTTTTTTTTTTTTTTTTTTTT MONMO3      TELAPSE      158.94 TCPU     3898.08
 NUMERICALLY INTEGRATED DENSITY    395.9997992829
 TTTTTTTTTTTTTTTTTTTTTTTTTTTTTT NUMDFT      TELAPSE      160.91 TCPU     3961.05
 CYC   2 ETOT(AU) -2.577882260605E+03 DETOT -3.78E-01 tst  4.77E-03 PX  1.52E-01
 TTTTTTTTTTTTTTTTTTTTTTTTTTTTTT DIIS        TELAPSE      161.13 TCPU     3968.12
 DIIS TEST: 0.11417E+01 AT SCF   CYCLE   2 - DIIS ACTIVE - HISTORY:     2 CYCLES
 TTTTTTTTTTTTTTTTTTTTTTTTTTTTTT FDIK        TELAPSE      163.17 TCPU     4032.75
 INSULATING STATE
 TOP OF VALENCE BANDS -    BAND    198; K    1; EIG -1.7770555E-01 AU
 BOTTOM OF VIRTUAL BANDS - BAND    199; K    1; EIG -1.1995344E-01 AU
 DIRECT ENERGY BAND GAP:   1.5715 eV
 TTTTTTTTTTTTTTTTTTTTTTTTTTTTTT PDIG        TELAPSE      164.89 TCPU     4039.84
 CHARGE NORMALIZATION FACTOR   1.00000000
 TOTAL ATOMIC CHARGES:
   4.4432350   4.4432350   4.4430726   4.4430726   4.4431720   4.4431720
   4.4422960   4.4422960   4.4421220   4.4421220   4.4422713   4.4422713
   0.8967375   0.8967375   0.8968558   0.8968558   0.8966881   0.8966881
   0.8967876   0.8967876   0.8966835   0.8966835   0.8969149   0.8969149
   0.8967395   0.8967394   0.8968189   0.8968189   0.8966831   0.8966831
   0.8968509   0.8968509   0.8967500   0.8967500   0.8967978   0.8967978
   5.9054846   5.9054846   6.1738615   6.1738615   6.1726215   6.1726215
   6.1737953   6.1737953   6.1725492   6.1725492   5.9026721   5.9026721
   5.9057413   5.9057413   6.1738946   6.1738946   6.1725917   6.1725917
   6.1738951   6.1738951   6.1724944   6.1724944   5.9021719   5.9021719
   5.9059582   5.9059582   6.1736905   6.1736905   6.1727495   6.1727495
   6.1737565   6.1737565   6.1726739   6.1726739   5.9021637   5.9021637
   8.5131938   8.5131938   8.5133538   8.5133538   8.5132958   8.5132958
   8.5131987   8.5131987   8.5133527   8.5133527   8.5133633   8.5133633
 TTTTTTTTTTTTTTTTTTTTTTTTTTTTTT MOQGAD      TELAPSE      165.01 TCPU     4039.96
 TTTTTTTTTTTTTTTTTTTTTTTTTTTTTT SHELLXN     TELAPSE      201.80 TCPU     5213.59
 TTTTTTTTTTTTTTTTTTTTTTTTTTTTTT MONMO3      TELAPSE      202.58 TCPU     5238.52
 NUMERICALLY INTEGRATED DENSITY    395.9998052674
 TTTTTTTTTTTTTTTTTTTTTTTTTTTTTT NUMDFT      TELAPSE      204.51 TCPU     5299.98
 CYC   3 ETOT(AU) -2.578111790048E+03 DETOT -2.30E-01 tst  7.19E-04 PX  5.28E-02
 TTTTTTTTTTTTTTTTTTTTTTTTTTTTTT DIIS        TELAPSE      204.74 TCPU     5307.01
 DIIS TEST: 0.25285E-01 AT SCF   CYCLE   3 - DIIS ACTIVE - HISTORY:     3 CYCLES
 TTTTTTTTTTTTTTTTTTTTTTTTTTTTTT FDIK        TELAPSE      206.68 TCPU     5368.58
 INSULATING STATE
 TOP OF VALENCE BANDS -    BAND    198; K    1; EIG -1.8357109E-01 AU
 BOTTOM OF VIRTUAL BANDS - BAND    199; K    1; EIG -1.3230774E-01 AU
 DIRECT ENERGY BAND GAP:   1.3949 eV
 TTTTTTTTTTTTTTTTTTTTTTTTTTTTTT PDIG        TELAPSE      208.39 TCPU     5375.66
 CHARGE NORMALIZATION FACTOR   1.00000000
 TOTAL ATOMIC CHARGES:
   4.4566251   4.4566250   4.4566144   4.4566144   4.4566081   4.4566080
   4.4586103   4.4586103   4.4585490   4.4585491   4.4587723   4.4587723
   0.8847582   0.8847582   0.8848254   0.8848254   0.8847182   0.8847182
   0.8847432   0.8847432   0.8847735   0.8847735   0.8848208   0.8848209
   0.8847783   0.8847783   0.8847712   0.8847712   0.8847284   0.8847284
   0.8847960   0.8847960   0.8847468   0.8847468   0.8847793   0.8847793
   5.9590539   5.9590539   6.1530349   6.1530349   6.1556773   6.1556773
   6.1529511   6.1529511   6.1557216   6.1557216   5.9671564   5.9671564
   5.9586030   5.9586030   6.1527298   6.1527298   6.1558815   6.1558815
   6.1527176   6.1527176   6.1558832   6.1558832   5.9675986   5.9675987
   5.9589841   5.9589841   6.1527824   6.1527824   6.1558450   6.1558450
   6.1528086   6.1528086   6.1559099   6.1559099   5.9672977   5.9672977
   8.5007292   8.5007292   8.5011097   8.5011097   8.5010414   8.5010414
   8.5009350   8.5009350   8.5011389   8.5011388   8.5013907   8.5013907
 TTTTTTTTTTTTTTTTTTTTTTTTTTTTTT MOQGAD      TELAPSE      208.51 TCPU     5375.79
 TTTTTTTTTTTTTTTTTTTTTTTTTTTTTT SHELLXN     TELAPSE      245.47 TCPU     6554.71
 TTTTTTTTTTTTTTTTTTTTTTTTTTTTTT MONMO3      TELAPSE      246.24 TCPU     6579.45
 NUMERICALLY INTEGRATED DENSITY    395.9998080446
 TTTTTTTTTTTTTTTTTTTTTTTTTTTTTT NUMDFT      TELAPSE      248.22 TCPU     6642.61
 CYC   4 ETOT(AU) -2.578116014569E+03 DETOT -4.22E-03 tst  7.46E-05 PX  1.43E-02
 TTTTTTTTTTTTTTTTTTTTTTTTTTTTTT DIIS        TELAPSE      248.48 TCPU     6649.78
 DIIS TEST: 0.92002E-02 AT SCF   CYCLE   4 - DIIS ACTIVE - HISTORY:     4 CYCLES
 TTTTTTTTTTTTTTTTTTTTTTTTTTTTTT FDIK        TELAPSE      250.52 TCPU     6714.75
 INSULATING STATE
 TOP OF VALENCE BANDS -    BAND    198; K    1; EIG -1.8472907E-01 AU
 BOTTOM OF VIRTUAL BANDS - BAND    199; K    1; EIG -1.2998279E-01 AU
 DIRECT ENERGY BAND GAP:   1.4897 eV
 TTTTTTTTTTTTTTTTTTTTTTTTTTTTTT PDIG        TELAPSE      252.26 TCPU     6721.84
 CHARGE NORMALIZATION FACTOR   1.00000000
 TOTAL ATOMIC CHARGES:
   4.4593228   4.4593228   4.4591732   4.4591732   4.4592567   4.4592567
   4.4573639   4.4573639   4.4572206   4.4572206   4.4573817   4.4573817
   0.8850854   0.8850854   0.8852984   0.8852984   0.8850315   0.8850315
   0.8852341   0.8852341   0.8850384   0.8850384   0.8853533   0.8853533
   0.8850615   0.8850615   0.8852858   0.8852858   0.8850207   0.8850207
   0.8853042   0.8853042   0.8850583   0.8850583   0.8852702   0.8852702
   5.9350380   5.9350380   6.1713313   6.1713313   6.1678276   6.1678276
   6.1712638   6.1712639   6.1677928   6.1677928   5.9262619   5.9262619
   5.9353987   5.9353988   6.1713123   6.1713123   6.1677913   6.1677913
   6.1714804   6.1714804   6.1675687   6.1675687   5.9257847   5.9257847
   5.9355446   5.9355446   6.1711710   6.1711710   6.1679169   6.1679169
   6.1714194   6.1714194   6.1677158   6.1677158   5.9257768   5.9257768
   8.5016772   8.5016772   8.5018595   8.5018595   8.5017794   8.5017794
   8.5013765   8.5013765   8.5015716   8.5015716   8.5015789   8.5015789
 TTTTTTTTTTTTTTTTTTTTTTTTTTTTTT MOQGAD      TELAPSE      252.38 TCPU     6721.96
 TTTTTTTTTTTTTTTTTTTTTTTTTTTTTT SHELLXN     TELAPSE      289.18 TCPU     7895.59
 TTTTTTTTTTTTTTTTTTTTTTTTTTTTTT MONMO3      TELAPSE      289.95 TCPU     7920.32
 NUMERICALLY INTEGRATED DENSITY    395.9998079982
 TTTTTTTTTTTTTTTTTTTTTTTTTTTTTT NUMDFT      TELAPSE      291.88 TCPU     7982.06
 CYC   5 ETOT(AU) -2.578117785136E+03 DETOT -1.77E-03 tst  2.03E-05 PX  8.21E-03
 TTTTTTTTTTTTTTTTTTTTTTTTTTTTTT DIIS        TELAPSE      292.14 TCPU     7989.08
 DIIS TEST: 0.12224E-02 AT SCF   CYCLE   5 - DIIS ACTIVE - HISTORY:     5 CYCLES
 TTTTTTTTTTTTTTTTTTTTTTTTTTTTTT FDIK        TELAPSE      294.10 TCPU     8051.33
 INSULATING STATE
 TOP OF VALENCE BANDS -    BAND    198; K    1; EIG -1.8400648E-01 AU
 BOTTOM OF VIRTUAL BANDS - BAND    199; K    1; EIG -1.2951225E-01 AU
 DIRECT ENERGY BAND GAP:   1.4829 eV
 TTTTTTTTTTTTTTTTTTTTTTTTTTTTTT PDIG        TELAPSE      295.81 TCPU     8058.40
 CHARGE NORMALIZATION FACTOR   1.00000000
 TOTAL ATOMIC CHARGES:
   4.4565228   4.4565227   4.4564713   4.4564713   4.4564876   4.4564876
   4.4592104   4.4592104   4.4591304   4.4591305   4.4593271   4.4593270
   0.8867470   0.8867470   0.8867381   0.8867381   0.8867028   0.8867028
   0.8866642   0.8866642   0.8867339   0.8867339   0.8867600   0.8867600
   0.8867628   0.8867628   0.8866883   0.8866883   0.8867054   0.8867054
   0.8867233   0.8867233   0.8867476   0.8867476   0.8866861   0.8866861
   5.9259251   5.9259251   6.1650537   6.1650537   6.1693348   6.1693348
   6.1649904   6.1649904   6.1692997   6.1692997   5.9382039   5.9382039
   5.9256490   5.9256491   6.1648952   6.1648952   6.1694335   6.1694335
   6.1647739   6.1647739   6.1694974   6.1694975   5.9383735   5.9383735
   5.9259978   5.9259978   6.1648654   6.1648654   6.1694496   6.1694496
   6.1647702   6.1647702   6.1695861   6.1695861   5.9381615   5.9381615
   8.5019266   8.5019266   8.5022548   8.5022548   8.5022032   8.5022032
   8.5023378   8.5023378   8.5025072   8.5025072   8.5027006   8.5027006
 TTTTTTTTTTTTTTTTTTTTTTTTTTTTTT MOQGAD      TELAPSE      295.94 TCPU     8058.53
 TTTTTTTTTTTTTTTTTTTTTTTTTTTTTT SHELLXN     TELAPSE      332.91 TCPU     9237.74
 TTTTTTTTTTTTTTTTTTTTTTTTTTTTTT MONMO3      TELAPSE      333.69 TCPU     9262.62
 NUMERICALLY INTEGRATED DENSITY    395.9998078770
 TTTTTTTTTTTTTTTTTTTTTTTTTTTTTT NUMDFT      TELAPSE      335.66 TCPU     9325.60
 CYC   6 ETOT(AU) -2.578117738245E+03 DETOT  4.69E-05 tst  9.00E-06 PX  3.18E-03
 TTTTTTTTTTTTTTTTTTTTTTTTTTTTTT DIIS        TELAPSE      335.94 TCPU     9332.61
 DIIS TEST: 0.14362E-02 AT SCF   CYCLE   6 - DIIS ACTIVE - HISTORY:     6 CYCLES
 TTTTTTTTTTTTTTTTTTTTTTTTTTTTTT FDIK        TELAPSE      338.00 TCPU     9398.12
 INSULATING STATE
 TOP OF VALENCE BANDS -    BAND    198; K    1; EIG -1.8378075E-01 AU
 BOTTOM OF VIRTUAL BANDS - BAND    199; K    1; EIG -1.2950771E-01 AU
 DIRECT ENERGY BAND GAP:   1.4768 eV
 TTTTTTTTTTTTTTTTTTTTTTTTTTTTTT PDIG        TELAPSE      339.72 TCPU     9405.20
 CHARGE NORMALIZATION FACTOR   1.00000000
 TOTAL ATOMIC CHARGES:
   4.4579478   4.4579478   4.4578683   4.4578683   4.4579055   4.4579055
   4.4579394   4.4579394   4.4578396   4.4578396   4.4580288   4.4580288
   0.8870820   0.8870820   0.8872173   0.8872173   0.8870373   0.8870373
   0.8871429   0.8871429   0.8870666   0.8870666   0.8872419   0.8872419
   0.8870880   0.8870880   0.8871769   0.8871769   0.8870395   0.8870395
   0.8872017   0.8872017   0.8870737   0.8870737   0.8871722   0.8871722
   5.9343554   5.9343554   6.1658620   6.1658620   6.1655200   6.1655200
   6.1657784   6.1657784   6.1655124   6.1655124   5.9342960   5.9342960
   5.9342623   5.9342623   6.1656988   6.1656988   6.1656178   6.1656178
   6.1657317   6.1657318   6.1655395   6.1655395   5.9342893   5.9342893
   5.9345590   5.9345590   6.1656371   6.1656371   6.1656702   6.1656702
   6.1657256   6.1657256   6.1656333   6.1656333   5.9341247   5.9341247
   8.5020195   8.5020195   8.5022951   8.5022951   8.5022286   8.5022286
   8.5020240   8.5020240   8.5022101   8.5022101   8.5023398   8.5023398
 TTTTTTTTTTTTTTTTTTTTTTTTTTTTTT MOQGAD      TELAPSE      339.84 TCPU     9405.33
 TTTTTTTTTTTTTTTTTTTTTTTTTTTTTT SHELLXN     TELAPSE      376.67 TCPU    10579.90
 TTTTTTTTTTTTTTTTTTTTTTTTTTTTTT MONMO3      TELAPSE      377.45 TCPU    10604.68
 NUMERICALLY INTEGRATED DENSITY    395.9998078279
 TTTTTTTTTTTTTTTTTTTTTTTTTTTTTT NUMDFT      TELAPSE      379.41 TCPU    10667.33
 CYC   7 ETOT(AU) -2.578118063533E+03 DETOT -3.25E-04 tst  2.98E-06 PX  2.03E-03
 TTTTTTTTTTTTTTTTTTTTTTTTTTTTTT DIIS        TELAPSE      379.72 TCPU    10674.59
 DIIS TEST: 0.13779E-04 AT SCF   CYCLE   7 - DIIS ACTIVE - HISTORY:     7 CYCLES
 TTTTTTTTTTTTTTTTTTTTTTTTTTTTTT FDIK        TELAPSE      381.74 TCPU    10738.57
 INSULATING STATE
 TOP OF VALENCE BANDS -    BAND    198; K    1; EIG -1.8396445E-01 AU
 BOTTOM OF VIRTUAL BANDS - BAND    199; K    1; EIG -1.2962107E-01 AU
 DIRECT ENERGY BAND GAP:   1.4788 eV
 TTTTTTTTTTTTTTTTTTTTTTTTTTTTTT PDIG        TELAPSE      383.44 TCPU    10745.65
 CHARGE NORMALIZATION FACTOR   1.00000000
 TOTAL ATOMIC CHARGES:
   4.4582165   4.4582165   4.4581057   4.4581057   4.4581629   4.4581629
   4.4583530   4.4583530   4.4582343   4.4582343   4.4584111   4.4584111
   0.8867736   0.8867736   0.8868850   0.8868850   0.8867239   0.8867238
   0.8868156   0.8868156   0.8867423   0.8867423   0.8869251   0.8869251
   0.8867663   0.8867663   0.8868574   0.8868574   0.8867193   0.8867193
   0.8868811   0.8868811   0.8867574   0.8867574   0.8868475   0.8868475
   5.9337405   5.9337405   6.1661521   6.1661521   6.1661520   6.1661520
   6.1660843   6.1660843   6.1661266   6.1661266   5.9344865   5.9344865
   5.9338434   5.9338435   6.1660663   6.1660663   6.1661764   6.1661764
   6.1661367   6.1661367   6.1660551   6.1660552   5.9342813   5.9342813
   5.9340710   5.9340710   6.1659746   6.1659746   6.1662569   6.1662569
   6.1661056   6.1661056   6.1661748   6.1661748   5.9341857   5.9341857
   8.5016411   8.5016411   8.5018851   8.5018851   8.5018129   8.5018129
   8.5016491   8.5016491   8.5018394   8.5018394   8.5019243   8.5019243
 TTTTTTTTTTTTTTTTTTTTTTTTTTTTTT MOQGAD      TELAPSE      383.57 TCPU    10745.77
 TTTTTTTTTTTTTTTTTTTTTTTTTTTTTT SHELLXN     TELAPSE      420.44 TCPU    11921.84
 TTTTTTTTTTTTTTTTTTTTTTTTTTTTTT MONMO3      TELAPSE      421.21 TCPU    11946.56
 NUMERICALLY INTEGRATED DENSITY    395.9998078001
 TTTTTTTTTTTTTTTTTTTTTTTTTTTTTT NUMDFT      TELAPSE      423.19 TCPU    12009.89
 CYC   8 ETOT(AU) -2.578118066774E+03 DETOT -3.24E-06 tst  1.31E-08 PX  1.94E-04
 TTTTTTTTTTTTTTTTTTTTTTTTTTTTTT DIIS        TELAPSE      423.52 TCPU    12016.90
 DIIS TEST: 0.80239E-06 AT SCF   CYCLE   8 - DIIS ACTIVE - HISTORY:     8 CYCLES
 TTTTTTTTTTTTTTTTTTTTTTTTTTTTTT FDIK        TELAPSE      425.59 TCPU    12082.48
 INSULATING STATE
 TOP OF VALENCE BANDS -    BAND    198; K    1; EIG -1.8393694E-01 AU
 BOTTOM OF VIRTUAL BANDS - BAND    199; K    1; EIG -1.2963026E-01 AU
 DIRECT ENERGY BAND GAP:   1.4778 eV
 TTTTTTTTTTTTTTTTTTTTTTTTTTTTTT PDIG        TELAPSE      427.31 TCPU    12089.58
 CHARGE NORMALIZATION FACTOR   1.00000000
 TOTAL ATOMIC CHARGES:
   4.4582008   4.4582008   4.4581254   4.4581254   4.4581592   4.4581591
   4.4583253   4.4583253   4.4582296   4.4582296   4.4584186   4.4584186
   0.8867946   0.8867946   0.8869224   0.8869224   0.8867489   0.8867489
   0.8868490   0.8868490   0.8867769   0.8867769   0.8869490   0.8869490
   0.8868005   0.8868005   0.8868817   0.8868817   0.8867497   0.8867497
   0.8869091   0.8869091   0.8867867   0.8867867   0.8868768   0.8868768
   5.9337816   5.9337816   6.1661602   6.1661602   6.1660357   6.1660357
   6.1660868   6.1660869   6.1660165   6.1660165   5.9342607   5.9342607
   5.9336695   5.9336695   6.1660132   6.1660132   6.1661190   6.1661191
   6.1660070   6.1660070   6.1660775   6.1660776   5.9342716   5.9342716
   5.9339668   5.9339668   6.1659575   6.1659575   6.1661643   6.1661644
   6.1659989   6.1659989   6.1661737   6.1661737   5.9341065   5.9341065
   8.5017560   8.5017560   8.5020419   8.5020419   8.5019793   8.5019793
   8.5017826   8.5017826   8.5019642   8.5019642   8.5021048   8.5021048
 TTTTTTTTTTTTTTTTTTTTTTTTTTTTTT MOQGAD      TELAPSE      427.43 TCPU    12089.71
 TTTTTTTTTTTTTTTTTTTTTTTTTTTTTT SHELLXN     TELAPSE      464.28 TCPU    13264.89
 TTTTTTTTTTTTTTTTTTTTTTTTTTTTTT MONMO3      TELAPSE      465.05 TCPU    13289.57
 NUMERICALLY INTEGRATED DENSITY    395.9998077969
 TTTTTTTTTTTTTTTTTTTTTTTTTTTTTT NUMDFT      TELAPSE      466.94 TCPU    13349.95
 CYC   9 ETOT(AU) -2.578118066797E+03 DETOT -2.24E-08 tst  1.37E-09 PX  6.51E-05
 TTTTTTTTTTTTTTTTTTTTTTTTTTTTTT DIIS        TELAPSE      467.28 TCPU    13357.07
 DIIS TEST: 0.15838E-06 AT SCF   CYCLE   9 - DIIS ACTIVE - HISTORY:     9 CYCLES
 TTTTTTTTTTTTTTTTTTTTTTTTTTTTTT FDIK        TELAPSE      469.30 TCPU    13421.06
 INSULATING STATE
 TOP OF VALENCE BANDS -    BAND    198; K    1; EIG -1.8394194E-01 AU
 BOTTOM OF VIRTUAL BANDS - BAND    199; K    1; EIG -1.2962618E-01 AU
 DIRECT ENERGY BAND GAP:   1.4780 eV
 TTTTTTTTTTTTTTTTTTTTTTTTTTTTTT PDIG        TELAPSE      471.01 TCPU    13428.15
 CHARGE NORMALIZATION FACTOR   1.00000000
 TOTAL ATOMIC CHARGES:
   4.4581880   4.4581880   4.4580818   4.4580817   4.4581367   4.4581366
   4.4583167   4.4583167   4.4582000   4.4582000   4.4583793   4.4583793
   0.8867952   0.8867952   0.8869114   0.8869114   0.8867471   0.8867471
   0.8868404   0.8868404   0.8867689   0.8867689   0.8869466   0.8869466
   0.8867902   0.8867902   0.8868816   0.8868816   0.8867451   0.8867451
   0.8869034   0.8869034   0.8867799   0.8867799   0.8868732   0.8868732
   5.9337108   5.9337108   6.1661218   6.1661218   6.1660892   6.1660892
   6.1660423   6.1660423   6.1660759   6.1660759   5.9344095   5.9344095
   5.9337877   5.9337877   6.1660077   6.1660077   6.1661405   6.1661405
   6.1660996   6.1660996   6.1659996   6.1659996   5.9342308   5.9342308
   5.9340283   5.9340283   6.1659176   6.1659176   6.1662200   6.1662200
   6.1660759   6.1660759   6.1661114   6.1661114   5.9341224   5.9341224
   8.5017714   8.5017714   8.5020132   8.5020132   8.5019398   8.5019398
   8.5017771   8.5017771   8.5019691   8.5019691   8.5020532   8.5020532
 TTTTTTTTTTTTTTTTTTTTTTTTTTTTTT MOQGAD      TELAPSE      471.14 TCPU    13428.28
 TTTTTTTTTTTTTTTTTTTTTTTTTTTTTT SHELLXN     TELAPSE      508.23 TCPU    14611.68
 +++ ENERGIES IN A.U. +++
 ::: EXT EL-POLE                                  -3.2590610051687E+03
 ::: EXT EL-SPHEROPOLE                             3.6740142460972E+01
 ::: BIELET ZONE E-E                               5.2791703293044E+03
 ::: TOTAL E-E                                     2.0568494665967E+03
 ::: TOTAL E-N + N-E                              -7.7548195613109E+03
 ::: TOTAL N-N                                     8.2689963756934E+02
 ::: KINETIC ENERGY                                2.5605537601393E+03
 ::: PSEUDO TOTAL   ENERGY                        -2.3105166970056E+03
 ::: VIRIAL COEFFICIENT                            1.0513310298698E+00
 TTTTTTTTTTTTTTTTTTTTTTTTTTTTTT MONMO3      TELAPSE      509.00 TCPU    14636.28
 NUMERICALLY INTEGRATED DENSITY    395.9998077962
 EXCHANGE ENERGY: -0.252123168501E+03  CORRELATION ENERGY: -0.154782013672E+02
 TTTTTTTTTTTTTTTTTTTTTTTTTTTTTT NUMDFT      TELAPSE      510.95 TCPU    14698.47
 CYC  10 ETOT(AU) -2.578118066874E+03 DETOT -7.74E-08 tst  4.38E-10 PX  6.51E-05

 == SCF ENDED - CONVERGENCE ON ENERGY      E(AU) -2.5781180668741E+03 CYCLES  10


 ENERGY EXPRESSION=HARTREE+FOCK EXCH*0.00000+(HSESOL     EXCH)*1.00000+PBESOL     CORR


 TOTAL ENERGY(DFT)(AU)( 10) -2.5781180668741E+03 DE-7.7E-08 tester 4.4E-10
 TTTTTTTTTTTTTTTTTTTTTTTTTTTTTT EDFT        TELAPSE      510.95 TCPU    14698.48
 
 INFORMATION **** DFTD3 ENERGY **** CALCULATE DFTD3 ENERGY

           DFT-D V3(BJ)
 DF                                         hsesol3c  
 parameters
 s6       :    1.0000
 s8       :    0.0000
 a1       :    0.5196
 a2       :    4.9385
 k1 k3    :   16.0000   -4.0000
 Cutoff   :   50.2022
 CN-Cutoff:   21.1671
 ABC-Cutoff:   21.1671
 
 Edisp /kcal,au:   -70.0149 -0.11157579

 E6    /kcal :   -75.3250
 E8    /kcal :     0.0000
 E6(ABC) "   :   5.310175
 
 INFORMATION **** DFTD3 ENERGY **** NORMAL TERMINATION OF DFTD3 MODULE

 GCP ENERGY CALCULATION
  level        hsesol3c            basis:hsesol3c
  Nbf            948
  Atoms           84

  Parameters: 
  sigma     1.0000
  eta       1.4281
  alpha     0.2936
  beta      1.9467

  dmp_scal      4.0000
  dmp_exp       6.0000
 cutoffs: 
   distance [bohr] 60.0
   noise    [a.u.] 2.2E-16
 SR-damping   T
 ** gCP correction **
  Egcp:        0.1745650464 / (a.u.) ||     109.5412 / (kcal/mol)
 INFORMATION **** GCP **** NORMAL TERMINATION OF GCP MODULE

 *******************************************************************************

 DFT-D3-GCP DISPERSION AND COUNTERPOISE CORRECTION

 D3 DISPERSION ENERGY (AU)      -1.1157578529744E-01
 GCP ENERGY (AU)                 1.7456504642329E-01
 TOTAL ENERGY + DISP + GCP (AU) -2.5780550776130E+03

 *******************************************************************************

 EIGENVECTORS IN FORTRAN UNIT  8
 TTTTTTTTTTTTTTTTTTTTTTTTTTTTTT END         TELAPSE      514.81 TCPU    14708.15
 EEEEEEEEEE TERMINATION  DATE 19 02 2026 TIME 19:43:39.6
