 Default number of threads is:           32

         
 *******************************************************************************
 *                                                                             *
 *                               CRYSTAL23                                     *
 *                      public : 1.0.1 - October 2022                          *
 *                       HTTP://WWW.CRYSTAL.UNITO.IT                           *
 *                                                                             *
 *                              MAIN AUTHORS                                   *
 *                                                                             *
 *  R. DOVESI(1,11), V.R. SAUNDERS(2), C. ROETTI(1,11), R. ORLANDO(1,11),      *
 *  C.M. ZICOVICH-WILSON(1,3), F. PASCALE(4), B. CIVALLERI(1,11),              *
 *  K. DOLL(5), N.M. HARRISON(6), I.J. BUSH(7), Ph. D'ARCO(8),                 *
 *  M. LLUNELL(9), M. CAUSA'(10), Y. NOEL(8), L. MASCHIO(1,11), A. ERBA(1,11)  *
 *  M. RE'RAT(14), S. CASASSA(1,11), B.G. SEARLE(2), J.K. DESMARAIS(1)         *
 *                                                                             *
 *        CONTRIBUTIONS TO THE CODE HAVE ALSO BEEN GIVEN BY                    *
 *                                                                             *
 *  M. FERRABONE(1,11), M. DE LA PIERRE(1,11), M. FERRERO(1,11),               *
 *  J. BAIMA(1,11), E. ALBANESE(1,11), M.F. PEINTINGER(12), R. BAST(13),       *
 *  B. KIRTMAN(15), V. LACIVITA(1,11), R. DEMICHELIS(1,16)                     *
 *  G. BRANDEBURG(17), S. SALUSTRO(1,11), G. SANSONE(1,11)                     *
 *  M.T. RUGGIERO(18), L.E. DAGA(1), L. DONA'(1), A. COSSARD(1)                *
 *                                                                             *
 * (1) THEORETICAL CHEMISTRY GROUP - UNIVERSITA' DI TORINO - TORINO (ITALY)    *
 * (2) SCIENTIFIC COMPUTING DEPARTMENT - STFC DARESBURY (UK)                   *
 * (3) UNIVERSIDAD AUTONOMA DEL ESTADO DE MORELOS - CUERNAVACA (MEXICO)        *
 * (4) UNIVERSITE' DE LORRAINE - NANCY (FRANCE)                                *
 * (5) UNIVERSITAET STUTTGART- STUTTGART (GERMANY)                             *
 * (6) IMPERIAL COLLEGE - LONDON (UK)                                          *
 * (7) SCIENTIFIC COMPUTING DEPARTMENT - STFC RAL (UK)                         *
 * (8) UPMC - SORBONNE UNIVERSITES - PARIS (FRANCE)                            *
 * (9) UNIVERSIDAD DE BARCELONA - BARCELONA (SPAIN)                            *
 *(10) UNIVERSITA' DI NAPOLI "FEDERICO II" - NAPOLI (ITALY)                    *
 *(11) NIS - NANOSTRUCTURED INTERFACES AND SURFACES - TORINO (ITALY)           *
 *(12) MPI FUER CHEMISCHE ENERGIEKONVERSION - MUELHEIM AN DER RUHR (GERMANY)   *
 *(13) UNIVERSITY OF TROMSO - TROMSO (NORWAY)                                  *
 *(14) UNIVERSITE' DE PAU ET DES PAYS DE L'ADOUR - PAU (FRANCE)                *
 *(15) UNIVERSITY OF CALIFORNIA SANTA BARBARA - SANTA BARBARA (USA)            *
 *(16) CURTIN UNIVERSITY - PERTH (AUSTRALIA)                                   *
 *(17) UNIVERSITY COLLEGE LONDON - LONDON (UK)                                 *
 *(18) UNIVERSITY OF VERMONT - BURLINGTON (USA)                                *
 *                                                                             *
 *******************************************************************************
 EEEEEEEEEE STARTING  DATE 19 02 2026 TIME 19:18:46.4
 cof-1_z44_L050_incl                                                             

 CRYSTAL CALCULATION
 (INPUT ACCORDING TO THE INTERNATIONAL TABLES FOR X-RAY CRYSTALLOGRAPHY)
 CRYSTAL FAMILY                       :  TRICLINIC   
 CRYSTAL CLASS  (GROTH - 1921)        :  TRICLINIC PEDIAL                     

 SPACE GROUP (NONCENTROSYMMETRIC)     :  P 1             

 LATTICE PARAMETERS  (ANGSTROMS AND DEGREES) - CONVENTIONAL CELL
        A           B           C        ALPHA        BETA       GAMMA
    15.02361    15.02392     6.66033    49.44636    89.99996   119.99596


 NUMBER OF IRREDUCIBLE ATOMS IN THE CONVENTIONAL CELL:   42

 INPUT COORDINATES

 ATOM AT. N.              COORDINATES
   1   5     5.174144300000E-01  3.476643000000E-02  5.010822400000E-01
   2   5     6.764700900000E-01  1.938260800000E-01  5.010822500000E-01
   3   5     5.178486700000E-01  1.946859800000E-01  4.987997300000E-01
   4   5     1.309891400000E-01  4.210814200000E-01  5.010822500000E-01
   5   5     2.900971100000E-01  4.210606600000E-01  5.010822400000E-01
   6   5     2.905159000000E-01  5.810769600000E-01  4.987997300000E-01
   7   1     8.076866300000E-01  1.181966800000E-01  4.963501100000E-01
   8   1     1.416560000000E-03  5.005981400000E-01  4.956264900000E-01
   9   1     8.077748500000E-01  4.036599300000E-01  4.955151200000E-01
  10   1     1.534270000000E-03  2.152617600000E-01  4.955429000000E-01
  11   1     5.942742900000E-01 -9.653177000000E-02  5.036431800000E-01
  12   1     2.120325800000E-01  7.096233400000E-01  5.043668500000E-01
  13   1     3.089514400000E-01 -9.680682000000E-02  5.044782900000E-01
  14   1     4.973990400000E-01  7.095012700000E-01  5.044503200000E-01
  15   1     5.957157400000E-01  4.033208300000E-01  4.963501500000E-01
  16   1     2.137438700000E-01  2.151540500000E-01  4.956264400000E-01
  17   1     3.106440100000E-01  1.184107800000E-01  4.955150300000E-01
  18   1     4.990889500000E-01  5.005347200000E-01  4.955429900000E-01
  19   6     7.960787500000E-01  2.543011000000E-01  4.987162100000E-01
  20   6     8.511107300000E-01  2.020094700000E-01  4.964614700000E-01
  21   6    -4.195284000000E-02  4.164839900000E-01  4.962667000000E-01
  22   6     8.509988400000E-01  3.627662500000E-01  4.968512400000E-01
  23   6    -4.173814000000E-02  2.559016700000E-01  4.953480500000E-01
  24   6     1.257728000000E-02  3.630990100000E-01  4.968790500000E-01
  25   6     4.577358700000E-01 -8.445822000000E-02  5.012771100000E-01
  26   6     5.104411400000E-01 -1.399371500000E-01  5.035318100000E-01
  27   6     2.960245200000E-01  7.530951900000E-01  5.037266500000E-01
  28   6     3.496257300000E-01 -1.397404900000E-01  5.031421300000E-01
  29   6     4.567662400000E-01  7.527026200000E-01  5.046452100000E-01
  30   6     3.492714200000E-01  6.986594200000E-01  5.031142600000E-01
  31   6     4.582333100000E-01  2.542319600000E-01  4.987162100000E-01
  32   6     5.118318300000E-01  3.628496000000E-01  4.964615200000E-01
  33   6     2.974824100000E-01  2.554707400000E-01  4.962666500000E-01
  34   6     3.508340100000E-01  2.017640800000E-01  4.968511800000E-01
  35   6     4.585784700000E-01  4.167496700000E-01  4.953481100000E-01
  36   6     3.505013700000E-01  3.630216100000E-01  4.968790500000E-01
  37   8     4.647914300000E-01  8.846062000000E-02  4.994121000000E-01
  38   8     6.228113000000E-01  8.661783000000E-02  5.042276800000E-01
  39   8     6.242047600000E-01  2.483547400000E-01  4.969625800000E-01
  40   8     1.843792600000E-01  5.277411000000E-01  4.994121200000E-01
  41   8     1.834735700000E-01  3.669351200000E-01  5.042276700000E-01
  42   8     3.437891900000E-01  5.286667100000E-01  4.969625600000E-01

 *******************************************************************************

 << INFORMATION >>: FROM NOW ON, ALL COORDINATES REFER TO THE PRIMITIVE CELL

 *******************************************************************************

 LATTICE PARAMETERS  (ANGSTROMS AND DEGREES) - PRIMITIVE CELL
       A          B          C        ALPHA      BETA     GAMMA        VOLUME
   15.02361   15.02392    6.66033    49.44636  89.99996 119.99596    860.124581

 COORDINATES OF THE EQUIVALENT ATOMS (FRACTIONAL UNITS)

 N. ATOM EQUIV AT. N.          X                  Y                  Z

   1   1   1    5 B    -4.82585570000E-01  3.47664300000E-02 -4.98917760000E-01

   2   2   1    5 B    -3.23529910000E-01  1.93826080000E-01 -4.98917750000E-01

   3   3   1    5 B    -4.82151330000E-01  1.94685980000E-01  4.98799730000E-01

   4   4   1    5 B     1.30989140000E-01  4.21081420000E-01 -4.98917750000E-01

   5   5   1    5 B     2.90097110000E-01  4.21060660000E-01 -4.98917760000E-01

   6   6   1    5 B     2.90515900000E-01 -4.18923040000E-01  4.98799730000E-01

   7   7   1    1 H    -1.92313370000E-01  1.18196680000E-01  4.96350110000E-01

   8   8   1    1 H     1.41656000000E-03 -4.99401860000E-01  4.95626490000E-01

   9   9   1    1 H    -1.92225150000E-01  4.03659930000E-01  4.95515120000E-01

  10  10   1    1 H     1.53427000000E-03  2.15261760000E-01  4.95542900000E-01

  11  11   1    1 H    -4.05725710000E-01 -9.65317700000E-02 -4.96356820000E-01

  12  12   1    1 H     2.12032580000E-01 -2.90376660000E-01 -4.95633150000E-01

  13  13   1    1 H     3.08951440000E-01 -9.68068200000E-02 -4.95521710000E-01

  14  14   1    1 H     4.97399040000E-01 -2.90498730000E-01 -4.95549680000E-01

  15  15   1    1 H    -4.04284260000E-01  4.03320830000E-01  4.96350150000E-01

  16  16   1    1 H     2.13743870000E-01  2.15154050000E-01  4.95626440000E-01

  17  17   1    1 H     3.10644010000E-01  1.18410780000E-01  4.95515030000E-01

  18  18   1    1 H     4.99088950000E-01 -4.99465280000E-01  4.95542990000E-01

  19  19   1    6 C    -2.03921250000E-01  2.54301100000E-01  4.98716210000E-01

  20  20   1    6 C    -1.48889270000E-01  2.02009470000E-01  4.96461470000E-01

  21  21   1    6 C    -4.19528400000E-02  4.16483990000E-01  4.96266700000E-01

  22  22   1    6 C    -1.49001160000E-01  3.62766250000E-01  4.96851240000E-01

  23  23   1    6 C    -4.17381400000E-02  2.55901670000E-01  4.95348050000E-01

  24  24   1    6 C     1.25772800000E-02  3.63099010000E-01  4.96879050000E-01

  25  25   1    6 C     4.57735870000E-01 -8.44582200000E-02 -4.98722890000E-01

  26  26   1    6 C    -4.89558860000E-01 -1.39937150000E-01 -4.96468190000E-01

  27  27   1    6 C     2.96024520000E-01 -2.46904810000E-01 -4.96273350000E-01

  28  28   1    6 C     3.49625730000E-01 -1.39740490000E-01 -4.96857870000E-01

  29  29   1    6 C     4.56766240000E-01 -2.47297380000E-01 -4.95354790000E-01

  30  30   1    6 C     3.49271420000E-01 -3.01340580000E-01 -4.96885740000E-01

  31  31   1    6 C     4.58233310000E-01  2.54231960000E-01  4.98716210000E-01

  32  32   1    6 C    -4.88168170000E-01  3.62849600000E-01  4.96461520000E-01

  33  33   1    6 C     2.97482410000E-01  2.55470740000E-01  4.96266650000E-01

  34  34   1    6 C     3.50834010000E-01  2.01764080000E-01  4.96851180000E-01

  35  35   1    6 C     4.58578470000E-01  4.16749670000E-01  4.95348110000E-01

  36  36   1    6 C     3.50501370000E-01  3.63021610000E-01  4.96879050000E-01

  37  37   1    8 O     4.64791430000E-01  8.84606200000E-02  4.99412100000E-01

  38  38   1    8 O    -3.77188700000E-01  8.66178300000E-02 -4.95772320000E-01

  39  39   1    8 O    -3.75795240000E-01  2.48354740000E-01  4.96962580000E-01

  40  40   1    8 O     1.84379260000E-01 -4.72258900000E-01  4.99412120000E-01

  41  41   1    8 O     1.83473570000E-01  3.66935120000E-01 -4.95772330000E-01

  42  42   1    8 O     3.43789190000E-01 -4.71333290000E-01  4.96962560000E-01

 NUMBER OF SYMMETRY OPERATORS         :    1
 *******************************************************************************
 * GEOMETRY EDITING - INPUT COORDINATES ARE GIVEN IN ANGSTROM         
 *******************************************************************************

 GCALCO - MAX INDICES DIRECT LATTICE VECTOR     9    13    25
 NO.OF VECTORS CREATED 6999 STARS 3500 RMAX   213.66352 BOHR

 GEOMETRY FOR WAVE FUNCTION - DIMENSIONALITY OF THE SYSTEM    3
 (NON PERIODIC DIRECTION: LATTICE PARAMETER FORMALLY SET TO 500)
 *******************************************************************************
 LATTICE PARAMETERS (ANGSTROMS AND DEGREES) - BOHR = 0.5291772083 ANGSTROM
 PRIMITIVE CELL - CENTRING CODE 1/0 VOLUME=   860.124581 - DENSITY  0.753 g/cm^3
         A              B              C           ALPHA      BETA       GAMMA 
    15.02361100    15.02391600     6.66033000    49.446357  89.999963 119.995964
 *******************************************************************************
 ATOMS IN THE ASYMMETRIC UNIT   42 - ATOMS IN THE UNIT CELL:   42
     ATOM                 X/A                 Y/B                 Z/C    
 *******************************************************************************
      1 T   5 B    -4.825855700000E-01  3.476643000000E-02 -4.989177600000E-01
      2 T   5 B    -3.235299100000E-01  1.938260800000E-01 -4.989177500000E-01
      3 T   5 B    -4.821513300000E-01  1.946859800000E-01  4.987997300000E-01
      4 T   5 B     1.309891400000E-01  4.210814200000E-01 -4.989177500000E-01
      5 T   5 B     2.900971100000E-01  4.210606600000E-01 -4.989177600000E-01
      6 T   5 B     2.905159000000E-01 -4.189230400000E-01  4.987997300000E-01
      7 T   1 H    -1.923133700000E-01  1.181966800000E-01  4.963501100000E-01
      8 T   1 H     1.416560000000E-03 -4.994018600000E-01  4.956264900000E-01
      9 T   1 H    -1.922251500000E-01  4.036599300000E-01  4.955151200000E-01
     10 T   1 H     1.534270000000E-03  2.152617600000E-01  4.955429000000E-01
     11 T   1 H    -4.057257100000E-01 -9.653177000000E-02 -4.963568200000E-01
     12 T   1 H     2.120325800000E-01 -2.903766600000E-01 -4.956331500000E-01
     13 T   1 H     3.089514400000E-01 -9.680682000000E-02 -4.955217100000E-01
     14 T   1 H     4.973990400000E-01 -2.904987300000E-01 -4.955496800000E-01
     15 T   1 H    -4.042842600000E-01  4.033208300000E-01  4.963501500000E-01
     16 T   1 H     2.137438700000E-01  2.151540500000E-01  4.956264400000E-01
     17 T   1 H     3.106440100000E-01  1.184107800000E-01  4.955150300000E-01
     18 T   1 H     4.990889500000E-01 -4.994652800000E-01  4.955429900000E-01
     19 T   6 C    -2.039212500000E-01  2.543011000000E-01  4.987162100000E-01
     20 T   6 C    -1.488892700000E-01  2.020094700000E-01  4.964614700000E-01
     21 T   6 C    -4.195284000000E-02  4.164839900000E-01  4.962667000000E-01
     22 T   6 C    -1.490011600000E-01  3.627662500000E-01  4.968512400000E-01
     23 T   6 C    -4.173814000000E-02  2.559016700000E-01  4.953480500000E-01
     24 T   6 C     1.257728000000E-02  3.630990100000E-01  4.968790500000E-01
     25 T   6 C     4.577358700000E-01 -8.445822000000E-02 -4.987228900000E-01
     26 T   6 C    -4.895588600000E-01 -1.399371500000E-01 -4.964681900000E-01
     27 T   6 C     2.960245200000E-01 -2.469048100000E-01 -4.962733500000E-01
     28 T   6 C     3.496257300000E-01 -1.397404900000E-01 -4.968578700000E-01
     29 T   6 C     4.567662400000E-01 -2.472973800000E-01 -4.953547900000E-01
     30 T   6 C     3.492714200000E-01 -3.013405800000E-01 -4.968857400000E-01
     31 T   6 C     4.582333100000E-01  2.542319600000E-01  4.987162100000E-01
     32 T   6 C    -4.881681700000E-01  3.628496000000E-01  4.964615200000E-01
     33 T   6 C     2.974824100000E-01  2.554707400000E-01  4.962666500000E-01
     34 T   6 C     3.508340100000E-01  2.017640800000E-01  4.968511800000E-01
     35 T   6 C     4.585784700000E-01  4.167496700000E-01  4.953481100000E-01
     36 T   6 C     3.505013700000E-01  3.630216100000E-01  4.968790500000E-01
     37 T   8 O     4.647914300000E-01  8.846062000000E-02  4.994121000000E-01
     38 T   8 O    -3.771887000000E-01  8.661783000000E-02 -4.957723200000E-01
     39 T   8 O    -3.757952400000E-01  2.483547400000E-01  4.969625800000E-01
     40 T   8 O     1.843792600000E-01 -4.722589000000E-01  4.994121200000E-01
     41 T   8 O     1.834735700000E-01  3.669351200000E-01 -4.957723300000E-01
     42 T   8 O     3.437891900000E-01 -4.713332900000E-01  4.969625600000E-01

 T = ATOM BELONGING TO THE ASYMMETRIC UNIT

 ****    1 SYMMOPS - TRANSLATORS IN FRACTIONAL UNITS
 **** MATRICES AND TRANSLATORS IN THE CRYSTALLOGRAPHIC REFERENCE FRAME
   V INV                    ROTATION MATRICES                   TRANSLATORS
   1   1  1.00 -0.00  0.00  0.00  1.00  0.00 -0.00  0.00  1.00  0.00  0.00  0.00

 DIRECT LATTICE VECTORS CARTESIAN COMPONENTS (ANGSTROM)
          X                    Y                    Z
   0.130113578931E+02  -0.751088897922E+01   0.000000000000E+00
   0.000000000000E+00   0.150239160000E+02   0.000000000000E+00
   0.249968549954E+01   0.433027809721E+01   0.440002951275E+01


 CARTESIAN COORDINATES - PRIMITIVE CELL
 *******************************************************************************
 *      ATOM          X(ANGSTROM)         Y(ANGSTROM)         Z(ANGSTROM)
 *******************************************************************************
    1     5 B    -7.526231055431E+00  1.986521914744E+00 -2.195252868436E+00
    2     5 B    -5.456700913258E+00  3.181571374860E+00 -2.195252824435E+00
    3     5 B     5.485071332527E+00 -3.134894610005E+00 -2.205295979799E+00
    4     5 B     4.572091155039E-01  3.181994390083E+00 -2.195252824435E+00
    5     5 B     2.527419831815E+00  1.986640151905E+00 -2.195252868436E+00
    6     5 B     2.527163301237E+00  4.377682213481E+00 -2.205295979799E+00
    7     1 H    -3.761224411569E+00  1.039277275758E+00 -2.216074380094E+00
    8     1 H    -1.242343780164E+00  5.326227217057E+00 -2.219258329450E+00
    9     1 H    -1.262478262428E+00 -5.369863087478E+00  2.180281152014E+00
   10     1 H    -1.241021161937E+00  1.038111337505E+00 -2.219626127917E+00
   11     1 H    -4.020092865235E+00  3.777990591176E+00  2.216044855896E+00
   12     1 H     4.019590284764E+00 -3.771098993043E+00  2.219229025253E+00
   13     1 H     5.280914823763E+00 -1.590386208010E+00  2.219719364542E+00
   14     1 H    -5.278553817810E+00  1.594961665608E+00  2.219596295717E+00
   15     1 H    -4.019567924738E+00 -3.778589353032E+00  2.183955308659E+00
   16     1 H     1.520322715732E+00 -5.570278829789E-01 -2.219258549451E+00
   17     1 H     2.780846627198E+00 -2.738779274918E+00 -2.219748756739E+00
   18     1 H     5.232841075880E+00  1.586950752772E+00 -2.219625731914E+00
   19     6 C    -3.906344186769E+00  3.181530018036E+00 -2.205663470264E+00
   20     6 C    -3.195939540308E+00  1.972802218090E+00 -2.215584392807E+00
   21     6 C    -1.805038241517E+00  4.391018328882E+00 -2.216441386556E+00
   22     6 C    -3.196421078726E+00  4.390526783102E+00 -2.213869393304E+00
   23     6 C    -1.804541039062E+00  1.972852444279E+00 -2.220483473667E+00
   24     6 C    -1.093996651830E+00  3.182048842149E+00 -2.213747028483E+00
   25     6 C     2.209429349093E+00  3.827132591479E+00 -6.594424947436E+00
   26     6 C    -5.111154373161E+00  3.755051027465E+00  2.215554824609E+00
   27     6 C     5.110839177579E+00 -3.751607950805E+00  2.216412126359E+00
   28     6 C     5.806802588222E+00 -2.546704080543E+00  2.213840221109E+00
   29     6 C    -5.806754557100E+00  2.550047496708E+00  2.220453817469E+00
   30     6 C     8.027518686848E-01  1.391330045505E+00 -6.586341433217E+00
   31     6 C     4.709185773911E+00 -1.792878122758E+00 -2.205663470264E+00
   32     6 C     5.400939284270E+00 -5.733517911728E-01 -2.215584172806E+00
   33     6 C     2.611475152768E+00 -5.774919089019E-01 -2.216441606557E+00
   34     6 C     3.307113055700E+00 -1.782563024390E+00 -2.213869657306E+00
   35     6 C     4.705257583470E+00  6.315970326953E-01 -2.220483209666E+00
   36     6 C     3.302854623845E+00  6.427756676582E-01 -2.213747028483E+00
   37     8 O     4.796255326479E+00 -4.329656724132E+00 -2.202601533726E+00
   38     8 O    -6.147012048296E+00  1.987529433437E+00 -2.181412839605E+00
   39     8 O    -1.147670707562E+00 -1.987834648961E+00  6.586679531484E+00
   40     8 O     1.147712275034E+00  4.376201071724E+00 -2.202601445726E+00
   41     8 O     1.147965378811E+00  1.987920743637E+00 -2.181412883605E+00
   42     8 O     3.215728796359E+00  3.182189796182E+00 -2.213379582019E+00

 *******************************************************************************
 STARTING BASIS SET HANDLING 
 *******************************************************************************

 Loading internal basis set: SOLDEF2MSVP         

 Please cite in your publication:
 L. Dona', J. G. Brandenburg and B. Civalleri, J. Chem. Phys., 151, 121101 (2019
 )                                                                              
                                                                                
                    

 *******************************************************************************
 LOCAL ATOMIC FUNCTIONS BASIS SET
 *******************************************************************************
   ATOM   X(AU)   Y(AU)   Z(AU)  N. TYPE  EXPONENT  S COEF   P COEF   D/F/G COEF
 *******************************************************************************
   1 B  -14.223   3.754  -4.148
                                  1 S  
                                         2.410E+03 1.755E-03 0.000E+00 0.000E+00
                                         3.619E+02 1.344E-02 0.000E+00 0.000E+00
                                         8.231E+01 6.637E-02 0.000E+00 0.000E+00
                                         2.311E+01 2.303E-01 0.000E+00 0.000E+00
                                         7.252E+00 5.150E-01 0.000E+00 0.000E+00
                                  2 S  
                                         2.367E+00 1.000E+00 0.000E+00 0.000E+00
                                  3 S  
                                         5.533E-01 1.000E+00 0.000E+00 0.000E+00
                                  4 S  
                                         1.716E-01 1.000E+00 0.000E+00 0.000E+00
                           5-     7 P  
                                         6.002E+00 0.000E+00-3.555E-02 0.000E+00
                                         1.240E+00 0.000E+00-1.983E-01 0.000E+00
                                         3.367E-01 0.000E+00-5.048E-01 0.000E+00
                           8-    10 P  
                                         1.256E-01 0.000E+00 1.000E+00 0.000E+00
                          11-    15 D  
                                         8.880E-01 0.000E+00 0.000E+00 1.000E+00
   2 B  -10.312   6.012  -4.148
   3 B   10.365  -5.924  -4.167
   4 B    0.864   6.013  -4.148
   5 B    4.776   3.754  -4.148
   6 B    4.776   8.273  -4.167
   7 H   -7.108   1.964  -4.188
                                 91 S  
                                         1.874E+01 1.968E-02 0.000E+00 0.000E+00
                                         2.826E+00 1.380E-01 0.000E+00 0.000E+00
                                         6.401E-01 4.783E-01 0.000E+00 0.000E+00
                                 92 S  
                                         1.756E-01 1.000E+00 0.000E+00 0.000E+00
   8 H   -2.348  10.065  -4.194
   9 H   -2.386 -10.148   4.120
  10 H   -2.345   1.962  -4.194
  11 H   -7.597   7.139   4.188
  12 H    7.596  -7.126   4.194
  13 H    9.979  -3.005   4.195
  14 H   -9.975   3.014   4.194
  15 H   -7.596  -7.140   4.127
  16 H    2.873  -1.053  -4.194
  17 H    5.255  -5.176  -4.195
  18 H    9.889   2.999  -4.194
  19 C   -7.382   6.012  -4.168
                                115 S  
                                         3.624E+03 1.634E-03 0.000E+00 0.000E+00
                                         5.440E+02 1.252E-02 0.000E+00 0.000E+00
                                         1.237E+02 6.211E-02 0.000E+00 0.000E+00
                                         3.476E+01 2.182E-01 0.000E+00 0.000E+00
                                         1.093E+01 4.980E-01 0.000E+00 0.000E+00
                                116 S  
                                         3.574E+00 1.000E+00 0.000E+00 0.000E+00
                                117 S  
                                         7.742E-01 1.000E+00 0.000E+00 0.000E+00
                                118 S  
                                         2.330E-01 1.000E+00 0.000E+00 0.000E+00
                         119-   121 P  
                                         9.443E+00 0.000E+00 3.790E-02 0.000E+00
                                         2.002E+00 0.000E+00 2.082E-01 0.000E+00
                                         5.463E-01 0.000E+00 5.047E-01 0.000E+00
                         122-   124 P  
                                         1.820E-01 0.000E+00 1.000E+00 0.000E+00
                         125-   129 D  
                                         8.880E-01 0.000E+00 0.000E+00 1.000E+00
  20 C   -6.039   3.728  -4.187
  21 C   -3.411   8.298  -4.188
  22 C   -6.040   8.297  -4.184
  23 C   -3.410   3.728  -4.196
  24 C   -2.067   6.013  -4.183
  25 C    4.175   7.232 -12.462
  26 C   -9.659   7.096   4.187
  27 C    9.658  -7.090   4.188
  28 C   10.973  -4.813   4.184
  29 C  -10.973   4.819   4.196
  30 C    1.517   2.629 -12.446
  31 C    8.899  -3.388  -4.168
  32 C   10.206  -1.083  -4.187
  33 C    4.935  -1.091  -4.188
  34 C    6.250  -3.369  -4.184
  35 C    8.892   1.194  -4.196
  36 C    6.241   1.215  -4.183
  37 O    9.064  -8.182  -4.162
                                385 S  
                                         6.773E+03 1.727E-03 0.000E+00 0.000E+00
                                         1.017E+03 1.325E-02 0.000E+00 0.000E+00
                                         2.313E+02 6.603E-02 0.000E+00 0.000E+00
                                         6.501E+01 2.353E-01 0.000E+00 0.000E+00
                                         2.050E+01 5.498E-01 0.000E+00 0.000E+00
                                386 S  
                                         6.716E+00 1.000E+00 0.000E+00 0.000E+00
                                387 S  
                                         1.147E+00 1.000E+00 0.000E+00 0.000E+00
                                388 S  
                                         3.342E-01 1.000E+00 0.000E+00 0.000E+00
                         389-   391 P  
                                         1.769E+01 0.000E+00 4.359E-02 0.000E+00
                                         3.854E+00 0.000E+00 2.318E-01 0.000E+00
                                         1.047E+00 0.000E+00 5.146E-01 0.000E+00
                         392-   394 P  
                                         2.759E-01 0.000E+00 1.000E+00 0.000E+00
                         395-   399 D  
                                         8.000E-01 0.000E+00 0.000E+00 1.000E+00
  38 O  -11.616   3.756  -4.122
  39 O   -2.169  -3.756  12.447
  40 O    2.169   8.270  -4.162
  41 O    2.169   3.757  -4.122
  42 O    6.077   6.013  -4.183

 *******************************************************************************
 FINISHED BASIS SET HANDLING 
 *******************************************************************************

 INFORMATION **** SET_MPP **** PCRYSTAL CALCULATION
 INFORMATION **** READM2 **** NEW DEFAULT: FOCK/KS MATRIX MIXING SET TO 30 %
 INFORMATION **** READM2 **** NEW DEFAULT: FULL DIRECT SCF MODE
 INFORMATION **** READM2 **** NEW DEFAULT: COULOMB BIPOLAR BUFFER SET TO 32 Mb
 INFORMATION **** READM2 **** NEW DEFAULT: EXCHANGE BIPOLAR BUFFER SET TO 32 Mb

 *******************************************************************************
 NEW DEFAULT: DFT INTEGRATION GRID INCREASED TO XLGRID
 NEW DEFAULT: DIIS ACCELERATOR ACTIVE
 USE KEYWORD NODIIS TO TURN IT OFF
 *******************************************************************************

 WARNING **** RDDFTP **** HSEsol-HJS ACTIVE
 RANGE SEPARATION - OMEGA:   0.110000000000000     
 WARNING **** RDDFTP **** HSEsol-3c has to be combined with sol-def2-mSVP basis set
 *******************************************************************************
 N. OF ATOMS PER CELL        42  COULOMB OVERLAP TOL         (T1) 10**   -6
 NUMBER OF SHELLS           234  COULOMB PENETRATION TOL     (T2) 10**   -6
 NUMBER OF AO               474  EXCHANGE OVERLAP TOL        (T3) 10**   -6
 N. OF ELECTRONS PER CELL   198  EXCHANGE PSEUDO OVP (F(G))  (T4) 10**   -6
 CORE ELECTRONS PER CELL     60  EXCHANGE PSEUDO OVP (P(G))  (T5) 10**  -12
 N. OF SYMMETRY OPERATORS     1  POLE ORDER IN MONO ZONE                  4
 *******************************************************************************
 TYPE OF CALCULATION :  RESTRICTED CLOSED SHELL
 KOHN-SHAM HAMILTONIAN

 (EXCHANGE)[CORRELATION] FUNCTIONAL:(HSEsol GGA)[PBEsol]

 RANGE-SEPARATED HYBRID FUNCTIONAL 
 OMEGA (SHORT-RANGE)[LONG-RANGE]:(    0.1100)[    0.0000]

 HYBRID EXCHANGE - PERCENTAGE OF FOCK EXCHANGE    25.0000

 CAPPA:IS1  2;IS2  2;IS3  8; K PTS MONK NET  20; SYMMOPS:K SPACE   2;G SPACE   1

 *******************************************************************************
 MAX NUMBER OF SCF CYCLES      50  CONVERGENCE ON DELTAP        10**-16
 WEIGHT OF F(I) IN F(I+1)      30% CONVERGENCE ON ENERGY        10**- 6
 SHRINK. FACT.(MONKH.)    2  2  8  NUMBER OF K POINTS IN THE IBZ     20
 SHRINKING FACTOR(GILAT NET)    8  NUMBER OF K POINTS(GILAT NET)   1028
 *******************************************************************************
 *** K POINTS COORDINATES (OBLIQUE COORDINATES IN UNITS OF IS =  2)
   1-R(  0  0  0)   2-R(  1  0  0)   3-R(  0  1  0)   4-R(  1  1  0)
   5-C(  0  0  1)   6-C(  1  0  1)   7-C(  0  1  1)   8-C(  1  1  1)
   9-C(  0  0  2)  10-C(  1  0  2)  11-C(  0  1  2)  12-C(  1  1  2)
  13-C(  0  0  3)  14-C(  1  0  3)  15-C(  0  1  3)  16-C(  1  1  3)
  17-R(  0  0  4)  18-R(  1  0  4)  19-R(  0  1  4)  20-R(  1  1  4)

 DIRECT LATTICE VECTORS COMPON. (A.U.)     RECIP. LATTICE VECTORS COMPON. (A.U.) 
        X            Y            Z              X            Y            Z
   24.5879030  -14.1935232    0.0000000      0.2555397    0.0000000   -0.1451738
    0.0000000   28.3910867    0.0000000      0.1277517    0.2213084   -0.2903766
    4.7237210    8.1830397    8.3148508      0.0000000    0.0000000    0.7556582

 DISK SPACE FOR EIGENVECTORS (FTN 10)     7189632 REALS

 SYMMETRY ADAPTION OF THE BLOCH FUNCTIONS DISABLED
 TTTTTTTTTTTTTTTTTTTTTTTTTTTTTT gordsh1     TELAPSE        0.04 TCPU        0.04

 MATRIX SIZE: P(G)  279442, F(G)   56269, P(G) IRR  140804, F(G) IRR   56785
 MAX G-VECTOR INDEX FOR 1- AND 2-ELECTRON INTEGRALS  43

 TTTTTTTTTTTTTTTTTTTTTTTTTTTTTT INPUT       TELAPSE        0.35 TCPU        0.35

 NEIGHBORS OF THE NON-EQUIVALENT ATOMS

 N = NUMBER OF NEIGHBORS AT DISTANCE R
    ATOM  N     R/ANG      R/AU   NEIGHBORS (ATOM LABELS AND CELL INDICES)
   1 B    1     1.3791     2.6061   37 O   -1 0 0
   1 B    1     1.3793     2.6065   38 O    0 0 0
   1 B    1     1.5503     2.9297   25 C   -1-1 1
   1 B    1     2.3895     4.5155    3 B   -1 0 0
   1 B    1     2.3898     4.5160    2 B    0 0 0
   1 B    1     2.5632     4.8437   26 C    0 0-1

   2 B    1     1.3793     2.6065   39 O    0 1-2
   2 B    1     1.3793     2.6065   38 O    0 0 0
   2 B    1     1.5504     2.9298   19 C    0 0 0
   2 B    1     2.3895     4.5156    3 B   -1 0 0
   2 B    1     2.3898     4.5160    1 B    0 0 0
   2 B    1     2.5634     4.8440   22 C    0 0 0

   3 B    1     1.3791     2.6061   37 O    0 0 0
   3 B    1     1.3793     2.6064   39 O    1 1-2
   3 B    1     1.5502     2.9294   31 C    0 0 0
   3 B    1     2.3895     4.5155    1 B    1 0 0
   3 B    1     2.3895     4.5156    2 B    1 0 0
   3 B    1     2.5629     4.8433   32 C    0 0 0

   4 B    1     1.3795     2.6068   40 O    0 0 0
   4 B    1     1.3795     2.6070   41 O    0 0 0
   4 B    1     1.5513     2.9316   24 C    0 0 0
   4 B    1     2.3905     4.5174    6 B    0 0 0
   4 B    1     2.3905     4.5175    5 B    0 0 0
   4 B    1     2.5648     4.8468   23 C    0 0 0

   5 B    1     1.3795     2.6069   41 O    0 0 0
   5 B    1     1.3797     2.6072   42 O    0 0 0
   5 B    1     1.5516     2.9322   36 C    0 0 0
   5 B    1     2.3905     4.5175    4 B    0 0 0
   5 B    1     2.3911     4.5185    6 B    0 0 0
   5 B    1     2.5651     4.8473   35 C    0 0 0

   6 B    1     1.3795     2.6068   40 O    0 0 0
   6 B    1     1.3796     2.6071   42 O    0 0 0
   6 B    1     1.5516     2.9322   30 C    0 0 1
   6 B    1     2.3905     4.5174    4 B    0 0 0
   6 B    1     2.3911     4.5185    5 B    0 0 0
   6 B    1     2.5651     4.8473   29 C    1 1-1

   7 H    1     1.0913     2.0623   20 C    0 0 0
   7 H    1     2.1472     4.0576   19 C    0 0 0
   7 H    1     2.1680     4.0969   23 C    0 0 0
   7 H    1     2.5202     4.7625   10 H    0 0 0
   7 H    1     2.5676     4.8520   38 O    0 0 0
   7 H    1     2.7321     5.1630    2 B    0 0 0

   8 H    1     1.0914     2.0625   21 C    0 0 0
   8 H    1     2.1493     4.0616   24 C    0 0 0
   8 H    1     2.1666     4.0942   22 C    0 0 0
   8 H    1     2.5198     4.7618    9 H    0 1-1
   8 H    1     2.5720     4.8604   40 O    0 0 0
   8 H    1     2.7362     5.1707    4 B    0 0 0

   9 H    1     1.0914     2.0624   22 C    0-1 1
   9 H    1     2.1471     4.0575   19 C    0-1 1
   9 H    1     2.1680     4.0970   21 C    0-1 1
   9 H    1     2.5198     4.7618    8 H    0-1 1
   9 H    1     2.5665     4.8500   39 O    0 0-1
   9 H    1     2.7315     5.1618    2 B    0-1 1

  10 H    1     1.0915     2.0626   23 C    0 0 0
  10 H    1     2.1490     4.0610   24 C    0 0 0
  10 H    1     2.1669     4.0948   20 C    0 0 0
  10 H    1     2.5202     4.7625    7 H    0 0 0
  10 H    1     2.5712     4.8588   41 O    0 0 0
  10 H    1     2.7351     5.1686    4 B    0 0 0

  11 H    1     1.0913     2.0623   26 C    0 0 0
  11 H    1     2.1469     4.0571   25 C   -1-1 2
  11 H    1     2.1680     4.0968   29 C    0 0 0
  11 H    1     2.5198     4.7617   14 H    0 0 0
  11 H    1     2.5670     4.8510   38 O    0 0 1
  11 H    1     2.7310     5.1609    1 B    0 0 1

  12 H    1     1.0914     2.0625   27 C    0 0 0
  12 H    1     2.1493     4.0617   30 C    0-1 2
  12 H    1     2.1664     4.0939   28 C    0 0 0
  12 H    1     2.5192     4.7606   13 H    0 0 0
  12 H    1     2.5735     4.8632   40 O    0-1 1
  12 H    1     2.7371     5.1723    6 B    0-1 1

  13 H    1     1.0914     2.0624   28 C    0 0 0
  13 H    1     2.1475     4.0581   25 C    0-1 2
  13 H    1     2.1679     4.0967   27 C    0 0 0
  13 H    1     2.5192     4.7606   12 H    0 0 0
  13 H    1     2.5675     4.8519   37 O    0 0 1
  13 H    1     2.7328     5.1643    1 B    1 0 1

  14 H    1     1.0914     2.0625   29 C    0 0 0
  14 H    1     2.1491     4.0612   30 C   -1-1 2
  14 H    1     2.1666     4.0942   26 C    0 0 0
  14 H    1     2.5198     4.7617   11 H    0 0 0
  14 H    1     2.5723     4.8609   42 O   -1-1 1
  14 H    1     2.7355     5.1693    6 B   -1-1 1

  15 H    1     1.0914     2.0624   32 C   -1-1 1
  15 H    1     2.1475     4.0582   31 C   -1-1 1
  15 H    1     2.1678     4.0966   35 C   -1-1 1
  15 H    1     2.5200     4.7621   18 H   -1-1 1
  15 H    1     2.5667     4.8503   39 O    0 0-1
  15 H    1     2.7315     5.1618    3 B   -1-1 1

  16 H    1     1.0913     2.0623   33 C    0 0 0
  16 H    1     2.1487     4.0605   36 C    0 0 0
  16 H    1     2.1667     4.0945   34 C    0 0 0
  16 H    1     2.5197     4.7616   17 H    0 0 0
  16 H    1     2.5723     4.8610   41 O    0 0 0
  16 H    1     2.7359     5.1701    5 B    0 0 0

  17 H    1     1.0915     2.0626   34 C    0 0 0
  17 H    1     2.1479     4.0589   31 C    0 0 0
  17 H    1     2.1679     4.0968   33 C    0 0 0
  17 H    1     2.5197     4.7616   16 H    0 0 0
  17 H    1     2.5677     4.8522   37 O    0 0 0
  17 H    1     2.7331     5.1648    3 B    0 0 0

  18 H    1     1.0914     2.0624   35 C    0 0 0
  18 H    1     2.1486     4.0602   36 C    0 0 0
  18 H    1     2.1668     4.0947   32 C    0 0 0
  18 H    1     2.5200     4.7621   15 H    1 1-1
  18 H    1     2.5717     4.8598   42 O    0 0 0
  18 H    1     2.7349     5.1682    5 B    0 0 0

  19 C    1     1.4020     2.6495   22 C    0 0 0
  19 C    1     1.4021     2.6495   20 C    0 0 0
  19 C    1     1.5504     2.9298    2 B    0 0 0
  19 C    1     2.1471     4.0575    9 H    0 1-1
  19 C    1     2.1472     4.0576    7 H    0 0 0
  19 C    1     2.4246     4.5817   21 C    0 0 0

  20 C    1     1.0913     2.0623    7 H    0 0 0
  20 C    1     1.3914     2.6294   23 C    0 0 0
  20 C    1     1.4021     2.6495   19 C    0 0 0
  20 C    1     2.1669     4.0948   10 H    0 0 0
  20 C    1     2.4177     4.5688   22 C    0 0 0
  20 C    1     2.4250     4.5825   24 C    0 0 0

  21 C    1     1.0914     2.0625    8 H    0 0 0
  21 C    1     1.3914     2.6293   22 C    0 0 0
  21 C    1     1.4026     2.6505   24 C    0 0 0
  21 C    1     2.1680     4.0970    9 H    0 1-1
  21 C    1     2.4182     4.5697   23 C    0 0 0
  21 C    1     2.4246     4.5817   19 C    0 0 0

  22 C    1     1.0914     2.0624    9 H    0 1-1
  22 C    1     1.3914     2.6293   21 C    0 0 0
  22 C    1     1.4020     2.6495   19 C    0 0 0
  22 C    1     2.1666     4.0942    8 H    0 0 0
  22 C    1     2.4177     4.5688   20 C    0 0 0
  22 C    1     2.4250     4.5826   24 C    0 0 0

  23 C    1     1.0915     2.0626   10 H    0 0 0
  23 C    1     1.3914     2.6294   20 C    0 0 0
  23 C    1     1.4025     2.6504   24 C    0 0 0
  23 C    1     2.1680     4.0969    7 H    0 0 0
  23 C    1     2.4182     4.5697   21 C    0 0 0
  23 C    1     2.4246     4.5818   19 C    0 0 0

  24 C    1     1.4025     2.6504   23 C    0 0 0
  24 C    1     1.4026     2.6505   21 C    0 0 0
  24 C    1     1.5513     2.9316    4 B    0 0 0
  24 C    1     2.1490     4.0610   10 H    0 0 0
  24 C    1     2.1493     4.0616    8 H    0 0 0
  24 C    1     2.4250     4.5825   20 C    0 0 0

  25 C    1     1.4020     2.6494   26 C    1 1-2
  25 C    1     1.4021     2.6495   28 C    0 1-2
  25 C    1     1.5503     2.9297    1 B    1 1-1
  25 C    1     2.1469     4.0571   11 H    1 1-2
  25 C    1     2.1475     4.0581   13 H    0 1-2
  25 C    1     2.4246     4.5818   27 C    0 1-2

  26 C    1     1.0913     2.0623   11 H    0 0 0
  26 C    1     1.3914     2.6293   29 C    0 0 0
  26 C    1     1.4020     2.6494   25 C   -1-1 2
  26 C    1     2.1666     4.0942   14 H    0 0 0
  26 C    1     2.4175     4.5684   28 C   -1 0 0
  26 C    1     2.4251     4.5828   30 C   -1-1 2

  27 C    1     1.0914     2.0625   12 H    0 0 0
  27 C    1     1.3915     2.6295   28 C    0 0 0
  27 C    1     1.4026     2.6505   30 C    0-1 2
  27 C    1     2.1679     4.0967   13 H    0 0 0
  27 C    1     2.4179     4.5691   29 C    1 0 0
  27 C    1     2.4246     4.5818   25 C    0-1 2

  28 C    1     1.0914     2.0624   13 H    0 0 0
  28 C    1     1.3915     2.6295   27 C    0 0 0
  28 C    1     1.4021     2.6495   25 C    0-1 2
  28 C    1     2.1664     4.0939   12 H    0 0 0
  28 C    1     2.4175     4.5684   26 C    1 0 0
  28 C    1     2.4253     4.5832   30 C    0-1 2

  29 C    1     1.0914     2.0625   14 H    0 0 0
  29 C    1     1.3914     2.6293   26 C    0 0 0
  29 C    1     1.4025     2.6504   30 C   -1-1 2
  29 C    1     2.1680     4.0968   11 H    0 0 0
  29 C    1     2.4179     4.5691   27 C   -1 0 0
  29 C    1     2.4247     4.5819   25 C   -1-1 2

  30 C    1     1.4025     2.6504   29 C    1 1-2
  30 C    1     1.4026     2.6505   27 C    0 1-2
  30 C    1     1.5516     2.9322    6 B    0 0-1
  30 C    1     2.1491     4.0612   14 H    1 1-2
  30 C    1     2.1493     4.0617   12 H    0 1-2
  30 C    1     2.4251     4.5828   26 C    1 1-2

  31 C    1     1.4021     2.6496   32 C    0 0 0
  31 C    1     1.4021     2.6497   34 C    0 0 0
  31 C    1     1.5502     2.9294    3 B    0 0 0
  31 C    1     2.1475     4.0582   15 H    1 1-1
  31 C    1     2.1479     4.0589   17 H    0 0 0
  31 C    1     2.4244     4.5814   33 C    0 0 0

  32 C    1     1.0914     2.0624   15 H    1 1-1
  32 C    1     1.3914     2.6293   35 C    0 0 0
  32 C    1     1.4021     2.6496   31 C    0 0 0
  32 C    1     2.1668     4.0947   18 H    0 0 0
  32 C    1     2.4179     4.5692   34 C    0 0 0
  32 C    1     2.4251     4.5827   36 C    0 0 0

  33 C    1     1.0913     2.0623   16 H    0 0 0
  33 C    1     1.3914     2.6294   34 C    0 0 0
  33 C    1     1.4025     2.6504   36 C    0 0 0
  33 C    1     2.1679     4.0968   17 H    0 0 0
  33 C    1     2.4178     4.5690   35 C    0 0 0
  33 C    1     2.4244     4.5814   31 C    0 0 0

  34 C    1     1.0915     2.0626   17 H    0 0 0
  34 C    1     1.3914     2.6294   33 C    0 0 0
  34 C    1     1.4021     2.6497   31 C    0 0 0
  34 C    1     2.1667     4.0945   16 H    0 0 0
  34 C    1     2.4179     4.5692   32 C    0 0 0
  34 C    1     2.4253     4.5832   36 C    0 0 0

  35 C    1     1.0914     2.0624   18 H    0 0 0
  35 C    1     1.3914     2.6293   32 C    0 0 0
  35 C    1     1.4025     2.6503   36 C    0 0 0
  35 C    1     2.1678     4.0966   15 H    1 1-1
  35 C    1     2.4178     4.5690   33 C    0 0 0
  35 C    1     2.4245     4.5817   31 C    0 0 0

  36 C    1     1.4025     2.6503   35 C    0 0 0
  36 C    1     1.4025     2.6504   33 C    0 0 0
  36 C    1     1.5516     2.9322    5 B    0 0 0
  36 C    1     2.1486     4.0602   18 H    0 0 0
  36 C    1     2.1487     4.0605   16 H    0 0 0
  36 C    1     2.4251     4.5827   32 C    0 0 0

  37 O    1     1.3791     2.6061    1 B    1 0 0
  37 O    1     1.3791     2.6061    3 B    0 0 0
  37 O    1     2.3880     4.5126   38 O    1 0 0
  37 O    1     2.3882     4.5130   39 O    1 1-2
  37 O    1     2.5383     4.7966   31 C    0 0 0
  37 O    1     2.5384     4.7968   25 C    0-1 1

  38 O    1     1.3793     2.6065    1 B    0 0 0
  38 O    1     1.3793     2.6065    2 B    0 0 0
  38 O    1     2.3880     4.5126   37 O   -1 0 0
  38 O    1     2.3882     4.5131   39 O    0 1-2
  38 O    1     2.5391     4.7981   19 C    0 0 0
  38 O    1     2.5395     4.7990   25 C   -1-1 1

  39 O    1     1.3793     2.6064    3 B   -1-1 2
  39 O    1     1.3793     2.6065    2 B    0-1 2
  39 O    1     2.3882     4.5130   37 O   -1-1 2
  39 O    1     2.3882     4.5131   38 O    0-1 2
  39 O    1     2.5390     4.7980   19 C    0-1 2
  39 O    1     2.5391     4.7982   31 C   -1-1 2

  40 O    1     1.3795     2.6068    6 B    0 0 0
  40 O    1     1.3795     2.6068    4 B    0 0 0
  40 O    1     2.3880     4.5126   42 O    0 0 0
  40 O    1     2.3884     4.5134   41 O    0 0 0
  40 O    1     2.5400     4.7998   24 C    0 0 0
  40 O    1     2.5403     4.8005   30 C    0 0 1

  41 O    1     1.3795     2.6069    5 B    0 0 0
  41 O    1     1.3795     2.6070    4 B    0 0 0
  41 O    1     2.3881     4.5128   42 O    0 0 0
  41 O    1     2.3884     4.5134   40 O    0 0 0
  41 O    1     2.5404     4.8006   24 C    0 0 0
  41 O    1     2.5405     4.8008   36 C    0 0 0

  42 O    1     1.3796     2.6071    6 B    0 0 0
  42 O    1     1.3797     2.6072    5 B    0 0 0
  42 O    1     2.3880     4.5126   40 O    0 0 0
  42 O    1     2.3881     4.5128   41 O    0 0 0
  42 O    1     2.5409     4.8016   36 C    0 0 0
  42 O    1     2.5410     4.8019   30 C    0 0 1


 SYMMETRY ALLOWED INTERNAL DEGREE(S) OF FREEDOM: 123
 TTTTTTTTTTTTTTTTTTTTTTTTTTTTTT SYMM        TELAPSE        0.36 TCPU        0.35
 TTTTTTTTTTTTTTTTTTTTTTTTTTTTTT INT_SCREEN  TELAPSE        0.39 TCPU        0.39

 DFT PARAMETERS

     ATOM       ELECTRONS   NET CHARGE   R(ANGSTROM)
   1   5  B       5.0000      0.0000     0.89000000
   7   1  H       1.0000      0.0000     1.11000000
  19   6  C       6.0000      0.0000     0.77000000
  37   8  O       8.0000      0.0000     0.74000000

 SIZE OF GRID=    1338412
 TTTTTTTTTTTTTTTTTTTTTTTTTTTTTT MAKE_GRID2  TELAPSE        7.67 TCPU        7.66
 BECKE WEIGHT FUNCTION
 RADSAFE =     2.00
 TOLERANCES - DENSITY:10**- 6; POTENTIAL:10**- 9; GRID WGT:10**-14

 RADIAL INTEGRATION  - INTERVALS (POINTS,UPPER LIMIT):            1( 75,  4.0*R)

 ANGULAR INTEGRATION - INTERVALS (ACCURACY LEVEL [N. POINTS] UPPER LIMIT):
  1(  4[  86]   0.2)  2(  8[ 194]   0.5)  3( 12[ 350]   0.9)  4( 16[ 974]   3.5)
  5( 12[ 350]9999.0)
 TTTTTTTTTTTTTTTTTTTTTTTTTTTTTT INT_CALC    TELAPSE        7.74 TCPU        7.73
 EEEEEEEEEE INT_CALC TERMINATION  DATE 19 02 2026 TIME 19:18:54.1

 *******************************************************************************
 cof-1_z44_L050_incl                                                             
 CRYSTAL - SCF - TYPE OF CALCULATION :  RESTRICTED CLOSED SHELL
 *******************************************************************************

 CAPPA:IS1  2;IS2  2;IS3  8; K PTS MONK NET  20; SYMMOPS:K SPACE   2;G SPACE   1

 TTTTTTTTTTTTTTTTTTTTTTTTTTTTTT SDIK        TELAPSE        8.35 TCPU       16.15

 AAAAAAAAAAAAAAAAAAAAAAAAAAAAAAAAAAAAAAAAAAAAAAAAAAAAAAAAAAAAAAAAAAAAAAAAAAAAAAA
         ATOMIC WAVEFUNCTION(S)


 NUCLEAR CHARGE  5.0  SYMMETRY SPECIES            S    P
 N. ELECTRONS    5.0  NUMBER OF PRIMITIVE GTOS    8    4
                      NUMBER OF CONTRACTED GTOS   4    2
                      NUMBER OF CLOSED SHELLS     2    0
                      OPEN SHELL OCCUPATION       0    1

  ZNUC  SCFIT    TOTAL HF ENERGY   KINETIC ENERGY   VIRIAL THEOREM ACCURACY
   5.0    11    -2.451164084E+01  2.462155050E+01 -1.995536038E+00  1.5E-06

 NUCLEAR CHARGE  1.0  SYMMETRY SPECIES            S
 N. ELECTRONS    1.0  NUMBER OF PRIMITIVE GTOS    4
                      NUMBER OF CONTRACTED GTOS   2
                      NUMBER OF CLOSED SHELLS     0
                      OPEN SHELL OCCUPATION       1

  ZNUC  SCFIT    TOTAL HF ENERGY   KINETIC ENERGY   VIRIAL THEOREM ACCURACY
   1.0     1    -4.977266687E-01  5.190767460E-01 -1.958869132E+00  0.0E+00

 NUCLEAR CHARGE  6.0  SYMMETRY SPECIES            S    P
 N. ELECTRONS    6.0  NUMBER OF PRIMITIVE GTOS    8    4
                      NUMBER OF CONTRACTED GTOS   4    2
                      NUMBER OF CLOSED SHELLS     2    0
                      OPEN SHELL OCCUPATION       0    2

  ZNUC  SCFIT    TOTAL HF ENERGY   KINETIC ENERGY   VIRIAL THEOREM ACCURACY
   6.0     9    -3.766704647E+01  3.775180683E+01 -1.997754800E+00  1.1E-06

 NUCLEAR CHARGE  8.0  SYMMETRY SPECIES            S    P
 N. ELECTRONS    8.0  NUMBER OF PRIMITIVE GTOS    8    4
                      NUMBER OF CONTRACTED GTOS   4    2
                      NUMBER OF CLOSED SHELLS     2    0
                      OPEN SHELL OCCUPATION       0    4

  ZNUC  SCFIT    TOTAL HF ENERGY   KINETIC ENERGY   VIRIAL THEOREM ACCURACY
   8.0    12    -7.477373220E+01  7.477365593E+01 -2.000001020E+00  3.8E-06

 AAAAAAAAAAAAAAAAAAAAAAAAAAAAAAAAAAAAAAAAAAAAAAAAAAAAAAAAAAAAAAAAAAAAAAAAAAAAAAA

 CHARGE NORMALIZATION FACTOR   1.00000000
 TOTAL ATOMIC CHARGES:
   5.0000000   5.0000000   5.0000000   5.0000000   5.0000000   5.0000000
   1.0000000   1.0000000   1.0000000   1.0000000   1.0000000   1.0000000
   1.0000000   1.0000000   1.0000000   1.0000000   1.0000000   1.0000000
   6.0000000   6.0000000   6.0000000   6.0000000   6.0000000   6.0000000
   6.0000000   6.0000000   6.0000000   6.0000000   6.0000000   6.0000000
   6.0000000   6.0000000   6.0000000   6.0000000   6.0000000   6.0000000
   8.0000000   8.0000000   8.0000000   8.0000000   8.0000000   8.0000000
 TTTTTTTTTTTTTTTTTTTTTTTTTTTTTT MOQGAD      TELAPSE        8.39 TCPU       17.40
 TTTTTTTTTTTTTTTTTTTTTTTTTTTTTT SHELLXN     TELAPSE       13.35 TCPU      175.76
 TTTTTTTTTTTTTTTTTTTTTTTTTTTTTT MONMO3      TELAPSE       13.48 TCPU      179.93
 NUMERICALLY INTEGRATED DENSITY    198.0000056776
 TTTTTTTTTTTTTTTTTTTTTTTTTTTTTT NUMDFT      TELAPSE       13.99 TCPU      196.42
 CYC   0 ETOT(AU) -1.295954123238E+03 DETOT -1.30E+03 tst  0.00E+00 PX  1.00E+00
 TTTTTTTTTTTTTTTTTTTTTTTTTTTTTT DIIS        TELAPSE       14.03 TCPU      197.49
 TTTTTTTTTTTTTTTTTTTTTTTTTTTTTT FDIK        TELAPSE       14.53 TCPU      213.50
 INSULATING STATE
 TOP OF VALENCE BANDS -    BAND     99; K   17; EIG -3.1514501E-01 AU
 TOP OF VALENCE BANDS -    BAND     99; K    1; EIG -3.1528431E-01 AU
 BOTTOM OF VIRTUAL BANDS - BAND    100; K   17; EIG -1.5910999E-01 AU
 DIRECT ENERGY BAND GAP:   4.2459 eV
 BOTTOM OF VIRTUAL BANDS - BAND    100; K    1; EIG -1.5575811E-01 AU
 TTTTTTTTTTTTTTTTTTTTTTTTTTTTTT PDIG        TELAPSE       14.84 TCPU      219.67
 CHARGE NORMALIZATION FACTOR   1.00000000
 TOTAL ATOMIC CHARGES:
   4.1626450   4.1670971   4.1673195   4.1669219   4.1666875   4.1624221
   0.7850833   0.7852001   0.7850065   0.7851211   0.7851726   0.7853409
   0.7851617   0.7853018   0.7850074   0.7851867   0.7850360   0.7851940
   6.0430202   6.2652462   6.2652217   6.2650067   6.2649768   6.0423350
   6.0435968   6.2646838   6.2647535   6.2646017   6.2647671   6.0423584
   6.0433791   6.2647779   6.2653448   6.2648758   6.2654994   6.0418822
   8.6912426   8.6913797   8.6910648   8.6916986   8.6914897   8.6918923
 TTTTTTTTTTTTTTTTTTTTTTTTTTTTTT MOQGAD      TELAPSE       14.88 TCPU      219.71
 TTTTTTTTTTTTTTTTTTTTTTTTTTTTTT SHELLXN     TELAPSE       20.12 TCPU      386.72
 TTTTTTTTTTTTTTTTTTTTTTTTTTTTTT MONMO3      TELAPSE       20.25 TCPU      390.85
 NUMERICALLY INTEGRATED DENSITY    198.0000147295
 TTTTTTTTTTTTTTTTTTTTTTTTTTTTTT NUMDFT      TELAPSE       20.77 TCPU      407.47
 CYC   1 ETOT(AU) -1.288813095886E+03 DETOT  7.14E+00 tst  0.00E+00 PX  1.00E+00
 TTTTTTTTTTTTTTTTTTTTTTTTTTTTTT DIIS        TELAPSE       20.81 TCPU      408.95
 DIIS TEST: 0.11049E+01 AT SCF   CYCLE   1 - MIX   30 %
 TTTTTTTTTTTTTTTTTTTTTTTTTTTTTT FDIK        TELAPSE       21.32 TCPU      425.17
 INSULATING STATE
 TOP OF VALENCE BANDS -    BAND     99; K   17; EIG -2.2840160E-01 AU
 TOP OF VALENCE BANDS -    BAND     99; K    1; EIG -2.2880125E-01 AU
 BOTTOM OF VIRTUAL BANDS - BAND    100; K   17; EIG -8.2887993E-02 AU
 DIRECT ENERGY BAND GAP:   3.9596 eV
 BOTTOM OF VIRTUAL BANDS - BAND    100; K    1; EIG -7.7396364E-02 AU
 TTTTTTTTTTTTTTTTTTTTTTTTTTTTTT PDIG        TELAPSE       21.63 TCPU      431.34
 CHARGE NORMALIZATION FACTOR   1.00000000
 TOTAL ATOMIC CHARGES:
   4.7023324   4.7039797   4.7041542   4.7042716   4.7042791   4.7024648
   0.9085691   0.9086059   0.9136502   0.9137826   0.9049774   0.9048891
   0.9050320   0.9048299   0.9136517   0.9138594   0.9085607   0.9085575
   5.8669140   6.1355260   6.1361301   6.1369275   6.1371627   5.8692464
   5.8781238   6.1367021   6.1374245   6.1371106   6.1368459   5.8808615
   5.8667196   6.1367360   6.1373142   6.1359504   6.1356794   5.8693735
   8.3320309   8.3322474   8.3354708   8.3318548   8.3351807   8.3320197
 TTTTTTTTTTTTTTTTTTTTTTTTTTTTTT MOQGAD      TELAPSE       21.67 TCPU      431.38
 TTTTTTTTTTTTTTTTTTTTTTTTTTTTTT SHELLXN     TELAPSE       26.84 TCPU      596.05
 TTTTTTTTTTTTTTTTTTTTTTTTTTTTTT MONMO3      TELAPSE       26.97 TCPU      600.21
 NUMERICALLY INTEGRATED DENSITY    198.0000160616
 TTTTTTTTTTTTTTTTTTTTTTTTTTTTTT NUMDFT      TELAPSE       27.50 TCPU      617.07
 CYC   2 ETOT(AU) -1.289008610291E+03 DETOT -1.96E-01 tst  4.15E-03 PX  1.58E-01
 TTTTTTTTTTTTTTTTTTTTTTTTTTTTTT DIIS        TELAPSE       27.54 TCPU      618.56
 DIIS TEST: 0.45297E+00 AT SCF   CYCLE   2 - DIIS ACTIVE - HISTORY:     2 CYCLES
 TTTTTTTTTTTTTTTTTTTTTTTTTTTTTT FDIK        TELAPSE       28.06 TCPU      634.90
 INSULATING STATE
 TOP OF VALENCE BANDS -    BAND     99; K    1; EIG -2.4005464E-01 AU
 BOTTOM OF VIRTUAL BANDS - BAND    100; K   17; EIG -7.8571662E-02 AU
 INDIRECT ENERGY BAND GAP:   4.3942 eV
 BOTTOM OF VIRTUAL BANDS - BAND    100; K    1; EIG -7.3241457E-02 AU
 TTTTTTTTTTTTTTTTTTTTTTTTTTTTTT PDIG        TELAPSE       28.36 TCPU      641.07
 CHARGE NORMALIZATION FACTOR   1.00000000
 TOTAL ATOMIC CHARGES:
   4.4973300   4.5015720   4.5017337   4.5015476   4.5013511   4.4972267
   0.8874297   0.8876208   0.8914390   0.8915627   0.8847999   0.8849857
   0.8849238   0.8848388   0.8913961   0.8916706   0.8874838   0.8875047
   5.8920857   6.1605387   6.1603566   6.1578308   6.1572523   5.8916820
   5.8948394   6.1617639   6.1614350   6.1615885   6.1615019   5.8941581
   5.8922520   6.1577879   6.1573291   6.1603159   6.1605506   5.8914704
   8.5113663   8.5116403   8.5110684   8.5116872   8.5111016   8.5119808
 TTTTTTTTTTTTTTTTTTTTTTTTTTTTTT MOQGAD      TELAPSE       28.41 TCPU      641.11
 TTTTTTTTTTTTTTTTTTTTTTTTTTTTTT SHELLXN     TELAPSE       33.64 TCPU      807.98
 TTTTTTTTTTTTTTTTTTTTTTTTTTTTTT MONMO3      TELAPSE       33.77 TCPU      812.14
 NUMERICALLY INTEGRATED DENSITY    198.0000159041
 TTTTTTTTTTTTTTTTTTTTTTTTTTTTTT NUMDFT      TELAPSE       34.30 TCPU      828.81
 CYC   3 ETOT(AU) -1.289102269569E+03 DETOT -9.37E-02 tst  7.27E-04 PX  6.38E-02
 TTTTTTTTTTTTTTTTTTTTTTTTTTTTTT DIIS        TELAPSE       34.35 TCPU      830.71
 DIIS TEST: 0.13841E-01 AT SCF   CYCLE   3 - DIIS ACTIVE - HISTORY:     3 CYCLES
 TTTTTTTTTTTTTTTTTTTTTTTTTTTTTT FDIK        TELAPSE       34.86 TCPU      846.94
 INSULATING STATE
 TOP OF VALENCE BANDS -    BAND     99; K   17; EIG -2.5047390E-01 AU
 TOP OF VALENCE BANDS -    BAND     99; K    1; EIG -2.5125496E-01 AU
 BOTTOM OF VIRTUAL BANDS - BAND    100; K   17; EIG -8.7057618E-02 AU
 DIRECT ENERGY BAND GAP:   4.4468 eV
 BOTTOM OF VIRTUAL BANDS - BAND    100; K    1; EIG -8.1255662E-02 AU
 TTTTTTTTTTTTTTTTTTTTTTTTTTTTTT PDIG        TELAPSE       35.17 TCPU      853.11
 CHARGE NORMALIZATION FACTOR   1.00000000
 TOTAL ATOMIC CHARGES:
   4.5031314   4.5063448   4.5064966   4.5063846   4.5062280   4.5031106
   0.8702994   0.8703769   0.8738513   0.8739352   0.8667219   0.8667155
   0.8667634   0.8666526   0.8738794   0.8739964   0.8703069   0.8703198
   5.9373187   6.1670372   6.1674914   6.1674077   6.1679005   5.9391520
   5.9454445   6.1691035   6.1699870   6.1694464   6.1694691   5.9470510
   5.9373748   6.1670617   6.1682313   6.1672129   6.1672774   5.9390525
   8.4761802   8.4763067   8.4782296   8.4761662   8.4782913   8.4762917
 TTTTTTTTTTTTTTTTTTTTTTTTTTTTTT MOQGAD      TELAPSE       35.21 TCPU      853.15
 TTTTTTTTTTTTTTTTTTTTTTTTTTTTTT SHELLXN     TELAPSE       40.38 TCPU     1017.93
 TTTTTTTTTTTTTTTTTTTTTTTTTTTTTT MONMO3      TELAPSE       40.51 TCPU     1022.09
 NUMERICALLY INTEGRATED DENSITY    198.0000158924
 TTTTTTTTTTTTTTTTTTTTTTTTTTTTTT NUMDFT      TELAPSE       41.04 TCPU     1038.96
 CYC   4 ETOT(AU) -1.289105206542E+03 DETOT -2.94E-03 tst  2.60E-05 PX  1.40E-02
 TTTTTTTTTTTTTTTTTTTTTTTTTTTTTT DIIS        TELAPSE       41.10 TCPU     1040.79
 DIIS TEST: 0.41079E-02 AT SCF   CYCLE   4 - DIIS ACTIVE - HISTORY:     4 CYCLES
 TTTTTTTTTTTTTTTTTTTTTTTTTTTTTT FDIK        TELAPSE       41.61 TCPU     1057.13
 INSULATING STATE
 TOP OF VALENCE BANDS -    BAND     99; K   17; EIG -2.4867445E-01 AU
 TOP OF VALENCE BANDS -    BAND     99; K    1; EIG -2.4922823E-01 AU
 BOTTOM OF VIRTUAL BANDS - BAND    100; K   17; EIG -8.6652227E-02 AU
 DIRECT ENERGY BAND GAP:   4.4089 eV
 BOTTOM OF VIRTUAL BANDS - BAND    100; K    1; EIG -8.1096039E-02 AU
 TTTTTTTTTTTTTTTTTTTTTTTTTTTTTT PDIG        TELAPSE       41.92 TCPU     1063.29
 CHARGE NORMALIZATION FACTOR   1.00000000
 TOTAL ATOMIC CHARGES:
   4.5048950   4.5081710   4.5083539   4.5082689   4.5081047   4.5048702
   0.8733209   0.8734662   0.8772956   0.8774702   0.8701385   0.8702852
   0.8702398   0.8701641   0.8772724   0.8775739   0.8733553   0.8733784
   5.9212408   6.1673572   6.1673379   6.1665307   6.1659511   5.9211034
   5.9275428   6.1689386   6.1687378   6.1688436   6.1686884   5.9273991
   5.9212900   6.1664324   6.1660565   6.1672491   6.1674108   5.9209909
   8.4869669   8.4872253   8.4878052   8.4871558   8.4876977   8.4874240
 TTTTTTTTTTTTTTTTTTTTTTTTTTTTTT MOQGAD      TELAPSE       41.96 TCPU     1063.33
 TTTTTTTTTTTTTTTTTTTTTTTTTTTTTT SHELLXN     TELAPSE       47.19 TCPU     1229.97
 TTTTTTTTTTTTTTTTTTTTTTTTTTTTTT MONMO3      TELAPSE       47.32 TCPU     1234.10
 NUMERICALLY INTEGRATED DENSITY    198.0000158966
 TTTTTTTTTTTTTTTTTTTTTTTTTTTTTT NUMDFT      TELAPSE       47.84 TCPU     1250.80
 CYC   5 ETOT(AU) -1.289106147213E+03 DETOT -9.41E-04 tst  7.50E-06 PX  6.36E-03
 TTTTTTTTTTTTTTTTTTTTTTTTTTTTTT DIIS        TELAPSE       47.91 TCPU     1253.02
 DIIS TEST: 0.55110E-04 AT SCF   CYCLE   5 - DIIS ACTIVE - HISTORY:     5 CYCLES
 TTTTTTTTTTTTTTTTTTTTTTTTTTTTTT FDIK        TELAPSE       48.42 TCPU     1269.17
 INSULATING STATE
 TOP OF VALENCE BANDS -    BAND     99; K   17; EIG -2.4850813E-01 AU
 TOP OF VALENCE BANDS -    BAND     99; K    1; EIG -2.4902727E-01 AU
 BOTTOM OF VIRTUAL BANDS - BAND    100; K   17; EIG -8.6091588E-02 AU
 DIRECT ENERGY BAND GAP:   4.4196 eV
 BOTTOM OF VIRTUAL BANDS - BAND    100; K    1; EIG -8.0608371E-02 AU
 TTTTTTTTTTTTTTTTTTTTTTTTTTTTTT PDIG        TELAPSE       48.73 TCPU     1275.33
 CHARGE NORMALIZATION FACTOR   1.00000000
 TOTAL ATOMIC CHARGES:
   4.5048520   4.5081292   4.5082924   4.5081118   4.5079573   4.5047715
   0.8742533   0.8743480   0.8782028   0.8782548   0.8711718   0.8711590
   0.8712194   0.8710933   0.8782143   0.8783219   0.8742623   0.8742845
   5.9201906   6.1664829   6.1668572   6.1654193   6.1660570   5.9220594
   5.9262044   6.1679501   6.1688157   6.1682703   6.1683437   5.9276142
   5.9203291   6.1651304   6.1663532   6.1666130   6.1666911   5.9218687
   8.4864611   8.4865925   8.4877198   8.4865219   8.4879006   8.4866543
 TTTTTTTTTTTTTTTTTTTTTTTTTTTTTT MOQGAD      TELAPSE       48.77 TCPU     1275.37
 TTTTTTTTTTTTTTTTTTTTTTTTTTTTTT SHELLXN     TELAPSE       53.86 TCPU     1437.71
 TTTTTTTTTTTTTTTTTTTTTTTTTTTTTT MONMO3      TELAPSE       53.99 TCPU     1441.87
 NUMERICALLY INTEGRATED DENSITY    198.0000159086
 TTTTTTTTTTTTTTTTTTTTTTTTTTTTTT NUMDFT      TELAPSE       54.52 TCPU     1458.73
 CYC   6 ETOT(AU) -1.289106163499E+03 DETOT -1.63E-05 tst  1.17E-07 PX  6.42E-04
 TTTTTTTTTTTTTTTTTTTTTTTTTTTTTT DIIS        TELAPSE       54.59 TCPU     1460.91
 DIIS TEST: 0.50928E-05 AT SCF   CYCLE   6 - DIIS ACTIVE - HISTORY:     6 CYCLES
 TTTTTTTTTTTTTTTTTTTTTTTTTTTTTT FDIK        TELAPSE       55.10 TCPU     1477.23
 INSULATING STATE
 TOP OF VALENCE BANDS -    BAND     99; K   17; EIG -2.4848796E-01 AU
 TOP OF VALENCE BANDS -    BAND     99; K    1; EIG -2.4902186E-01 AU
 BOTTOM OF VIRTUAL BANDS - BAND    100; K   17; EIG -8.6172275E-02 AU
 DIRECT ENERGY BAND GAP:   4.4168 eV
 BOTTOM OF VIRTUAL BANDS - BAND    100; K    1; EIG -8.0642476E-02 AU
 TTTTTTTTTTTTTTTTTTTTTTTTTTTTTT PDIG        TELAPSE       55.42 TCPU     1483.40
 CHARGE NORMALIZATION FACTOR   1.00000000
 TOTAL ATOMIC CHARGES:
   4.5048747   4.5082150   4.5083922   4.5083222   4.5081542   4.5048584
   0.8741993   0.8743467   0.8781135   0.8783037   0.8710137   0.8711691
   0.8711198   0.8710442   0.8780931   0.8784035   0.8742366   0.8742552
   5.9212980   6.1666563   6.1666398   6.1659804   6.1652299   5.9209744
   5.9274394   6.1683156   6.1680619   6.1681983   6.1680304   5.9272179
   5.9213198   6.1658643   6.1653526   6.1665352   6.1667270   5.9208954
   8.4865577   8.4868241   8.4875670   8.4867561   8.4874110   8.4870324
 TTTTTTTTTTTTTTTTTTTTTTTTTTTTTT MOQGAD      TELAPSE       55.46 TCPU     1483.44
 TTTTTTTTTTTTTTTTTTTTTTTTTTTTTT SHELLXN     TELAPSE       60.69 TCPU     1649.94
 TTTTTTTTTTTTTTTTTTTTTTTTTTTTTT MONMO3      TELAPSE       60.82 TCPU     1654.08
 NUMERICALLY INTEGRATED DENSITY    198.0000159058
 TTTTTTTTTTTTTTTTTTTTTTTTTTTTTT NUMDFT      TELAPSE       61.34 TCPU     1670.78
 CYC   7 ETOT(AU) -1.289106163649E+03 DETOT -1.50E-07 tst  4.39E-08 PX  2.80E-04
 TTTTTTTTTTTTTTTTTTTTTTTTTTTTTT DIIS        TELAPSE       61.42 TCPU     1673.36
 DIIS TEST: 0.20045E-05 AT SCF   CYCLE   7 - DIIS ACTIVE - HISTORY:     7 CYCLES
 TTTTTTTTTTTTTTTTTTTTTTTTTTTTTT FDIK        TELAPSE       61.93 TCPU     1689.56
 INSULATING STATE
 TOP OF VALENCE BANDS -    BAND     99; K   17; EIG -2.4849063E-01 AU
 TOP OF VALENCE BANDS -    BAND     99; K    1; EIG -2.4902710E-01 AU
 BOTTOM OF VIRTUAL BANDS - BAND    100; K   17; EIG -8.6183376E-02 AU
 DIRECT ENERGY BAND GAP:   4.4166 eV
 BOTTOM OF VIRTUAL BANDS - BAND    100; K    1; EIG -8.0652514E-02 AU
 TTTTTTTTTTTTTTTTTTTTTTTTTTTTTT PDIG        TELAPSE       62.24 TCPU     1695.73
 CHARGE NORMALIZATION FACTOR   1.00000000
 TOTAL ATOMIC CHARGES:
   4.5049455   4.5082566   4.5084292   4.5083026   4.5081416   4.5049001
   0.8741864   0.8743126   0.8781298   0.8782447   0.8710222   0.8711000
   0.8711013   0.8710021   0.8781205   0.8783335   0.8742106   0.8742343
   5.9207275   6.1665746   6.1667189   6.1656491   6.1656268   5.9214894
   5.9269778   6.1681113   6.1683747   6.1681963   6.1681412   5.9275154
   5.9208217   6.1654731   6.1658094   6.1665705   6.1666880   5.9213384
   8.4865873   8.4867905   8.4875903   8.4867160   8.4876130   8.4869251
 TTTTTTTTTTTTTTTTTTTTTTTTTTTTTT MOQGAD      TELAPSE       62.28 TCPU     1695.77
 TTTTTTTTTTTTTTTTTTTTTTTTTTTTTT SHELLXN     TELAPSE       67.48 TCPU     1861.60
 +++ ENERGIES IN A.U. +++
 ::: EXT EL-POLE                                  -1.1922896423208E+03
 ::: EXT EL-SPHEROPOLE                             1.2990369529516E+01
 ::: BIELET ZONE E-E                               1.9584102450946E+03
 ::: TOTAL E-E                                     7.7911097230331E+02
 ::: TOTAL E-N + N-E                              -3.3903950165690E+03
 ::: TOTAL N-N                                     1.7595253582560E+02
 ::: KINETIC ENERGY                                1.2799456037217E+03
 ::: PSEUDO TOTAL   ENERGY                        -1.1553859047184E+03
 ::: VIRIAL COEFFICIENT                            1.0511469171945E+00
 TTTTTTTTTTTTTTTTTTTTTTTTTTTTTT MONMO3      TELAPSE       67.61 TCPU     1865.70
 NUMERICALLY INTEGRATED DENSITY    198.0000159055
 EXCHANGE ENERGY: -0.126030771156E+03  CORRELATION ENERGY: -0.768948823561E+01
 TTTTTTTTTTTTTTTTTTTTTTTTTTTTTT NUMDFT      TELAPSE       68.16 TCPU     1883.17
 CYC   8 ETOT(AU) -1.289106164110E+03 DETOT -4.60E-07 tst  1.07E-08 PX  2.80E-04

 == SCF ENDED - CONVERGENCE ON ENERGY      E(AU) -1.2891061641097E+03 CYCLES   8


 ENERGY EXPRESSION=HARTREE+FOCK EXCH*0.00000+(HSESOL     EXCH)*1.00000+PBESOL     CORR


 TOTAL ENERGY(DFT)(AU)(  8) -1.2891061641097E+03 DE-4.6E-07 tester 1.1E-08
 TTTTTTTTTTTTTTTTTTTTTTTTTTTTTT EDFT        TELAPSE       68.16 TCPU     1883.18
 
 INFORMATION **** DFTD3 ENERGY **** CALCULATE DFTD3 ENERGY

           DFT-D V3(BJ)
 DF                                         hsesol3c  
 parameters
 s6       :    1.0000
 s8       :    0.0000
 a1       :    0.5196
 a2       :    4.9385
 k1 k3    :   16.0000   -4.0000
 Cutoff   :   50.2022
 CN-Cutoff:   21.1671
 ABC-Cutoff:   21.1671
 
 Edisp /kcal,au:   -21.8777 -0.03486433

 E6    /kcal :   -22.9523
 E8    /kcal :     0.0000
 E6(ABC) "   :   1.074572
 
 INFORMATION **** DFTD3 ENERGY **** NORMAL TERMINATION OF DFTD3 MODULE

 GCP ENERGY CALCULATION
  level        hsesol3c            basis:hsesol3c
  Nbf            474
  Atoms           42

  Parameters: 
  sigma     1.0000
  eta       1.4281
  alpha     0.2936
  beta      1.9467

  dmp_scal      4.0000
  dmp_exp       6.0000
 cutoffs: 
   distance [bohr] 60.0
   noise    [a.u.] 2.2E-16
 SR-damping   T
 ** gCP correction **
  Egcp:        0.0829199317 / (a.u.) ||      52.0330 / (kcal/mol)
 INFORMATION **** GCP **** NORMAL TERMINATION OF GCP MODULE

 *******************************************************************************

 DFT-D3-GCP DISPERSION AND COUNTERPOISE CORRECTION

 D3 DISPERSION ENERGY (AU)      -3.4864331725810E-02
 GCP ENERGY (AU)                 8.2919931722560E-02
 TOTAL ENERGY + DISP + GCP (AU) -1.2890581085097E+03

 *******************************************************************************

 EIGENVECTORS IN FORTRAN UNIT  8
 TTTTTTTTTTTTTTTTTTTTTTTTTTTTTT END         TELAPSE       69.20 TCPU     1889.20
 EEEEEEEEEE TERMINATION  DATE 19 02 2026 TIME 19:19:55.6
