 Default number of threads is:           32

         
 *******************************************************************************
 *                                                                             *
 *                               CRYSTAL23                                     *
 *                      public : 1.0.1 - October 2022                          *
 *                       HTTP://WWW.CRYSTAL.UNITO.IT                           *
 *                                                                             *
 *                              MAIN AUTHORS                                   *
 *                                                                             *
 *  R. DOVESI(1,11), V.R. SAUNDERS(2), C. ROETTI(1,11), R. ORLANDO(1,11),      *
 *  C.M. ZICOVICH-WILSON(1,3), F. PASCALE(4), B. CIVALLERI(1,11),              *
 *  K. DOLL(5), N.M. HARRISON(6), I.J. BUSH(7), Ph. D'ARCO(8),                 *
 *  M. LLUNELL(9), M. CAUSA'(10), Y. NOEL(8), L. MASCHIO(1,11), A. ERBA(1,11)  *
 *  M. RE'RAT(14), S. CASASSA(1,11), B.G. SEARLE(2), J.K. DESMARAIS(1)         *
 *                                                                             *
 *        CONTRIBUTIONS TO THE CODE HAVE ALSO BEEN GIVEN BY                    *
 *                                                                             *
 *  M. FERRABONE(1,11), M. DE LA PIERRE(1,11), M. FERRERO(1,11),               *
 *  J. BAIMA(1,11), E. ALBANESE(1,11), M.F. PEINTINGER(12), R. BAST(13),       *
 *  B. KIRTMAN(15), V. LACIVITA(1,11), R. DEMICHELIS(1,16)                     *
 *  G. BRANDEBURG(17), S. SALUSTRO(1,11), G. SANSONE(1,11)                     *
 *  M.T. RUGGIERO(18), L.E. DAGA(1), L. DONA'(1), A. COSSARD(1)                *
 *                                                                             *
 * (1) THEORETICAL CHEMISTRY GROUP - UNIVERSITA' DI TORINO - TORINO (ITALY)    *
 * (2) SCIENTIFIC COMPUTING DEPARTMENT - STFC DARESBURY (UK)                   *
 * (3) UNIVERSIDAD AUTONOMA DEL ESTADO DE MORELOS - CUERNAVACA (MEXICO)        *
 * (4) UNIVERSITE' DE LORRAINE - NANCY (FRANCE)                                *
 * (5) UNIVERSITAET STUTTGART- STUTTGART (GERMANY)                             *
 * (6) IMPERIAL COLLEGE - LONDON (UK)                                          *
 * (7) SCIENTIFIC COMPUTING DEPARTMENT - STFC RAL (UK)                         *
 * (8) UPMC - SORBONNE UNIVERSITES - PARIS (FRANCE)                            *
 * (9) UNIVERSIDAD DE BARCELONA - BARCELONA (SPAIN)                            *
 *(10) UNIVERSITA' DI NAPOLI "FEDERICO II" - NAPOLI (ITALY)                    *
 *(11) NIS - NANOSTRUCTURED INTERFACES AND SURFACES - TORINO (ITALY)           *
 *(12) MPI FUER CHEMISCHE ENERGIEKONVERSION - MUELHEIM AN DER RUHR (GERMANY)   *
 *(13) UNIVERSITY OF TROMSO - TROMSO (NORWAY)                                  *
 *(14) UNIVERSITE' DE PAU ET DES PAYS DE L'ADOUR - PAU (FRANCE)                *
 *(15) UNIVERSITY OF CALIFORNIA SANTA BARBARA - SANTA BARBARA (USA)            *
 *(16) CURTIN UNIVERSITY - PERTH (AUSTRALIA)                                   *
 *(17) UNIVERSITY COLLEGE LONDON - LONDON (UK)                                 *
 *(18) UNIVERSITY OF VERMONT - BURLINGTON (USA)                                *
 *                                                                             *
 *******************************************************************************
 EEEEEEEEEE STARTING  DATE 19 02 2026 TIME 19:19:52.3
 cof-1_z44_L070_incl                                                             

 CRYSTAL CALCULATION
 (INPUT ACCORDING TO THE INTERNATIONAL TABLES FOR X-RAY CRYSTALLOGRAPHY)
 CRYSTAL FAMILY                       :  TRICLINIC   
 CRYSTAL CLASS  (GROTH - 1921)        :  TRICLINIC PEDIAL                     

 SPACE GROUP (NONCENTROSYMMETRIC)     :  P 1             

 LATTICE PARAMETERS  (ANGSTROMS AND DEGREES) - CONVENTIONAL CELL
        A           B           C        ALPHA        BETA       GAMMA
    15.02361    15.02392     8.26801    42.84167    89.99997   119.99596


 NUMBER OF IRREDUCIBLE ATOMS IN THE CONVENTIONAL CELL:   42

 INPUT COORDINATES

 ATOM AT. N.              COORDINATES
   1   5     4.789083500000E-01 -4.225356000000E-02  5.010808900000E-01
   2   5     6.379640100000E-01  1.168060900000E-01  5.010809000000E-01
   3   5     4.795179900000E-01  1.180168300000E-01  4.987983800000E-01
   4   5     9.248306000000E-02  3.440614300000E-01  5.010809000000E-01
   5   5     2.515910300000E-01  3.440406700000E-01  5.010808900000E-01
   6   5     2.521852200000E-01  5.044078100000E-01  4.987983800000E-01
   7   1     7.695441900000E-01  4.190405000000E-02  4.963487800000E-01
   8   1    -3.667027000000E-02  4.244167400000E-01  4.956251500000E-01
   9   1     7.696965700000E-01  3.274956400000E-01  4.955137800000E-01
  10   1    -3.654614000000E-02  1.390932100000E-01  4.955415600000E-01
  11   1     5.555714100000E-01 -1.739453900000E-01  5.036418200000E-01
  12   1     1.732740900000E-01  6.320984800000E-01  5.043654900000E-01
  13   1     2.701843900000E-01 -1.743488100000E-01  5.044769300000E-01
  14   1     4.586341300000E-01  6.319635800000E-01  5.044489600000E-01
  15   1     5.575733000000E-01  3.270281900000E-01  4.963488200000E-01
  16   1     1.756570400000E-01  1.389726600000E-01  4.956251000000E-01
  17   1     2.725657500000E-01  4.224651000000E-02  4.955136900000E-01
  18   1     4.610085400000E-01  4.243661500000E-01  4.955416500000E-01
  19   6     7.577544900000E-01  1.776447800000E-01  4.987148600000E-01
  20   6     8.129597300000E-01  1.256997200000E-01  4.964601400000E-01
  21   6    -8.008887000000E-02  3.402041800000E-01  4.962653600000E-01
  22   6     8.128179000000E-01  2.863966000000E-01  4.968499000000E-01
  23   6    -7.980357000000E-02  1.797630600000E-01  4.953467200000E-01
  24   6    -2.560580000000E-02  2.867250800000E-01  4.968777100000E-01
  25   6     4.192148200000E-01 -1.615081600000E-01  5.012757600000E-01
  26   6     4.717468200000E-01 -2.173336600000E-01  5.035304500000E-01
  27   6     2.573152300000E-01  6.756687400000E-01  5.037253000000E-01
  28   6     3.109613600000E-01 -2.170771000000E-01  5.031407700000E-01
  29   6     4.179863600000E-01  6.751349800000E-01  5.046438500000E-01
  30   6     3.106091800000E-01  6.213270900000E-01  5.031129000000E-01
  31   6     4.199090500000E-01  1.775756400000E-01  4.987148600000E-01
  32   6     4.736808300000E-01  2.865398500000E-01  4.964601900000E-01
  33   6     2.593463900000E-01  1.791909400000E-01  4.962653100000E-01
  34   6     3.126530600000E-01  1.253944300000E-01  4.968498400000E-01
  35   6     4.205130300000E-01  3.406110600000E-01  4.953467800000E-01
  36   6     3.123182900000E-01  2.866476800000E-01  4.968777100000E-01
  37   8     4.264136900000E-01  1.169735000000E-02  4.994107600000E-01
  38   8     5.840635000000E-01  9.114370000000E-03  5.042263200000E-01
  39   8     5.860152600000E-01  1.719679700000E-01  4.969612400000E-01
  40   8     1.460015200000E-01  4.509778200000E-01  4.994107800000E-01
  41   8     1.447257800000E-01  2.894316500000E-01  5.042263100000E-01
  42   8     3.055996900000E-01  4.522799400000E-01  4.969612200000E-01

 *******************************************************************************

 << INFORMATION >>: FROM NOW ON, ALL COORDINATES REFER TO THE PRIMITIVE CELL

 *******************************************************************************

 LATTICE PARAMETERS  (ANGSTROMS AND DEGREES) - PRIMITIVE CELL
       A          B          C        ALPHA      BETA     GAMMA        VOLUME
   15.02361   15.02392    8.26801    42.84167  89.99997 119.99596    860.126984

 COORDINATES OF THE EQUIVALENT ATOMS (FRACTIONAL UNITS)

 N. ATOM EQUIV AT. N.          X                  Y                  Z

   1   1   1    5 B     4.78908350000E-01 -4.22535600000E-02 -4.98919110000E-01

   2   2   1    5 B    -3.62035990000E-01  1.16806090000E-01 -4.98919100000E-01

   3   3   1    5 B     4.79517990000E-01  1.18016830000E-01  4.98798380000E-01

   4   4   1    5 B     9.24830600000E-02  3.44061430000E-01 -4.98919100000E-01

   5   5   1    5 B     2.51591030000E-01  3.44040670000E-01 -4.98919110000E-01

   6   6   1    5 B     2.52185220000E-01 -4.95592190000E-01  4.98798380000E-01

   7   7   1    1 H    -2.30455810000E-01  4.19040500000E-02  4.96348780000E-01

   8   8   1    1 H    -3.66702700000E-02  4.24416740000E-01  4.95625150000E-01

   9   9   1    1 H    -2.30303430000E-01  3.27495640000E-01  4.95513780000E-01

  10  10   1    1 H    -3.65461400000E-02  1.39093210000E-01  4.95541560000E-01

  11  11   1    1 H    -4.44428590000E-01 -1.73945390000E-01 -4.96358180000E-01

  12  12   1    1 H     1.73274090000E-01 -3.67901520000E-01 -4.95634510000E-01

  13  13   1    1 H     2.70184390000E-01 -1.74348810000E-01 -4.95523070000E-01

  14  14   1    1 H     4.58634130000E-01 -3.68036420000E-01 -4.95551040000E-01

  15  15   1    1 H    -4.42426700000E-01  3.27028190000E-01  4.96348820000E-01

  16  16   1    1 H     1.75657040000E-01  1.38972660000E-01  4.95625100000E-01

  17  17   1    1 H     2.72565750000E-01  4.22465100000E-02  4.95513690000E-01

  18  18   1    1 H     4.61008540000E-01  4.24366150000E-01  4.95541650000E-01

  19  19   1    6 C    -2.42245510000E-01  1.77644780000E-01  4.98714860000E-01

  20  20   1    6 C    -1.87040270000E-01  1.25699720000E-01  4.96460140000E-01

  21  21   1    6 C    -8.00888700000E-02  3.40204180000E-01  4.96265360000E-01

  22  22   1    6 C    -1.87182100000E-01  2.86396600000E-01  4.96849900000E-01

  23  23   1    6 C    -7.98035700000E-02  1.79763060000E-01  4.95346720000E-01

  24  24   1    6 C    -2.56058000000E-02  2.86725080000E-01  4.96877710000E-01

  25  25   1    6 C     4.19214820000E-01 -1.61508160000E-01 -4.98724240000E-01

  26  26   1    6 C     4.71746820000E-01 -2.17333660000E-01 -4.96469550000E-01

  27  27   1    6 C     2.57315230000E-01 -3.24331260000E-01 -4.96274700000E-01

  28  28   1    6 C     3.10961360000E-01 -2.17077100000E-01 -4.96859230000E-01

  29  29   1    6 C     4.17986360000E-01 -3.24865020000E-01 -4.95356150000E-01

  30  30   1    6 C     3.10609180000E-01 -3.78672910000E-01 -4.96887100000E-01

  31  31   1    6 C     4.19909050000E-01  1.77575640000E-01  4.98714860000E-01

  32  32   1    6 C     4.73680830000E-01  2.86539850000E-01  4.96460190000E-01

  33  33   1    6 C     2.59346390000E-01  1.79190940000E-01  4.96265310000E-01

  34  34   1    6 C     3.12653060000E-01  1.25394430000E-01  4.96849840000E-01

  35  35   1    6 C     4.20513030000E-01  3.40611060000E-01  4.95346780000E-01

  36  36   1    6 C     3.12318290000E-01  2.86647680000E-01  4.96877710000E-01

  37  37   1    8 O     4.26413690000E-01  1.16973500000E-02  4.99410760000E-01

  38  38   1    8 O    -4.15936500000E-01  9.11437000000E-03 -4.95773680000E-01

  39  39   1    8 O    -4.13984740000E-01  1.71967970000E-01  4.96961240000E-01

  40  40   1    8 O     1.46001520000E-01  4.50977820000E-01  4.99410780000E-01

  41  41   1    8 O     1.44725780000E-01  2.89431650000E-01 -4.95773690000E-01

  42  42   1    8 O     3.05599690000E-01  4.52279940000E-01  4.96961220000E-01

 NUMBER OF SYMMETRY OPERATORS         :    1
 *******************************************************************************
 * GEOMETRY EDITING - INPUT COORDINATES ARE GIVEN IN ANGSTROM         
 *******************************************************************************

 GCALCO - MAX INDICES DIRECT LATTICE VECTOR     9    14    23
 NO.OF VECTORS CREATED 6999 STARS 3500 RMAX   218.29882 BOHR

 GEOMETRY FOR WAVE FUNCTION - DIMENSIONALITY OF THE SYSTEM    3
 (NON PERIODIC DIRECTION: LATTICE PARAMETER FORMALLY SET TO 500)
 *******************************************************************************
 LATTICE PARAMETERS (ANGSTROMS AND DEGREES) - BOHR = 0.5291772083 ANGSTROM
 PRIMITIVE CELL - CENTRING CODE 1/0 VOLUME=   860.126984 - DENSITY  0.753 g/cm^3
         A              B              C           ALPHA      BETA       GAMMA 
    15.02361100    15.02391600     8.26801100    42.841666  89.999970 119.995964
 *******************************************************************************
 ATOMS IN THE ASYMMETRIC UNIT   42 - ATOMS IN THE UNIT CELL:   42
     ATOM                 X/A                 Y/B                 Z/C    
 *******************************************************************************
      1 T   5 B     4.789083500000E-01 -4.225356000000E-02 -4.989191100000E-01
      2 T   5 B    -3.620359900000E-01  1.168060900000E-01 -4.989191000000E-01
      3 T   5 B     4.795179900000E-01  1.180168300000E-01  4.987983800000E-01
      4 T   5 B     9.248306000000E-02  3.440614300000E-01 -4.989191000000E-01
      5 T   5 B     2.515910300000E-01  3.440406700000E-01 -4.989191100000E-01
      6 T   5 B     2.521852200000E-01 -4.955921900000E-01  4.987983800000E-01
      7 T   1 H    -2.304558100000E-01  4.190405000000E-02  4.963487800000E-01
      8 T   1 H    -3.667027000000E-02  4.244167400000E-01  4.956251500000E-01
      9 T   1 H    -2.303034300000E-01  3.274956400000E-01  4.955137800000E-01
     10 T   1 H    -3.654614000000E-02  1.390932100000E-01  4.955415600000E-01
     11 T   1 H    -4.444285900000E-01 -1.739453900000E-01 -4.963581800000E-01
     12 T   1 H     1.732740900000E-01 -3.679015200000E-01 -4.956345100000E-01
     13 T   1 H     2.701843900000E-01 -1.743488100000E-01 -4.955230700000E-01
     14 T   1 H     4.586341300000E-01 -3.680364200000E-01 -4.955510400000E-01
     15 T   1 H    -4.424267000000E-01  3.270281900000E-01  4.963488200000E-01
     16 T   1 H     1.756570400000E-01  1.389726600000E-01  4.956251000000E-01
     17 T   1 H     2.725657500000E-01  4.224651000000E-02  4.955136900000E-01
     18 T   1 H     4.610085400000E-01  4.243661500000E-01  4.955416500000E-01
     19 T   6 C    -2.422455100000E-01  1.776447800000E-01  4.987148600000E-01
     20 T   6 C    -1.870402700000E-01  1.256997200000E-01  4.964601400000E-01
     21 T   6 C    -8.008887000000E-02  3.402041800000E-01  4.962653600000E-01
     22 T   6 C    -1.871821000000E-01  2.863966000000E-01  4.968499000000E-01
     23 T   6 C    -7.980357000000E-02  1.797630600000E-01  4.953467200000E-01
     24 T   6 C    -2.560580000000E-02  2.867250800000E-01  4.968777100000E-01
     25 T   6 C     4.192148200000E-01 -1.615081600000E-01 -4.987242400000E-01
     26 T   6 C     4.717468200000E-01 -2.173336600000E-01 -4.964695500000E-01
     27 T   6 C     2.573152300000E-01 -3.243312600000E-01 -4.962747000000E-01
     28 T   6 C     3.109613600000E-01 -2.170771000000E-01 -4.968592300000E-01
     29 T   6 C     4.179863600000E-01 -3.248650200000E-01 -4.953561500000E-01
     30 T   6 C     3.106091800000E-01 -3.786729100000E-01 -4.968871000000E-01
     31 T   6 C     4.199090500000E-01  1.775756400000E-01  4.987148600000E-01
     32 T   6 C     4.736808300000E-01  2.865398500000E-01  4.964601900000E-01
     33 T   6 C     2.593463900000E-01  1.791909400000E-01  4.962653100000E-01
     34 T   6 C     3.126530600000E-01  1.253944300000E-01  4.968498400000E-01
     35 T   6 C     4.205130300000E-01  3.406110600000E-01  4.953467800000E-01
     36 T   6 C     3.123182900000E-01  2.866476800000E-01  4.968777100000E-01
     37 T   8 O     4.264136900000E-01  1.169735000000E-02  4.994107600000E-01
     38 T   8 O    -4.159365000000E-01  9.114370000000E-03 -4.957736800000E-01
     39 T   8 O    -4.139847400000E-01  1.719679700000E-01  4.969612400000E-01
     40 T   8 O     1.460015200000E-01  4.509778200000E-01  4.994107800000E-01
     41 T   8 O     1.447257800000E-01  2.894316500000E-01 -4.957736900000E-01
     42 T   8 O     3.055996900000E-01  4.522799400000E-01  4.969612200000E-01

 T = ATOM BELONGING TO THE ASYMMETRIC UNIT

 ****    1 SYMMOPS - TRANSLATORS IN FRACTIONAL UNITS
 **** MATRICES AND TRANSLATORS IN THE CRYSTALLOGRAPHIC REFERENCE FRAME
   V INV                    ROTATION MATRICES                   TRANSLATORS
   1   1  1.00 -0.00  0.00  0.00  1.00  0.00  0.00 -0.00  1.00  0.00  0.00  0.00

 DIRECT LATTICE VECTORS CARTESIAN COMPONENTS (ANGSTROM)
          X                    Y                    Z
   0.130113578931E+02  -0.751088897922E+01   0.000000000000E+00
   0.000000000000E+00   0.150239160000E+02   0.000000000000E+00
   0.349956378441E+01   0.606239979789E+01   0.440004180724E+01


 CARTESIAN COORDINATES - PRIMITIVE CELL
 *******************************************************************************
 *      ATOM          X(ANGSTROM)         Y(ANGSTROM)         Z(ANGSTROM)
 *******************************************************************************
    1     5 B     9.856849067000E-01  1.705027706271E+00 -6.595306749673E+00
    2     5 B    -6.456579049770E+00  1.449449960816E+00 -2.195264898431E+00
    3     5 B    -1.527037178220E+00 -2.552434707140E-01  6.594775532626E+00
    4     5 B    -5.426690210078E-01  1.449872976038E+00 -2.195264898431E+00
    5     5 B     1.527541685304E+00  2.545187205394E-01 -2.195264942432E+00
    6     5 B     1.527285114717E+00  2.645560777774E+00 -2.205308081857E+00
    7     1 H    -4.761102591933E+00 -6.928441235500E-01 -2.216086424268E+00
    8     1 H    -2.242221965835E+00  3.594105788861E+00 -2.219270426521E+00
    9     1 H    -1.262478272562E+00 -5.369862880287E+00  2.180281348064E+00
   10     1 H    -2.240899394516E+00 -6.940100413308E-01 -2.219638226016E+00
   11     1 H    -4.020092768808E+00  3.777990938510E+00  2.216045063875E+00
   12     1 H     5.200266170815E-01  5.190417461031E+00 -2.180812565112E+00
   13     1 H     5.280914989708E+00 -1.590385994875E+00  2.219719582789E+00
   14     1 H     4.233240334488E+00  3.045589183729E+00 -2.180445293622E+00
   15     1 H    -4.019567780235E+00 -3.778589132616E+00  2.183955558975E+00
   16     1 H     5.204444800671E-01 -2.289149247542E+00 -2.219270646523E+00
   17     1 H     1.780968502430E+00 -4.470900774036E+00 -2.219760855181E+00
   18     1 H     4.232962933290E+00 -1.451707706513E-01 -2.219637830012E+00
   19     6 C    -4.906222350205E+00  1.449408452461E+00 -2.205675573349E+00
   20     6 C    -4.195817751449E+00  2.406807916225E-01 -2.215596435613E+00
   21     6 C    -2.804916453920E+00  2.658896854483E+00 -2.216453475756E+00
   22     6 C    -4.196299162359E+00  2.658405368534E+00 -2.213881475318E+00
   23     6 C    -2.804419152788E+00  2.407309250814E-01 -2.220495530162E+00
   24     6 C    -2.093874773154E+00  1.449927368827E+00 -2.213759110155E+00
   25     6 C     2.096729839648E-01  3.628894697139E-01 -6.594449313526E+00
   26     6 C     9.010760682719E-01 -8.567213406000E-01 -6.584528583264E+00
   27     6 C     1.611275581623E+00  5.209908627416E+00 -2.183629427876E+00
   28     6 C    -1.192324805803E+00  3.524125388680E-01 -6.586243191555E+00
   29     6 C     3.705039681449E+00  4.000675059751E+00 -2.179587769474E+00
   30     6 C     2.302559105746E+00  3.989486687165E+00 -2.186324013479E+00
   31     6 C     3.709307610474E+00 -3.524999688333E+00 -2.205675573349E+00
   32     6 C     4.401061123123E+00 -2.305473131034E+00 -2.215596215610E+00
   33     6 C     1.611597020485E+00 -2.309613394776E+00 -2.216453695758E+00
   34     6 C     2.307234781961E+00 -3.514684467777E+00 -2.213881739320E+00
   35     6 C     3.705379399623E+00 -1.100524307466E+00 -2.220495266159E+00
   36     6 C     2.302976502522E+00 -1.089345805664E+00 -2.213759110155E+00
   37     8 O    -2.215853168310E+00 -1.450005413390E+00  6.597470030228E+00
   38     8 O     2.364903830562E+00  1.706035368639E+00 -6.581466726171E+00
   39     8 O    -1.477922722274E-01 -2.557127239741E-01  6.586692039820E+00
   40     8 O     1.478341244698E-01  2.644079691872E+00 -2.202613496254E+00
   41     8 O     1.480872691421E-01  2.557992132756E-01 -2.181424962930E+00
   42     8 O     2.215850641953E+00  1.450068285169E+00 -2.213391662664E+00

 *******************************************************************************
 STARTING BASIS SET HANDLING 
 *******************************************************************************

 Loading internal basis set: SOLDEF2MSVP         

 Please cite in your publication:
 L. Dona', J. G. Brandenburg and B. Civalleri, J. Chem. Phys., 151, 121101 (2019
 )                                                                              
                                                                                
                    

 *******************************************************************************
 LOCAL ATOMIC FUNCTIONS BASIS SET
 *******************************************************************************
   ATOM   X(AU)   Y(AU)   Z(AU)  N. TYPE  EXPONENT  S COEF   P COEF   D/F/G COEF
 *******************************************************************************
   1 B    1.863   3.222 -12.463
                                  1 S  
                                         2.410E+03 1.755E-03 0.000E+00 0.000E+00
                                         3.619E+02 1.344E-02 0.000E+00 0.000E+00
                                         8.231E+01 6.637E-02 0.000E+00 0.000E+00
                                         2.311E+01 2.303E-01 0.000E+00 0.000E+00
                                         7.252E+00 5.150E-01 0.000E+00 0.000E+00
                                  2 S  
                                         2.367E+00 1.000E+00 0.000E+00 0.000E+00
                                  3 S  
                                         5.533E-01 1.000E+00 0.000E+00 0.000E+00
                                  4 S  
                                         1.716E-01 1.000E+00 0.000E+00 0.000E+00
                           5-     7 P  
                                         6.002E+00 0.000E+00-3.555E-02 0.000E+00
                                         1.240E+00 0.000E+00-1.983E-01 0.000E+00
                                         3.367E-01 0.000E+00-5.048E-01 0.000E+00
                           8-    10 P  
                                         1.256E-01 0.000E+00 1.000E+00 0.000E+00
                          11-    15 D  
                                         8.880E-01 0.000E+00 0.000E+00 1.000E+00
   2 B  -12.201   2.739  -4.148
   3 B   -2.886  -0.482  12.462
   4 B   -1.025   2.740  -4.148
   5 B    2.887   0.481  -4.148
   6 B    2.886   4.999  -4.167
   7 H   -8.997  -1.309  -4.188
                                 91 S  
                                         1.874E+01 1.968E-02 0.000E+00 0.000E+00
                                         2.826E+00 1.380E-01 0.000E+00 0.000E+00
                                         6.401E-01 4.783E-01 0.000E+00 0.000E+00
                                 92 S  
                                         1.756E-01 1.000E+00 0.000E+00 0.000E+00
   8 H   -4.237   6.792  -4.194
   9 H   -2.386 -10.148   4.120
  10 H   -4.235  -1.311  -4.195
  11 H   -7.597   7.139   4.188
  12 H    0.983   9.808  -4.121
  13 H    9.979  -3.005   4.195
  14 H    8.000   5.755  -4.120
  15 H   -7.596  -7.140   4.127
  16 H    0.983  -4.326  -4.194
  17 H    3.366  -8.449  -4.195
  18 H    7.999  -0.274  -4.195
  19 C   -9.271   2.739  -4.168
                                115 S  
                                         3.624E+03 1.634E-03 0.000E+00 0.000E+00
                                         5.440E+02 1.252E-02 0.000E+00 0.000E+00
                                         1.237E+02 6.211E-02 0.000E+00 0.000E+00
                                         3.476E+01 2.182E-01 0.000E+00 0.000E+00
                                         1.093E+01 4.980E-01 0.000E+00 0.000E+00
                                116 S  
                                         3.574E+00 1.000E+00 0.000E+00 0.000E+00
                                117 S  
                                         7.742E-01 1.000E+00 0.000E+00 0.000E+00
                                118 S  
                                         2.330E-01 1.000E+00 0.000E+00 0.000E+00
                         119-   121 P  
                                         9.443E+00 0.000E+00 3.790E-02 0.000E+00
                                         2.002E+00 0.000E+00 2.082E-01 0.000E+00
                                         5.463E-01 0.000E+00 5.047E-01 0.000E+00
                         122-   124 P  
                                         1.820E-01 0.000E+00 1.000E+00 0.000E+00
                         125-   129 D  
                                         8.880E-01 0.000E+00 0.000E+00 1.000E+00
  20 C   -7.929   0.455  -4.187
  21 C   -5.301   5.025  -4.188
  22 C   -7.930   5.024  -4.184
  23 C   -5.300   0.455  -4.196
  24 C   -3.957   2.740  -4.183
  25 C    0.396   0.686 -12.462
  26 C    1.703  -1.619 -12.443
  27 C    3.045   9.845  -4.126
  28 C   -2.253   0.666 -12.446
  29 C    7.002   7.560  -4.119
  30 C    4.351   7.539  -4.132
  31 C    7.010  -6.661  -4.168
  32 C    8.317  -4.357  -4.187
  33 C    3.045  -4.365  -4.188
  34 C    4.360  -6.642  -4.184
  35 C    7.002  -2.080  -4.196
  36 C    4.352  -2.059  -4.183
  37 O   -4.187  -2.740  12.467
                                385 S  
                                         6.773E+03 1.727E-03 0.000E+00 0.000E+00
                                         1.017E+03 1.325E-02 0.000E+00 0.000E+00
                                         2.313E+02 6.603E-02 0.000E+00 0.000E+00
                                         6.501E+01 2.353E-01 0.000E+00 0.000E+00
                                         2.050E+01 5.498E-01 0.000E+00 0.000E+00
                                386 S  
                                         6.716E+00 1.000E+00 0.000E+00 0.000E+00
                                387 S  
                                         1.147E+00 1.000E+00 0.000E+00 0.000E+00
                                388 S  
                                         3.342E-01 1.000E+00 0.000E+00 0.000E+00
                         389-   391 P  
                                         1.769E+01 0.000E+00 4.359E-02 0.000E+00
                                         3.854E+00 0.000E+00 2.318E-01 0.000E+00
                                         1.047E+00 0.000E+00 5.146E-01 0.000E+00
                         392-   394 P  
                                         2.759E-01 0.000E+00 1.000E+00 0.000E+00
                         395-   399 D  
                                         8.000E-01 0.000E+00 0.000E+00 1.000E+00
  38 O    4.469   3.224 -12.437
  39 O   -0.279  -0.483  12.447
  40 O    0.279   4.997  -4.162
  41 O    0.280   0.483  -4.122
  42 O    4.187   2.740  -4.183

 *******************************************************************************
 FINISHED BASIS SET HANDLING 
 *******************************************************************************

 INFORMATION **** SET_MPP **** PCRYSTAL CALCULATION
 INFORMATION **** READM2 **** NEW DEFAULT: FOCK/KS MATRIX MIXING SET TO 30 %
 INFORMATION **** READM2 **** NEW DEFAULT: FULL DIRECT SCF MODE
 INFORMATION **** READM2 **** NEW DEFAULT: COULOMB BIPOLAR BUFFER SET TO 32 Mb
 INFORMATION **** READM2 **** NEW DEFAULT: EXCHANGE BIPOLAR BUFFER SET TO 32 Mb

 *******************************************************************************
 NEW DEFAULT: DFT INTEGRATION GRID INCREASED TO XLGRID
 NEW DEFAULT: DIIS ACCELERATOR ACTIVE
 USE KEYWORD NODIIS TO TURN IT OFF
 *******************************************************************************

 WARNING **** RDDFTP **** HSEsol-HJS ACTIVE
 RANGE SEPARATION - OMEGA:   0.110000000000000     
 WARNING **** RDDFTP **** HSEsol-3c has to be combined with sol-def2-mSVP basis set
 *******************************************************************************
 N. OF ATOMS PER CELL        42  COULOMB OVERLAP TOL         (T1) 10**   -6
 NUMBER OF SHELLS           234  COULOMB PENETRATION TOL     (T2) 10**   -6
 NUMBER OF AO               474  EXCHANGE OVERLAP TOL        (T3) 10**   -6
 N. OF ELECTRONS PER CELL   198  EXCHANGE PSEUDO OVP (F(G))  (T4) 10**   -6
 CORE ELECTRONS PER CELL     60  EXCHANGE PSEUDO OVP (P(G))  (T5) 10**  -12
 N. OF SYMMETRY OPERATORS     1  POLE ORDER IN MONO ZONE                  4
 *******************************************************************************
 TYPE OF CALCULATION :  RESTRICTED CLOSED SHELL
 KOHN-SHAM HAMILTONIAN

 (EXCHANGE)[CORRELATION] FUNCTIONAL:(HSEsol GGA)[PBEsol]

 RANGE-SEPARATED HYBRID FUNCTIONAL 
 OMEGA (SHORT-RANGE)[LONG-RANGE]:(    0.1100)[    0.0000]

 HYBRID EXCHANGE - PERCENTAGE OF FOCK EXCHANGE    25.0000

 CAPPA:IS1  2;IS2  2;IS3  8; K PTS MONK NET  20; SYMMOPS:K SPACE   2;G SPACE   1

 *******************************************************************************
 MAX NUMBER OF SCF CYCLES      50  CONVERGENCE ON DELTAP        10**-16
 WEIGHT OF F(I) IN F(I+1)      30% CONVERGENCE ON ENERGY        10**- 6
 SHRINK. FACT.(MONKH.)    2  2  8  NUMBER OF K POINTS IN THE IBZ     20
 SHRINKING FACTOR(GILAT NET)    8  NUMBER OF K POINTS(GILAT NET)   1028
 *******************************************************************************
 *** K POINTS COORDINATES (OBLIQUE COORDINATES IN UNITS OF IS =  2)
   1-R(  0  0  0)   2-R(  1  0  0)   3-R(  0  1  0)   4-R(  1  1  0)
   5-C(  0  0  1)   6-C(  1  0  1)   7-C(  0  1  1)   8-C(  1  1  1)
   9-C(  0  0  2)  10-C(  1  0  2)  11-C(  0  1  2)  12-C(  1  1  2)
  13-C(  0  0  3)  14-C(  1  0  3)  15-C(  0  1  3)  16-C(  1  1  3)
  17-R(  0  0  4)  18-R(  1  0  4)  19-R(  0  1  4)  20-R(  1  1  4)

 DIRECT LATTICE VECTORS COMPON. (A.U.)     RECIP. LATTICE VECTORS COMPON. (A.U.) 
        X            Y            Z              X            Y            Z
   24.5879030  -14.1935232    0.0000000      0.2555397    0.0000000   -0.2032429
    0.0000000   28.3910867    0.0000000      0.1277517    0.2213084   -0.4065268
    6.6132171   11.4562753    8.3148740      0.0000000    0.0000000    0.7556561

 DISK SPACE FOR EIGENVECTORS (FTN 10)     7189632 REALS

 SYMMETRY ADAPTION OF THE BLOCH FUNCTIONS DISABLED
 TTTTTTTTTTTTTTTTTTTTTTTTTTTTTT gordsh1     TELAPSE        0.04 TCPU        0.04

 MATRIX SIZE: P(G)  271894, F(G)   53701, P(G) IRR  137006, F(G) IRR   54181
 MAX G-VECTOR INDEX FOR 1- AND 2-ELECTRON INTEGRALS  67

 TTTTTTTTTTTTTTTTTTTTTTTTTTTTTT INPUT       TELAPSE        0.38 TCPU        0.38

 NEIGHBORS OF THE NON-EQUIVALENT ATOMS

 N = NUMBER OF NEIGHBORS AT DISTANCE R
    ATOM  N     R/ANG      R/AU   NEIGHBORS (ATOM LABELS AND CELL INDICES)
   1 B    1     1.3791     2.6061   37 O    1 2-3
   1 B    1     1.3793     2.6065   38 O    0 0 0
   1 B    1     1.5503     2.9297   25 C    0 0 0
   1 B    1     2.3895     4.5155    3 B    1 2-3
   1 B    1     2.3898     4.5160    2 B    1 1-1
   1 B    1     2.5632     4.8437   26 C    0 0 0

   2 B    1     1.3793     2.6065   39 O    0 1-2
   2 B    1     1.3793     2.6065   38 O   -1-1 1
   2 B    1     1.5504     2.9298   19 C    0 0 0
   2 B    1     2.3895     4.5156    3 B    0 1-2
   2 B    1     2.3898     4.5160    1 B   -1-1 1
   2 B    1     2.5634     4.8440   22 C    0 0 0

   3 B    1     1.3791     2.6061   37 O    0 0 0
   3 B    1     1.3793     2.6064   39 O    0 0 0
   3 B    1     1.5502     2.9294   31 C   -1-1 2
   3 B    1     2.3895     4.5155    1 B   -1-2 3
   3 B    1     2.3895     4.5156    2 B    0-1 2
   3 B    1     2.5629     4.8433   32 C   -1-1 2

   4 B    1     1.3795     2.6068   40 O    0 0 0
   4 B    1     1.3795     2.6070   41 O    0 0 0
   4 B    1     1.5513     2.9316   24 C    0 0 0
   4 B    1     2.3905     4.5174    6 B    0 0 0
   4 B    1     2.3905     4.5175    5 B    0 0 0
   4 B    1     2.5648     4.8468   23 C    0 0 0

   5 B    1     1.3795     2.6069   41 O    0 0 0
   5 B    1     1.3797     2.6072   42 O    0 0 0
   5 B    1     1.5516     2.9322   36 C    0 0 0
   5 B    1     2.3905     4.5175    4 B    0 0 0
   5 B    1     2.3911     4.5185    6 B    0 0 0
   5 B    1     2.5651     4.8473   35 C    0 0 0

   6 B    1     1.3795     2.6068   40 O    0 0 0
   6 B    1     1.3796     2.6071   42 O    0 0 0
   6 B    1     1.5516     2.9322   30 C    0 0 0
   6 B    1     2.3905     4.5174    4 B    0 0 0
   6 B    1     2.3911     4.5185    5 B    0 0 0
   6 B    1     2.5651     4.8473   29 C    0 0 0

   7 H    1     1.0913     2.0623   20 C    0 0 0
   7 H    1     2.1472     4.0576   19 C    0 0 0
   7 H    1     2.1680     4.0969   23 C    0 0 0
   7 H    1     2.5202     4.7625   10 H    0 0 0
   7 H    1     2.5676     4.8520   38 O   -1-1 1
   7 H    1     2.7321     5.1630    2 B    0 0 0

   8 H    1     1.0914     2.0625   21 C    0 0 0
   8 H    1     2.1493     4.0616   24 C    0 0 0
   8 H    1     2.1666     4.0942   22 C    0 0 0
   8 H    1     2.5198     4.7618    9 H    0 1-1
   8 H    1     2.5720     4.8604   40 O    0 0 0
   8 H    1     2.7362     5.1707    4 B    0 0 0

   9 H    1     1.0914     2.0624   22 C    0-1 1
   9 H    1     2.1471     4.0575   19 C    0-1 1
   9 H    1     2.1680     4.0970   21 C    0-1 1
   9 H    1     2.5198     4.7618    8 H    0-1 1
   9 H    1     2.5665     4.8500   39 O    0 0-1
   9 H    1     2.7315     5.1618    2 B    0-1 1

  10 H    1     1.0915     2.0626   23 C    0 0 0
  10 H    1     2.1490     4.0610   24 C    0 0 0
  10 H    1     2.1669     4.0948   20 C    0 0 0
  10 H    1     2.5202     4.7625    7 H    0 0 0
  10 H    1     2.5712     4.8588   41 O    0 0 0
  10 H    1     2.7351     5.1686    4 B    0 0 0

  11 H    1     1.0913     2.0623   26 C   -1-1 2
  11 H    1     2.1469     4.0571   25 C   -1-1 2
  11 H    1     2.1680     4.0968   29 C   -1-1 1
  11 H    1     2.5198     4.7617   14 H   -1-1 1
  11 H    1     2.5670     4.8510   38 O   -1-1 2
  11 H    1     2.7310     5.1609    1 B   -1-1 2

  12 H    1     1.0914     2.0625   27 C    0 0 0
  12 H    1     2.1493     4.0617   30 C    0 0 0
  12 H    1     2.1664     4.0939   28 C    0 0 1
  12 H    1     2.5192     4.7606   13 H    0 1-1
  12 H    1     2.5735     4.8632   40 O    0 0 0
  12 H    1     2.7371     5.1723    6 B    0 0 0

  13 H    1     1.0914     2.0624   28 C    0-1 2
  13 H    1     2.1475     4.0581   25 C    0-1 2
  13 H    1     2.1679     4.0967   27 C    0-1 1
  13 H    1     2.5192     4.7606   12 H    0-1 1
  13 H    1     2.5675     4.8519   37 O    1 1-1
  13 H    1     2.7328     5.1643    1 B    0-1 2

  14 H    1     1.0914     2.0625   29 C    0 0 0
  14 H    1     2.1491     4.0612   30 C    0 0 0
  14 H    1     2.1666     4.0942   26 C    0 0 1
  14 H    1     2.5198     4.7617   11 H    1 1-1
  14 H    1     2.5723     4.8609   42 O    0 0 0
  14 H    1     2.7355     5.1693    6 B    0 0 0

  15 H    1     1.0914     2.0624   32 C   -1-1 1
  15 H    1     2.1475     4.0582   31 C   -1-1 1
  15 H    1     2.1678     4.0966   35 C   -1-1 1
  15 H    1     2.5200     4.7621   18 H   -1-1 1
  15 H    1     2.5667     4.8503   39 O    0 0-1
  15 H    1     2.7315     5.1618    3 B    0 0-1

  16 H    1     1.0913     2.0623   33 C    0 0 0
  16 H    1     2.1487     4.0605   36 C    0 0 0
  16 H    1     2.1667     4.0945   34 C    0 0 0
  16 H    1     2.5197     4.7616   17 H    0 0 0
  16 H    1     2.5723     4.8610   41 O    0 0 0
  16 H    1     2.7359     5.1701    5 B    0 0 0

  17 H    1     1.0915     2.0626   34 C    0 0 0
  17 H    1     2.1479     4.0589   31 C    0 0 0
  17 H    1     2.1679     4.0968   33 C    0 0 0
  17 H    1     2.5197     4.7616   16 H    0 0 0
  17 H    1     2.5677     4.8522   37 O    1 1-2
  17 H    1     2.7331     5.1648    3 B    1 1-2

  18 H    1     1.0914     2.0624   35 C    0 0 0
  18 H    1     2.1486     4.0602   36 C    0 0 0
  18 H    1     2.1668     4.0947   32 C    0 0 0
  18 H    1     2.5200     4.7621   15 H    1 1-1
  18 H    1     2.5717     4.8598   42 O    0 0 0
  18 H    1     2.7349     5.1682    5 B    0 0 0

  19 C    1     1.4020     2.6495   22 C    0 0 0
  19 C    1     1.4021     2.6495   20 C    0 0 0
  19 C    1     1.5504     2.9298    2 B    0 0 0
  19 C    1     2.1471     4.0575    9 H    0 1-1
  19 C    1     2.1472     4.0576    7 H    0 0 0
  19 C    1     2.4246     4.5817   21 C    0 0 0

  20 C    1     1.0913     2.0623    7 H    0 0 0
  20 C    1     1.3914     2.6294   23 C    0 0 0
  20 C    1     1.4021     2.6495   19 C    0 0 0
  20 C    1     2.1669     4.0948   10 H    0 0 0
  20 C    1     2.4177     4.5688   22 C    0 0 0
  20 C    1     2.4250     4.5825   24 C    0 0 0

  21 C    1     1.0914     2.0625    8 H    0 0 0
  21 C    1     1.3914     2.6293   22 C    0 0 0
  21 C    1     1.4026     2.6505   24 C    0 0 0
  21 C    1     2.1680     4.0970    9 H    0 1-1
  21 C    1     2.4182     4.5697   23 C    0 0 0
  21 C    1     2.4246     4.5817   19 C    0 0 0

  22 C    1     1.0914     2.0624    9 H    0 1-1
  22 C    1     1.3914     2.6293   21 C    0 0 0
  22 C    1     1.4020     2.6495   19 C    0 0 0
  22 C    1     2.1666     4.0942    8 H    0 0 0
  22 C    1     2.4177     4.5688   20 C    0 0 0
  22 C    1     2.4250     4.5826   24 C    0 0 0

  23 C    1     1.0915     2.0626   10 H    0 0 0
  23 C    1     1.3914     2.6294   20 C    0 0 0
  23 C    1     1.4025     2.6504   24 C    0 0 0
  23 C    1     2.1680     4.0969    7 H    0 0 0
  23 C    1     2.4182     4.5697   21 C    0 0 0
  23 C    1     2.4246     4.5818   19 C    0 0 0

  24 C    1     1.4025     2.6504   23 C    0 0 0
  24 C    1     1.4026     2.6505   21 C    0 0 0
  24 C    1     1.5513     2.9316    4 B    0 0 0
  24 C    1     2.1490     4.0610   10 H    0 0 0
  24 C    1     2.1493     4.0616    8 H    0 0 0
  24 C    1     2.4250     4.5825   20 C    0 0 0

  25 C    1     1.4020     2.6494   26 C    0 0 0
  25 C    1     1.4021     2.6495   28 C    0 0 0
  25 C    1     1.5503     2.9297    1 B    0 0 0
  25 C    1     2.1469     4.0571   11 H    1 1-2
  25 C    1     2.1475     4.0581   13 H    0 1-2
  25 C    1     2.4246     4.5818   27 C    0 0-1

  26 C    1     1.0913     2.0623   11 H    1 1-2
  26 C    1     1.3914     2.6293   29 C    0 0-1
  26 C    1     1.4020     2.6494   25 C    0 0 0
  26 C    1     2.1666     4.0942   14 H    0 0-1
  26 C    1     2.4175     4.5684   28 C    0 0 0
  26 C    1     2.4251     4.5828   30 C    0 0-1

  27 C    1     1.0914     2.0625   12 H    0 0 0
  27 C    1     1.3915     2.6295   28 C    0 0 1
  27 C    1     1.4026     2.6505   30 C    0 0 0
  27 C    1     2.1679     4.0967   13 H    0 1-1
  27 C    1     2.4179     4.5691   29 C    0 0 0
  27 C    1     2.4246     4.5818   25 C    0 0 1

  28 C    1     1.0914     2.0624   13 H    0 1-2
  28 C    1     1.3915     2.6295   27 C    0 0-1
  28 C    1     1.4021     2.6495   25 C    0 0 0
  28 C    1     2.1664     4.0939   12 H    0 0-1
  28 C    1     2.4175     4.5684   26 C    0 0 0
  28 C    1     2.4253     4.5832   30 C    0 0-1

  29 C    1     1.0914     2.0625   14 H    0 0 0
  29 C    1     1.3914     2.6293   26 C    0 0 1
  29 C    1     1.4025     2.6504   30 C    0 0 0
  29 C    1     2.1680     4.0968   11 H    1 1-1
  29 C    1     2.4179     4.5691   27 C    0 0 0
  29 C    1     2.4247     4.5819   25 C    0 0 1

  30 C    1     1.4025     2.6504   29 C    0 0 0
  30 C    1     1.4026     2.6505   27 C    0 0 0
  30 C    1     1.5516     2.9322    6 B    0 0 0
  30 C    1     2.1491     4.0612   14 H    0 0 0
  30 C    1     2.1493     4.0617   12 H    0 0 0
  30 C    1     2.4251     4.5828   26 C    0 0 1

  31 C    1     1.4021     2.6496   32 C    0 0 0
  31 C    1     1.4021     2.6497   34 C    0 0 0
  31 C    1     1.5502     2.9294    3 B    1 1-2
  31 C    1     2.1475     4.0582   15 H    1 1-1
  31 C    1     2.1479     4.0589   17 H    0 0 0
  31 C    1     2.4244     4.5814   33 C    0 0 0

  32 C    1     1.0914     2.0624   15 H    1 1-1
  32 C    1     1.3914     2.6293   35 C    0 0 0
  32 C    1     1.4021     2.6496   31 C    0 0 0
  32 C    1     2.1668     4.0947   18 H    0 0 0
  32 C    1     2.4179     4.5692   34 C    0 0 0
  32 C    1     2.4251     4.5827   36 C    0 0 0

  33 C    1     1.0913     2.0623   16 H    0 0 0
  33 C    1     1.3914     2.6294   34 C    0 0 0
  33 C    1     1.4025     2.6504   36 C    0 0 0
  33 C    1     2.1679     4.0968   17 H    0 0 0
  33 C    1     2.4178     4.5690   35 C    0 0 0
  33 C    1     2.4244     4.5814   31 C    0 0 0

  34 C    1     1.0915     2.0626   17 H    0 0 0
  34 C    1     1.3914     2.6294   33 C    0 0 0
  34 C    1     1.4021     2.6497   31 C    0 0 0
  34 C    1     2.1667     4.0945   16 H    0 0 0
  34 C    1     2.4179     4.5692   32 C    0 0 0
  34 C    1     2.4253     4.5832   36 C    0 0 0

  35 C    1     1.0914     2.0624   18 H    0 0 0
  35 C    1     1.3914     2.6293   32 C    0 0 0
  35 C    1     1.4025     2.6503   36 C    0 0 0
  35 C    1     2.1678     4.0966   15 H    1 1-1
  35 C    1     2.4178     4.5690   33 C    0 0 0
  35 C    1     2.4245     4.5817   31 C    0 0 0

  36 C    1     1.4025     2.6503   35 C    0 0 0
  36 C    1     1.4025     2.6504   33 C    0 0 0
  36 C    1     1.5516     2.9322    5 B    0 0 0
  36 C    1     2.1486     4.0602   18 H    0 0 0
  36 C    1     2.1487     4.0605   16 H    0 0 0
  36 C    1     2.4251     4.5827   32 C    0 0 0

  37 O    1     1.3791     2.6061    3 B    0 0 0
  37 O    1     1.3791     2.6061    1 B   -1-2 3
  37 O    1     2.3880     4.5126   38 O   -1-2 3
  37 O    1     2.3882     4.5130   39 O    0 0 0
  37 O    1     2.5383     4.7966   31 C   -1-1 2
  37 O    1     2.5384     4.7968   25 C   -1-2 3

  38 O    1     1.3793     2.6065    1 B    0 0 0
  38 O    1     1.3793     2.6065    2 B    1 1-1
  38 O    1     2.3880     4.5126   37 O    1 2-3
  38 O    1     2.3882     4.5131   39 O    1 2-3
  38 O    1     2.5391     4.7981   19 C    1 1-1
  38 O    1     2.5395     4.7990   25 C    0 0 0

  39 O    1     1.3793     2.6064    3 B    0 0 0
  39 O    1     1.3793     2.6065    2 B    0-1 2
  39 O    1     2.3882     4.5130   37 O    0 0 0
  39 O    1     2.3882     4.5131   38 O   -1-2 3
  39 O    1     2.5390     4.7980   19 C    0-1 2
  39 O    1     2.5391     4.7982   31 C   -1-1 2

  40 O    1     1.3795     2.6068    6 B    0 0 0
  40 O    1     1.3795     2.6068    4 B    0 0 0
  40 O    1     2.3880     4.5126   42 O    0 0 0
  40 O    1     2.3884     4.5134   41 O    0 0 0
  40 O    1     2.5400     4.7998   24 C    0 0 0
  40 O    1     2.5403     4.8005   30 C    0 0 0

  41 O    1     1.3795     2.6069    5 B    0 0 0
  41 O    1     1.3795     2.6070    4 B    0 0 0
  41 O    1     2.3881     4.5128   42 O    0 0 0
  41 O    1     2.3884     4.5134   40 O    0 0 0
  41 O    1     2.5404     4.8006   24 C    0 0 0
  41 O    1     2.5405     4.8008   36 C    0 0 0

  42 O    1     1.3796     2.6071    6 B    0 0 0
  42 O    1     1.3797     2.6072    5 B    0 0 0
  42 O    1     2.3880     4.5126   40 O    0 0 0
  42 O    1     2.3881     4.5128   41 O    0 0 0
  42 O    1     2.5409     4.8016   36 C    0 0 0
  42 O    1     2.5410     4.8019   30 C    0 0 0


 SYMMETRY ALLOWED INTERNAL DEGREE(S) OF FREEDOM: 123
 TTTTTTTTTTTTTTTTTTTTTTTTTTTTTT SYMM        TELAPSE        0.38 TCPU        0.38
 TTTTTTTTTTTTTTTTTTTTTTTTTTTTTT INT_SCREEN  TELAPSE        0.42 TCPU        0.41

 DFT PARAMETERS

     ATOM       ELECTRONS   NET CHARGE   R(ANGSTROM)
   1   5  B       5.0000      0.0000     0.89000000
   7   1  H       1.0000      0.0000     1.11000000
  19   6  C       6.0000      0.0000     0.77000000
  37   8  O       8.0000      0.0000     0.74000000

 SIZE OF GRID=    1341300
 TTTTTTTTTTTTTTTTTTTTTTTTTTTTTT MAKE_GRID2  TELAPSE        7.45 TCPU        7.44
 BECKE WEIGHT FUNCTION
 RADSAFE =     2.00
 TOLERANCES - DENSITY:10**- 6; POTENTIAL:10**- 9; GRID WGT:10**-14

 RADIAL INTEGRATION  - INTERVALS (POINTS,UPPER LIMIT):            1( 75,  4.0*R)

 ANGULAR INTEGRATION - INTERVALS (ACCURACY LEVEL [N. POINTS] UPPER LIMIT):
  1(  4[  86]   0.2)  2(  8[ 194]   0.5)  3( 12[ 350]   0.9)  4( 16[ 974]   3.5)
  5( 12[ 350]9999.0)
 TTTTTTTTTTTTTTTTTTTTTTTTTTTTTT INT_CALC    TELAPSE        7.51 TCPU        7.50
 EEEEEEEEEE INT_CALC TERMINATION  DATE 19 02 2026 TIME 19:19:59.8

 *******************************************************************************
 cof-1_z44_L070_incl                                                             
 CRYSTAL - SCF - TYPE OF CALCULATION :  RESTRICTED CLOSED SHELL
 *******************************************************************************

 CAPPA:IS1  2;IS2  2;IS3  8; K PTS MONK NET  20; SYMMOPS:K SPACE   2;G SPACE   1

 TTTTTTTTTTTTTTTTTTTTTTTTTTTTTT SDIK        TELAPSE        8.15 TCPU       13.69

 AAAAAAAAAAAAAAAAAAAAAAAAAAAAAAAAAAAAAAAAAAAAAAAAAAAAAAAAAAAAAAAAAAAAAAAAAAAAAAA
         ATOMIC WAVEFUNCTION(S)


 NUCLEAR CHARGE  5.0  SYMMETRY SPECIES            S    P
 N. ELECTRONS    5.0  NUMBER OF PRIMITIVE GTOS    8    4
                      NUMBER OF CONTRACTED GTOS   4    2
                      NUMBER OF CLOSED SHELLS     2    0
                      OPEN SHELL OCCUPATION       0    1

  ZNUC  SCFIT    TOTAL HF ENERGY   KINETIC ENERGY   VIRIAL THEOREM ACCURACY
   5.0    11    -2.451164084E+01  2.462155050E+01 -1.995536038E+00  1.5E-06

 NUCLEAR CHARGE  1.0  SYMMETRY SPECIES            S
 N. ELECTRONS    1.0  NUMBER OF PRIMITIVE GTOS    4
                      NUMBER OF CONTRACTED GTOS   2
                      NUMBER OF CLOSED SHELLS     0
                      OPEN SHELL OCCUPATION       1

  ZNUC  SCFIT    TOTAL HF ENERGY   KINETIC ENERGY   VIRIAL THEOREM ACCURACY
   1.0     1    -4.977266687E-01  5.190767460E-01 -1.958869132E+00  0.0E+00

 NUCLEAR CHARGE  6.0  SYMMETRY SPECIES            S    P
 N. ELECTRONS    6.0  NUMBER OF PRIMITIVE GTOS    8    4
                      NUMBER OF CONTRACTED GTOS   4    2
                      NUMBER OF CLOSED SHELLS     2    0
                      OPEN SHELL OCCUPATION       0    2

  ZNUC  SCFIT    TOTAL HF ENERGY   KINETIC ENERGY   VIRIAL THEOREM ACCURACY
   6.0     9    -3.766704647E+01  3.775180683E+01 -1.997754800E+00  1.1E-06

 NUCLEAR CHARGE  8.0  SYMMETRY SPECIES            S    P
 N. ELECTRONS    8.0  NUMBER OF PRIMITIVE GTOS    8    4
                      NUMBER OF CONTRACTED GTOS   4    2
                      NUMBER OF CLOSED SHELLS     2    0
                      OPEN SHELL OCCUPATION       0    4

  ZNUC  SCFIT    TOTAL HF ENERGY   KINETIC ENERGY   VIRIAL THEOREM ACCURACY
   8.0    12    -7.477373220E+01  7.477365593E+01 -2.000001020E+00  3.8E-06

 AAAAAAAAAAAAAAAAAAAAAAAAAAAAAAAAAAAAAAAAAAAAAAAAAAAAAAAAAAAAAAAAAAAAAAAAAAAAAAA

 CHARGE NORMALIZATION FACTOR   1.00000000
 TOTAL ATOMIC CHARGES:
   5.0000000   5.0000000   5.0000000   5.0000000   5.0000000   5.0000000
   1.0000000   1.0000000   1.0000000   1.0000000   1.0000000   1.0000000
   1.0000000   1.0000000   1.0000000   1.0000000   1.0000000   1.0000000
   6.0000000   6.0000000   6.0000000   6.0000000   6.0000000   6.0000000
   6.0000000   6.0000000   6.0000000   6.0000000   6.0000000   6.0000000
   6.0000000   6.0000000   6.0000000   6.0000000   6.0000000   6.0000000
   8.0000000   8.0000000   8.0000000   8.0000000   8.0000000   8.0000000
 TTTTTTTTTTTTTTTTTTTTTTTTTTTTTT MOQGAD      TELAPSE        8.19 TCPU       14.47
 TTTTTTTTTTTTTTTTTTTTTTTTTTTTTT SHELLXN     TELAPSE       12.90 TCPU      158.77
 TTTTTTTTTTTTTTTTTTTTTTTTTTTTTT MONMO3      TELAPSE       13.03 TCPU      162.72
 NUMERICALLY INTEGRATED DENSITY    197.9999606954
 TTTTTTTTTTTTTTTTTTTTTTTTTTTTTT NUMDFT      TELAPSE       13.58 TCPU      180.48
 CYC   0 ETOT(AU) -1.295953983219E+03 DETOT -1.30E+03 tst  0.00E+00 PX  1.00E+00
 TTTTTTTTTTTTTTTTTTTTTTTTTTTTTT DIIS        TELAPSE       13.63 TCPU      181.83
 TTTTTTTTTTTTTTTTTTTTTTTTTTTTTT FDIK        TELAPSE       14.20 TCPU      200.04
 INSULATING STATE
 TOP OF VALENCE BANDS -    BAND     99; K    1; EIG -3.1415112E-01 AU
 BOTTOM OF VIRTUAL BANDS - BAND    100; K    1; EIG -1.5611489E-01 AU
 DIRECT ENERGY BAND GAP:   4.3004 eV
 TTTTTTTTTTTTTTTTTTTTTTTTTTTTTT PDIG        TELAPSE       14.52 TCPU      206.20
 CHARGE NORMALIZATION FACTOR   1.00000000
 TOTAL ATOMIC CHARGES:
   4.1621228   4.1661622   4.1664267   4.1660060   4.1657503   4.1616925
   0.7850808   0.7851977   0.7850376   0.7851656   0.7852119   0.7853751
   0.7852007   0.7853371   0.7850406   0.7852321   0.7850315   0.7851911
   6.0429092   6.2652078   6.2651773   6.2651098   6.2650788   6.0422456
   6.0439334   6.2651368   6.2652339   6.2650468   6.2652364   6.0427133
   6.0432909   6.2648751   6.2654442   6.2648337   6.2654550   6.0417969
   8.6916124   8.6917701   8.6914414   8.6920576   8.6918610   8.6922701
 TTTTTTTTTTTTTTTTTTTTTTTTTTTTTT MOQGAD      TELAPSE       14.56 TCPU      206.24
 TTTTTTTTTTTTTTTTTTTTTTTTTTTTTT SHELLXN     TELAPSE       19.26 TCPU      355.89
 TTTTTTTTTTTTTTTTTTTTTTTTTTTTTT MONMO3      TELAPSE       19.38 TCPU      359.83
 NUMERICALLY INTEGRATED DENSITY    197.9999821092
 TTTTTTTTTTTTTTTTTTTTTTTTTTTTTT NUMDFT      TELAPSE       19.95 TCPU      378.07
 CYC   1 ETOT(AU) -1.288809571569E+03 DETOT  7.14E+00 tst  0.00E+00 PX  1.00E+00
 TTTTTTTTTTTTTTTTTTTTTTTTTTTTTT DIIS        TELAPSE       20.01 TCPU      379.83
 DIIS TEST: 0.11148E+01 AT SCF   CYCLE   1 - MIX   30 %
 TTTTTTTTTTTTTTTTTTTTTTTTTTTTTT FDIK        TELAPSE       20.59 TCPU      398.35
 INSULATING STATE
 TOP OF VALENCE BANDS -    BAND     99; K    1; EIG -2.2596409E-01 AU
 BOTTOM OF VIRTUAL BANDS - BAND    100; K    1; EIG -8.0093385E-02 AU
 DIRECT ENERGY BAND GAP:   3.9693 eV
 TTTTTTTTTTTTTTTTTTTTTTTTTTTTTT PDIG        TELAPSE       20.91 TCPU      404.52
 CHARGE NORMALIZATION FACTOR   1.00000000
 TOTAL ATOMIC CHARGES:
   4.7172159   4.7086052   4.7089519   4.7088970   4.7086546   4.7177341
   0.9091456   0.9092546   0.9102059   0.9100903   0.9075901   0.9077369
   0.9076414   0.9076478   0.9101541   0.9101576   0.9091835   0.9092265
   5.8676472   6.1377694   6.1382361   6.1315259   6.1316275   5.8701500
   5.8782498   6.1277089   6.1287916   6.1281068   6.1286687   5.8814780
   5.8675990   6.1315393   6.1316634   6.1381522   6.1377187   5.8701264
   8.3337215   8.3340319   8.3301010   8.3336654   8.3296534   8.3339749
 TTTTTTTTTTTTTTTTTTTTTTTTTTTTTT MOQGAD      TELAPSE       20.95 TCPU      404.55
 TTTTTTTTTTTTTTTTTTTTTTTTTTTTTT SHELLXN     TELAPSE       25.66 TCPU      554.34
 TTTTTTTTTTTTTTTTTTTTTTTTTTTTTT MONMO3      TELAPSE       25.79 TCPU      558.31
 NUMERICALLY INTEGRATED DENSITY    197.9999758251
 TTTTTTTTTTTTTTTTTTTTTTTTTTTTTT NUMDFT      TELAPSE       26.36 TCPU      576.59
 CYC   2 ETOT(AU) -1.289005005902E+03 DETOT -1.95E-01 tst  3.66E-03 PX  1.59E-01
 TTTTTTTTTTTTTTTTTTTTTTTTTTTTTT DIIS        TELAPSE       26.42 TCPU      578.38
 DIIS TEST: 0.46135E+00 AT SCF   CYCLE   2 - DIIS ACTIVE - HISTORY:     2 CYCLES
 TTTTTTTTTTTTTTTTTTTTTTTTTTTTTT FDIK        TELAPSE       26.99 TCPU      596.75
 INSULATING STATE
 TOP OF VALENCE BANDS -    BAND     99; K    1; EIG -2.3928978E-01 AU
 BOTTOM OF VIRTUAL BANDS - BAND    100; K    1; EIG -7.4707719E-02 AU
 DIRECT ENERGY BAND GAP:   4.4785 eV
 TTTTTTTTTTTTTTTTTTTTTTTTTTTTTT PDIG        TELAPSE       27.32 TCPU      602.91
 CHARGE NORMALIZATION FACTOR   1.00000000
 TOTAL ATOMIC CHARGES:
   4.5076062   4.5034408   4.5037580   4.5036265   4.5033218   4.5077677
   0.8875402   0.8878108   0.8884062   0.8883621   0.8854641   0.8858789
   0.8855604   0.8857440   0.8883500   0.8884355   0.8876423   0.8876881
   5.8907789   6.1602921   6.1597774   6.1602708   6.1600149   5.8905259
   5.8899761   6.1608918   6.1604463   6.1608193   6.1605736   5.8886752
   5.8908317   6.1602244   6.1601339   6.1600247   6.1599593   5.8904010
   8.5088737   8.5091892   8.5111067   8.5090881   8.5113199   8.5094016
 TTTTTTTTTTTTTTTTTTTTTTTTTTTTTT MOQGAD      TELAPSE       27.35 TCPU      602.95
 TTTTTTTTTTTTTTTTTTTTTTTTTTTTTT SHELLXN     TELAPSE       32.08 TCPU      753.37
 TTTTTTTTTTTTTTTTTTTTTTTTTTTTTT MONMO3      TELAPSE       32.21 TCPU      757.45
 NUMERICALLY INTEGRATED DENSITY    197.9999772685
 TTTTTTTTTTTTTTTTTTTTTTTTTTTTTT NUMDFT      TELAPSE       32.75 TCPU      774.82
 CYC   3 ETOT(AU) -1.289100260540E+03 DETOT -9.53E-02 tst  6.70E-04 PX  6.40E-02
 TTTTTTTTTTTTTTTTTTTTTTTTTTTTTT DIIS        TELAPSE       32.82 TCPU      776.83
 DIIS TEST: 0.13291E-01 AT SCF   CYCLE   3 - DIIS ACTIVE - HISTORY:     3 CYCLES
 TTTTTTTTTTTTTTTTTTTTTTTTTTTTTT FDIK        TELAPSE       33.34 TCPU      793.39
 INSULATING STATE
 TOP OF VALENCE BANDS -    BAND     99; K    1; EIG -2.4885373E-01 AU
 BOTTOM OF VIRTUAL BANDS - BAND    100; K    1; EIG -8.3339547E-02 AU
 DIRECT ENERGY BAND GAP:   4.5039 eV
 TTTTTTTTTTTTTTTTTTTTTTTTTTTTTT PDIG        TELAPSE       33.66 TCPU      799.57
 CHARGE NORMALIZATION FACTOR   1.00000000
 TOTAL ATOMIC CHARGES:
   4.5132642   4.5084031   4.5087319   4.5085002   4.5081777   4.5134179
   0.8703896   0.8705138   0.8714045   0.8713628   0.8688128   0.8689573
   0.8688634   0.8688633   0.8713847   0.8714230   0.8704296   0.8704626
   5.9382598   6.1686534   6.1690491   6.1649134   6.1650500   5.9398827
   5.9445762   6.1632186   6.1641705   6.1634655   6.1640473   5.9465498
   5.9384292   6.1647420   6.1652494   6.1687977   6.1688144   5.9396433
   8.4774199   8.4776536   8.4744759   8.4775155   8.4742949   8.4777654
 TTTTTTTTTTTTTTTTTTTTTTTTTTTTTT MOQGAD      TELAPSE       33.70 TCPU      799.61
 TTTTTTTTTTTTTTTTTTTTTTTTTTTTTT SHELLXN     TELAPSE       38.41 TCPU      949.56
 TTTTTTTTTTTTTTTTTTTTTTTTTTTTTT MONMO3      TELAPSE       38.53 TCPU      953.46
 NUMERICALLY INTEGRATED DENSITY    197.9999775211
 TTTTTTTTTTTTTTTTTTTTTTTTTTTTTT NUMDFT      TELAPSE       39.09 TCPU      971.13
 CYC   4 ETOT(AU) -1.289103050749E+03 DETOT -2.79E-03 tst  2.81E-05 PX  1.35E-02
 TTTTTTTTTTTTTTTTTTTTTTTTTTTTTT DIIS        TELAPSE       39.15 TCPU      973.17
 DIIS TEST: 0.39927E-02 AT SCF   CYCLE   4 - DIIS ACTIVE - HISTORY:     4 CYCLES
 TTTTTTTTTTTTTTTTTTTTTTTTTTTTTT FDIK        TELAPSE       39.71 TCPU      991.24
 INSULATING STATE
 TOP OF VALENCE BANDS -    BAND     99; K    1; EIG -2.4703594E-01 AU
 BOTTOM OF VIRTUAL BANDS - BAND    100; K    1; EIG -8.3006434E-02 AU
 DIRECT ENERGY BAND GAP:   4.4635 eV
 TTTTTTTTTTTTTTTTTTTTTTTTTTTTTT PDIG        TELAPSE       40.04 TCPU      997.41
 CHARGE NORMALIZATION FACTOR   1.00000000
 TOTAL ATOMIC CHARGES:
   4.5161693   4.5102771   4.5106261   4.5105079   4.5101935   4.5164500
   0.8735522   0.8737866   0.8744765   0.8744576   0.8716782   0.8720244
   0.8717573   0.8719033   0.8744289   0.8745329   0.8736318   0.8736954
   5.9207390   6.1680748   6.1677754   6.1657363   6.1654490   5.9209549
   5.9245294   6.1649041   6.1647778   6.1649161   6.1648772   5.9241618
   5.9207504   6.1656774   6.1655624   6.1679312   6.1678266   5.9208566
   8.4865054   8.4868255   8.4866884   8.4866478   8.4867105   8.4869729
 TTTTTTTTTTTTTTTTTTTTTTTTTTTTTT MOQGAD      TELAPSE       40.07 TCPU      997.45
 TTTTTTTTTTTTTTTTTTTTTTTTTTTTTT SHELLXN     TELAPSE       44.79 TCPU     1147.50
 TTTTTTTTTTTTTTTTTTTTTTTTTTTTTT MONMO3      TELAPSE       44.92 TCPU     1151.46
 NUMERICALLY INTEGRATED DENSITY    197.9999775391
 TTTTTTTTTTTTTTTTTTTTTTTTTTTTTT NUMDFT      TELAPSE       45.48 TCPU     1169.41
 CYC   5 ETOT(AU) -1.289103965329E+03 DETOT -9.15E-04 tst  6.91E-06 PX  6.57E-03
 TTTTTTTTTTTTTTTTTTTTTTTTTTTTTT DIIS        TELAPSE       45.55 TCPU     1171.68
 DIIS TEST: 0.63411E-04 AT SCF   CYCLE   5 - DIIS ACTIVE - HISTORY:     5 CYCLES
 TTTTTTTTTTTTTTTTTTTTTTTTTTTTTT FDIK        TELAPSE       46.11 TCPU     1189.71
 INSULATING STATE
 TOP OF VALENCE BANDS -    BAND     99; K    1; EIG -2.4687434E-01 AU
 BOTTOM OF VIRTUAL BANDS - BAND    100; K    1; EIG -8.2430626E-02 AU
 DIRECT ENERGY BAND GAP:   4.4747 eV
 TTTTTTTTTTTTTTTTTTTTTTTTTTTTTT PDIG        TELAPSE       46.43 TCPU     1195.88
 CHARGE NORMALIZATION FACTOR   1.00000000
 TOTAL ATOMIC CHARGES:
   4.5155279   4.5104018   4.5107336   4.5104973   4.5101928   4.5156586
   0.8744422   0.8745940   0.8753627   0.8752952   0.8726593   0.8728533
   0.8727122   0.8727589   0.8753299   0.8753549   0.8744913   0.8745327
   5.9201628   6.1674577   6.1676806   6.1649751   6.1651599   5.9214904
   5.9233645   6.1640645   6.1648209   6.1642768   6.1647122   5.9246651
   5.9203436   6.1648334   6.1653519   6.1675281   6.1675194   5.9212300
   8.4864684   8.4867017   8.4851909   8.4866060   8.4851497   8.4868480
 TTTTTTTTTTTTTTTTTTTTTTTTTTTTTT MOQGAD      TELAPSE       46.47 TCPU     1195.92
 TTTTTTTTTTTTTTTTTTTTTTTTTTTTTT SHELLXN     TELAPSE       51.18 TCPU     1345.71
 TTTTTTTTTTTTTTTTTTTTTTTTTTTTTT MONMO3      TELAPSE       51.30 TCPU     1349.66
 NUMERICALLY INTEGRATED DENSITY    197.9999775090
 TTTTTTTTTTTTTTTTTTTTTTTTTTTTTT NUMDFT      TELAPSE       51.86 TCPU     1367.51
 CYC   6 ETOT(AU) -1.289103984031E+03 DETOT -1.87E-05 tst  1.70E-07 PX  9.81E-04
 TTTTTTTTTTTTTTTTTTTTTTTTTTTTTT DIIS        TELAPSE       51.95 TCPU     1370.23
 DIIS TEST: 0.50216E-05 AT SCF   CYCLE   6 - DIIS ACTIVE - HISTORY:     6 CYCLES
 TTTTTTTTTTTTTTTTTTTTTTTTTTTTTT FDIK        TELAPSE       52.51 TCPU     1388.28
 INSULATING STATE
 TOP OF VALENCE BANDS -    BAND     99; K    1; EIG -2.4685368E-01 AU
 BOTTOM OF VIRTUAL BANDS - BAND    100; K    1; EIG -8.2519019E-02 AU
 DIRECT ENERGY BAND GAP:   4.4718 eV
 TTTTTTTTTTTTTTTTTTTTTTTTTTTTTT PDIG        TELAPSE       52.84 TCPU     1394.46
 CHARGE NORMALIZATION FACTOR   1.00000000
 TOTAL ATOMIC CHARGES:
   4.5159176   4.5103103   4.5106550   4.5105435   4.5102277   4.5161869
   0.8743952   0.8746236   0.8753362   0.8753243   0.8725365   0.8728831
   0.8726186   0.8727585   0.8752903   0.8753976   0.8744767   0.8745302
   5.9208964   6.1674248   6.1671513   6.1650761   6.1647386   5.9210963
   5.9247137   6.1642145   6.1640798   6.1642125   6.1641912   5.9244120
   5.9208962   6.1650066   6.1648603   6.1672761   6.1672089   5.9210137
   8.4861307   8.4864564   8.4860273   8.4862754   8.4860213   8.4866081
 TTTTTTTTTTTTTTTTTTTTTTTTTTTTTT MOQGAD      TELAPSE       52.88 TCPU     1394.50
 TTTTTTTTTTTTTTTTTTTTTTTTTTTTTT SHELLXN     TELAPSE       57.58 TCPU     1544.18
 TTTTTTTTTTTTTTTTTTTTTTTTTTTTTT MONMO3      TELAPSE       57.70 TCPU     1548.14
 NUMERICALLY INTEGRATED DENSITY    197.9999775107
 TTTTTTTTTTTTTTTTTTTTTTTTTTTTTT NUMDFT      TELAPSE       58.26 TCPU     1565.90
 CYC   7 ETOT(AU) -1.289103984266E+03 DETOT -2.36E-07 tst  1.53E-08 PX  3.50E-04
 TTTTTTTTTTTTTTTTTTTTTTTTTTTTTT DIIS        TELAPSE       58.35 TCPU     1568.92
 DIIS TEST: 0.11645E-05 AT SCF   CYCLE   7 - DIIS ACTIVE - HISTORY:     7 CYCLES
 TTTTTTTTTTTTTTTTTTTTTTTTTTTTTT FDIK        TELAPSE       58.93 TCPU     1587.14
 INSULATING STATE
 TOP OF VALENCE BANDS -    BAND     99; K    1; EIG -2.4686514E-01 AU
 BOTTOM OF VIRTUAL BANDS - BAND    100; K    1; EIG -8.2521636E-02 AU
 DIRECT ENERGY BAND GAP:   4.4720 eV
 TTTTTTTTTTTTTTTTTTTTTTTTTTTTTT PDIG        TELAPSE       59.25 TCPU     1593.31
 CHARGE NORMALIZATION FACTOR   1.00000000
 TOTAL ATOMIC CHARGES:
   4.5159066   4.5104142   4.5107530   4.5105710   4.5102616   4.5161086
   0.8743811   0.8745725   0.8753185   0.8752705   0.8725527   0.8728177
   0.8726175   0.8727108   0.8752783   0.8753382   0.8744447   0.8744970
   5.9204998   6.1674121   6.1673858   6.1649496   6.1649301   5.9213249
   5.9240956   6.1640669   6.1644117   6.1641915   6.1643954   5.9246126
   5.9206083   6.1648495   6.1650819   6.1673863   6.1673202   5.9211344
   8.4863072   8.4865793   8.4857417   8.4864434   8.4857350   8.4867223
 TTTTTTTTTTTTTTTTTTTTTTTTTTTTTT MOQGAD      TELAPSE       59.29 TCPU     1593.35
 TTTTTTTTTTTTTTTTTTTTTTTTTTTTTT SHELLXN     TELAPSE       63.97 TCPU     1742.55
 +++ ENERGIES IN A.U. +++
 ::: EXT EL-POLE                                  -1.2126561848318E+03
 ::: EXT EL-SPHEROPOLE                             1.2984504796355E+01
 ::: BIELET ZONE E-E                               1.9370511839388E+03
 ::: TOTAL E-E                                     7.3737950390331E+02
 ::: TOTAL E-N + N-E                              -3.3070079846078E+03
 ::: TOTAL N-N                                     1.3429082608151E+02
 ::: KINETIC ENERGY                                1.2799551579258E+03
 ::: PSEUDO TOTAL   ENERGY                        -1.1553824966973E+03
 ::: VIRIAL COEFFICIENT                            1.0511521106702E+00
 TTTTTTTTTTTTTTTTTTTTTTTTTTTTTT MONMO3      TELAPSE       64.10 TCPU     1746.49
 NUMERICALLY INTEGRATED DENSITY    197.9999775103
 EXCHANGE ENERGY: -0.126031787573E+03  CORRELATION ENERGY: -0.768970023859E+01
 TTTTTTTTTTTTTTTTTTTTTTTTTTTTTT NUMDFT      TELAPSE       64.63 TCPU     1763.62
 CYC   8 ETOT(AU) -1.289103984509E+03 DETOT -2.42E-07 tst  4.08E-09 PX  3.50E-04

 == SCF ENDED - CONVERGENCE ON ENERGY      E(AU) -1.2891039845087E+03 CYCLES   8


 ENERGY EXPRESSION=HARTREE+FOCK EXCH*0.00000+(HSESOL     EXCH)*1.00000+PBESOL     CORR


 TOTAL ENERGY(DFT)(AU)(  8) -1.2891039845087E+03 DE-2.4E-07 tester 4.1E-09
 TTTTTTTTTTTTTTTTTTTTTTTTTTTTTT EDFT        TELAPSE       64.63 TCPU     1763.63
 
 INFORMATION **** DFTD3 ENERGY **** CALCULATE DFTD3 ENERGY

           DFT-D V3(BJ)
 DF                                         hsesol3c  
 parameters
 s6       :    1.0000
 s8       :    0.0000
 a1       :    0.5196
 a2       :    4.9385
 k1 k3    :   16.0000   -4.0000
 Cutoff   :   50.2022
 CN-Cutoff:   21.1671
 ABC-Cutoff:   21.1671
 
 Edisp /kcal,au:   -21.3756 -0.03406416

 E6    /kcal :   -22.3281
 E8    /kcal :     0.0000
 E6(ABC) "   :   0.952557
 
 INFORMATION **** DFTD3 ENERGY **** NORMAL TERMINATION OF DFTD3 MODULE

 GCP ENERGY CALCULATION
  level        hsesol3c            basis:hsesol3c
  Nbf            474
  Atoms           42

  Parameters: 
  sigma     1.0000
  eta       1.4281
  alpha     0.2936
  beta      1.9467

  dmp_scal      4.0000
  dmp_exp       6.0000
 cutoffs: 
   distance [bohr] 60.0
   noise    [a.u.] 2.2E-16
 SR-damping   T
 ** gCP correction **
  Egcp:        0.0829207560 / (a.u.) ||      52.0336 / (kcal/mol)
 INFORMATION **** GCP **** NORMAL TERMINATION OF GCP MODULE

 *******************************************************************************

 DFT-D3-GCP DISPERSION AND COUNTERPOISE CORRECTION

 D3 DISPERSION ENERGY (AU)      -3.4064157203171E-02
 GCP ENERGY (AU)                 8.2920755978648E-02
 TOTAL ENERGY + DISP + GCP (AU) -1.2890551279100E+03

 *******************************************************************************

 EIGENVECTORS IN FORTRAN UNIT  8
 TTTTTTTTTTTTTTTTTTTTTTTTTTTTTT END         TELAPSE       65.84 TCPU     1770.78
 EEEEEEEEEE TERMINATION  DATE 19 02 2026 TIME 19:20:58.1
