 Default number of threads is:           32

         
 *******************************************************************************
 *                                                                             *
 *                               CRYSTAL23                                     *
 *                      public : 1.0.1 - October 2022                          *
 *                       HTTP://WWW.CRYSTAL.UNITO.IT                           *
 *                                                                             *
 *                              MAIN AUTHORS                                   *
 *                                                                             *
 *  R. DOVESI(1,11), V.R. SAUNDERS(2), C. ROETTI(1,11), R. ORLANDO(1,11),      *
 *  C.M. ZICOVICH-WILSON(1,3), F. PASCALE(4), B. CIVALLERI(1,11),              *
 *  K. DOLL(5), N.M. HARRISON(6), I.J. BUSH(7), Ph. D'ARCO(8),                 *
 *  M. LLUNELL(9), M. CAUSA'(10), Y. NOEL(8), L. MASCHIO(1,11), A. ERBA(1,11)  *
 *  M. RE'RAT(14), S. CASASSA(1,11), B.G. SEARLE(2), J.K. DESMARAIS(1)         *
 *                                                                             *
 *        CONTRIBUTIONS TO THE CODE HAVE ALSO BEEN GIVEN BY                    *
 *                                                                             *
 *  M. FERRABONE(1,11), M. DE LA PIERRE(1,11), M. FERRERO(1,11),               *
 *  J. BAIMA(1,11), E. ALBANESE(1,11), M.F. PEINTINGER(12), R. BAST(13),       *
 *  B. KIRTMAN(15), V. LACIVITA(1,11), R. DEMICHELIS(1,16)                     *
 *  G. BRANDEBURG(17), S. SALUSTRO(1,11), G. SANSONE(1,11)                     *
 *  M.T. RUGGIERO(18), L.E. DAGA(1), L. DONA'(1), A. COSSARD(1)                *
 *                                                                             *
 * (1) THEORETICAL CHEMISTRY GROUP - UNIVERSITA' DI TORINO - TORINO (ITALY)    *
 * (2) SCIENTIFIC COMPUTING DEPARTMENT - STFC DARESBURY (UK)                   *
 * (3) UNIVERSIDAD AUTONOMA DEL ESTADO DE MORELOS - CUERNAVACA (MEXICO)        *
 * (4) UNIVERSITE' DE LORRAINE - NANCY (FRANCE)                                *
 * (5) UNIVERSITAET STUTTGART- STUTTGART (GERMANY)                             *
 * (6) IMPERIAL COLLEGE - LONDON (UK)                                          *
 * (7) SCIENTIFIC COMPUTING DEPARTMENT - STFC RAL (UK)                         *
 * (8) UPMC - SORBONNE UNIVERSITES - PARIS (FRANCE)                            *
 * (9) UNIVERSIDAD DE BARCELONA - BARCELONA (SPAIN)                            *
 *(10) UNIVERSITA' DI NAPOLI "FEDERICO II" - NAPOLI (ITALY)                    *
 *(11) NIS - NANOSTRUCTURED INTERFACES AND SURFACES - TORINO (ITALY)           *
 *(12) MPI FUER CHEMISCHE ENERGIEKONVERSION - MUELHEIM AN DER RUHR (GERMANY)   *
 *(13) UNIVERSITY OF TROMSO - TROMSO (NORWAY)                                  *
 *(14) UNIVERSITE' DE PAU ET DES PAYS DE L'ADOUR - PAU (FRANCE)                *
 *(15) UNIVERSITY OF CALIFORNIA SANTA BARBARA - SANTA BARBARA (USA)            *
 *(16) CURTIN UNIVERSITY - PERTH (AUSTRALIA)                                   *
 *(17) UNIVERSITY COLLEGE LONDON - LONDON (UK)                                 *
 *(18) UNIVERSITY OF VERMONT - BURLINGTON (USA)                                *
 *                                                                             *
 *******************************************************************************
 EEEEEEEEEE STARTING  DATE 02 12 2025 TIME 07:53:32.2
 COF-5_z30_inc_L060                                                              

 CRYSTAL CALCULATION
 (INPUT ACCORDING TO THE INTERNATIONAL TABLES FOR X-RAY CRYSTALLOGRAPHY)
 CRYSTAL FAMILY                       :  TRICLINIC   
 CRYSTAL CLASS  (GROTH - 1921)        :  TRICLINIC PEDIAL                     

 SPACE GROUP (NONCENTROSYMMETRIC)     :  P 1             

 LATTICE PARAMETERS  (ANGSTROMS AND DEGREES) - CONVENTIONAL CELL
        A           B           C        ALPHA        BETA       GAMMA
    15.02070    15.04439     6.70820    39.27142    89.99968   120.05310


 NUMBER OF IRREDUCIBLE ATOMS IN THE CONVENTIONAL CELL:   42

 INPUT COORDINATES

 ATOM AT. N.              COORDINATES
   1   5     4.999174400000E-01 -2.588400000000E-03  5.006106100000E-01
   2   5     6.586945300000E-01  1.564337200000E-01  5.006206000000E-01
   3   5     4.997932800000E-01  1.567799400000E-01  4.991907500000E-01
   4   5     1.119828500000E-01  3.814863600000E-01  5.054052000000E-01
   5   5     2.696229200000E-01  3.791224200000E-01  5.094487500000E-01
   6   5     2.712741000000E-01  5.412094400000E-01  5.034836200000E-01
   7   1     7.878215300000E-01  7.708904000000E-02  5.045086800000E-01
   8   1    -1.505207000000E-02  4.643203800000E-01  4.929193400000E-01
   9   1     7.905976100000E-01  3.670846200000E-01  4.927810500000E-01
  10   1    -1.763938000000E-02  1.745015700000E-01  5.040772900000E-01
  11   1     4.778718700000E-01  6.709120900000E-01  5.041993500000E-01
  12   1     2.939620000000E-01 -1.292356100000E-01  4.945514200000E-01
  13   1     1.953197100000E-01  6.764504600000E-01  4.958581600000E-01
  14   1     5.764035800000E-01 -1.345403300000E-01  5.023381800000E-01
  15   1     4.789586300000E-01  4.612170500000E-01  4.977554700000E-01
  16   1     2.897341700000E-01  7.578765000000E-02  5.060379000000E-01
  17   1     1.924544400000E-01  1.718772200000E-01  5.056730500000E-01
  18   1     5.765343200000E-01  3.649277500000E-01  4.986888400000E-01
  19   6     7.780448100000E-01  2.159779900000E-01  5.003706300000E-01
  20   6     8.321608900000E-01  1.619878300000E-01  5.021365700000E-01
  21   6    -5.934466000000E-02  3.792695000000E-01  4.957442200000E-01
  22   6     8.335989400000E-01  3.255892600000E-01  4.960813500000E-01
  23   6    -6.065972000000E-02  2.158493500000E-01  5.014929200000E-01
  24   6    -5.653870000000E-03  3.245273400000E-01  4.993098400000E-01
  25   6     3.306142700000E-01  6.613373200000E-01  5.018519700000E-01
  26   6     4.383973600000E-01  7.156396000000E-01  5.022421100000E-01
  27   6     3.331572300000E-01 -1.743843700000E-01  4.969662000000E-01
  28   6     2.787804000000E-01  7.181450100000E-01  4.980847700000E-01
  29   6     4.928128400000E-01 -1.768316200000E-01  5.008048300000E-01
  30   6     4.405087200000E-01 -1.210900500000E-01  4.991807100000E-01
  31   6     3.306540600000E-01  3.231593300000E-01  4.999518600000E-01
  32   6     4.386306900000E-01  3.766684000000E-01  4.994004300000E-01
  33   6     3.307477500000E-01  1.605548600000E-01  5.039235700000E-01
  34   6     2.769867800000E-01  2.138805600000E-01  5.033156800000E-01
  35   6     4.922274800000E-01  3.231715500000E-01  5.003387100000E-01
  36   6     4.391858800000E-01  2.148760900000E-01  5.015804500000E-01
  37   8     4.470387600000E-01  5.070164000000E-02  4.995805900000E-01
  38   8     6.055072300000E-01  4.962127000000E-02  5.025703700000E-01
  39   8     6.061601400000E-01  2.104474000000E-01  4.980510500000E-01
  40   8     1.654427600000E-01  4.885866400000E-01  5.027170300000E-01
  41   8     1.634726000000E-01  3.260752200000E-01  5.102041300000E-01
  42   8     3.236800600000E-01  4.871582100000E-01  5.051885500000E-01

 *******************************************************************************

 << INFORMATION >>: FROM NOW ON, ALL COORDINATES REFER TO THE PRIMITIVE CELL

 *******************************************************************************

 LATTICE PARAMETERS  (ANGSTROMS AND DEGREES) - PRIMITIVE CELL
       A          B          C        ALPHA      BETA     GAMMA        VOLUME
   15.02070   15.04439    6.70820    39.27142  89.99968 120.05310    586.861434

 COORDINATES OF THE EQUIVALENT ATOMS (FRACTIONAL UNITS)

 N. ATOM EQUIV AT. N.          X                  Y                  Z

   1   1   1    5 B     4.99917440000E-01 -2.58840000000E-03 -4.99389390000E-01

   2   2   1    5 B    -3.41305470000E-01  1.56433720000E-01 -4.99379400000E-01

   3   3   1    5 B     4.99793280000E-01  1.56779940000E-01  4.99190750000E-01

   4   4   1    5 B     1.11982850000E-01  3.81486360000E-01 -4.94594800000E-01

   5   5   1    5 B     2.69622920000E-01  3.79122420000E-01 -4.90551250000E-01

   6   6   1    5 B     2.71274100000E-01 -4.58790560000E-01 -4.96516380000E-01

   7   7   1    1 H    -2.12178470000E-01  7.70890400000E-02 -4.95491320000E-01

   8   8   1    1 H    -1.50520700000E-02  4.64320380000E-01  4.92919340000E-01

   9   9   1    1 H    -2.09402390000E-01  3.67084620000E-01  4.92781050000E-01

  10  10   1    1 H    -1.76393800000E-02  1.74501570000E-01 -4.95922710000E-01

  11  11   1    1 H     4.77871870000E-01 -3.29087910000E-01 -4.95800650000E-01

  12  12   1    1 H     2.93962000000E-01 -1.29235610000E-01  4.94551420000E-01

  13  13   1    1 H     1.95319710000E-01 -3.23549540000E-01  4.95858160000E-01

  14  14   1    1 H    -4.23596420000E-01 -1.34540330000E-01 -4.97661820000E-01

  15  15   1    1 H     4.78958630000E-01  4.61217050000E-01  4.97755470000E-01

  16  16   1    1 H     2.89734170000E-01  7.57876500000E-02 -4.93962100000E-01

  17  17   1    1 H     1.92454440000E-01  1.71877220000E-01 -4.94326950000E-01

  18  18   1    1 H    -4.23465680000E-01  3.64927750000E-01  4.98688840000E-01

  19  19   1    6 C    -2.21955190000E-01  2.15977990000E-01 -4.99629370000E-01

  20  20   1    6 C    -1.67839110000E-01  1.61987830000E-01 -4.97863430000E-01

  21  21   1    6 C    -5.93446600000E-02  3.79269500000E-01  4.95744220000E-01

  22  22   1    6 C    -1.66401060000E-01  3.25589260000E-01  4.96081350000E-01

  23  23   1    6 C    -6.06597200000E-02  2.15849350000E-01 -4.98507080000E-01

  24  24   1    6 C    -5.65387000000E-03  3.24527340000E-01  4.99309840000E-01

  25  25   1    6 C     3.30614270000E-01 -3.38662680000E-01 -4.98148030000E-01

  26  26   1    6 C     4.38397360000E-01 -2.84360400000E-01 -4.97757890000E-01

  27  27   1    6 C     3.33157230000E-01 -1.74384370000E-01  4.96966200000E-01

  28  28   1    6 C     2.78780400000E-01 -2.81854990000E-01  4.98084770000E-01

  29  29   1    6 C     4.92812840000E-01 -1.76831620000E-01 -4.99195170000E-01

  30  30   1    6 C     4.40508720000E-01 -1.21090050000E-01  4.99180710000E-01

  31  31   1    6 C     3.30654060000E-01  3.23159330000E-01  4.99951860000E-01

  32  32   1    6 C     4.38630690000E-01  3.76668400000E-01  4.99400430000E-01

  33  33   1    6 C     3.30747750000E-01  1.60554860000E-01 -4.96076430000E-01

  34  34   1    6 C     2.76986780000E-01  2.13880560000E-01 -4.96684320000E-01

  35  35   1    6 C     4.92227480000E-01  3.23171550000E-01 -4.99661290000E-01

  36  36   1    6 C     4.39185880000E-01  2.14876090000E-01 -4.98419550000E-01

  37  37   1    8 O     4.47038760000E-01  5.07016400000E-02  4.99580590000E-01

  38  38   1    8 O    -3.94492770000E-01  4.96212700000E-02 -4.97429630000E-01

  39  39   1    8 O    -3.93839860000E-01  2.10447400000E-01  4.98051050000E-01

  40  40   1    8 O     1.65442760000E-01  4.88586640000E-01 -4.97282970000E-01

  41  41   1    8 O     1.63472600000E-01  3.26075220000E-01 -4.89795870000E-01

  42  42   1    8 O     3.23680060000E-01  4.87158210000E-01 -4.94811450000E-01

 NUMBER OF SYMMETRY OPERATORS         :    1
 *******************************************************************************
 * GEOMETRY EDITING - INPUT COORDINATES ARE GIVEN IN ANGSTROM         
 *******************************************************************************

 GCALCO - MAX INDICES DIRECT LATTICE VECTOR     8    14    27
 NO.OF VECTORS CREATED 6999 STARS 3500 RMAX   198.41885 BOHR

 GEOMETRY FOR WAVE FUNCTION - DIMENSIONALITY OF THE SYSTEM    3
 (NON PERIODIC DIRECTION: LATTICE PARAMETER FORMALLY SET TO 500)
 *******************************************************************************
 LATTICE PARAMETERS (ANGSTROMS AND DEGREES) - BOHR = 0.5291772083 ANGSTROM
 PRIMITIVE CELL - CENTRING CODE 1/0 VOLUME=   586.861434 - DENSITY  1.104 g/cm^3
         A              B              C           ALPHA      BETA       GAMMA 
    15.02070100    15.04438700     6.70820400    39.271421  89.999681 120.053104
 *******************************************************************************
 ATOMS IN THE ASYMMETRIC UNIT   42 - ATOMS IN THE UNIT CELL:   42
     ATOM                 X/A                 Y/B                 Z/C    
 *******************************************************************************
      1 T   5 B     4.999174400000E-01 -2.588400000000E-03 -4.993893900000E-01
      2 T   5 B    -3.413054700000E-01  1.564337200000E-01 -4.993794000000E-01
      3 T   5 B     4.997932800000E-01  1.567799400000E-01  4.991907500000E-01
      4 T   5 B     1.119828500000E-01  3.814863600000E-01 -4.945948000000E-01
      5 T   5 B     2.696229200000E-01  3.791224200000E-01 -4.905512500000E-01
      6 T   5 B     2.712741000000E-01 -4.587905600000E-01 -4.965163800000E-01
      7 T   1 H    -2.121784700000E-01  7.708904000000E-02 -4.954913200000E-01
      8 T   1 H    -1.505207000000E-02  4.643203800000E-01  4.929193400000E-01
      9 T   1 H    -2.094023900000E-01  3.670846200000E-01  4.927810500000E-01
     10 T   1 H    -1.763938000000E-02  1.745015700000E-01 -4.959227100000E-01
     11 T   1 H     4.778718700000E-01 -3.290879100000E-01 -4.958006500000E-01
     12 T   1 H     2.939620000000E-01 -1.292356100000E-01  4.945514200000E-01
     13 T   1 H     1.953197100000E-01 -3.235495400000E-01  4.958581600000E-01
     14 T   1 H    -4.235964200000E-01 -1.345403300000E-01 -4.976618200000E-01
     15 T   1 H     4.789586300000E-01  4.612170500000E-01  4.977554700000E-01
     16 T   1 H     2.897341700000E-01  7.578765000000E-02 -4.939621000000E-01
     17 T   1 H     1.924544400000E-01  1.718772200000E-01 -4.943269500000E-01
     18 T   1 H    -4.234656800000E-01  3.649277500000E-01  4.986888400000E-01
     19 T   6 C    -2.219551900000E-01  2.159779900000E-01 -4.996293700000E-01
     20 T   6 C    -1.678391100000E-01  1.619878300000E-01 -4.978634300000E-01
     21 T   6 C    -5.934466000000E-02  3.792695000000E-01  4.957442200000E-01
     22 T   6 C    -1.664010600000E-01  3.255892600000E-01  4.960813500000E-01
     23 T   6 C    -6.065972000000E-02  2.158493500000E-01 -4.985070800000E-01
     24 T   6 C    -5.653870000000E-03  3.245273400000E-01  4.993098400000E-01
     25 T   6 C     3.306142700000E-01 -3.386626800000E-01 -4.981480300000E-01
     26 T   6 C     4.383973600000E-01 -2.843604000000E-01 -4.977578900000E-01
     27 T   6 C     3.331572300000E-01 -1.743843700000E-01  4.969662000000E-01
     28 T   6 C     2.787804000000E-01 -2.818549900000E-01  4.980847700000E-01
     29 T   6 C     4.928128400000E-01 -1.768316200000E-01 -4.991951700000E-01
     30 T   6 C     4.405087200000E-01 -1.210900500000E-01  4.991807100000E-01
     31 T   6 C     3.306540600000E-01  3.231593300000E-01  4.999518600000E-01
     32 T   6 C     4.386306900000E-01  3.766684000000E-01  4.994004300000E-01
     33 T   6 C     3.307477500000E-01  1.605548600000E-01 -4.960764300000E-01
     34 T   6 C     2.769867800000E-01  2.138805600000E-01 -4.966843200000E-01
     35 T   6 C     4.922274800000E-01  3.231715500000E-01 -4.996612900000E-01
     36 T   6 C     4.391858800000E-01  2.148760900000E-01 -4.984195500000E-01
     37 T   8 O     4.470387600000E-01  5.070164000000E-02  4.995805900000E-01
     38 T   8 O    -3.944927700000E-01  4.962127000000E-02 -4.974296300000E-01
     39 T   8 O    -3.938398600000E-01  2.104474000000E-01  4.980510500000E-01
     40 T   8 O     1.654427600000E-01  4.885866400000E-01 -4.972829700000E-01
     41 T   8 O     1.634726000000E-01  3.260752200000E-01 -4.897958700000E-01
     42 T   8 O     3.236800600000E-01  4.871582100000E-01 -4.948114500000E-01

 T = ATOM BELONGING TO THE ASYMMETRIC UNIT

 ****    1 SYMMOPS - TRANSLATORS IN FRACTIONAL UNITS
 **** MATRICES AND TRANSLATORS IN THE CRYSTALLOGRAPHIC REFERENCE FRAME
   V INV                    ROTATION MATRICES                   TRANSLATORS
   1   1  1.00  0.00  0.00  0.00  1.00  0.00  0.00 -0.00  1.00  0.00  0.00  0.00

 DIRECT LATTICE VECTORS CARTESIAN COMPONENTS (ANGSTROM)
          X                    Y                    Z
   0.130013421718E+02  -0.752240388864E+01   0.000000000000E+00
   0.000000000000E+00   0.150443870000E+02   0.000000000000E+00
   0.300475775765E+01   0.519319665983E+01   0.300035667476E+01


 CARTESIAN COORDINATES - PRIMITIVE CELL
 *******************************************************************************
 *      ATOM          X(ANGSTROM)         Y(ANGSTROM)         Z(ANGSTROM)
 *******************************************************************************
    1     5 B     1.994295793735E+00  3.458241242103E+00 -4.498702964356E+00
    2     5 B    -5.937943326729E+00  2.327511586205E+00 -1.498316316029E+00
    3     5 B    -1.998653687080E+00 -1.137379537804E+00  4.498106973506E+00
    4     5 B    -3.021021197340E-02  2.328320145431E+00 -1.483960809483E+00
    5     5 B     2.031472166310E+00  1.127922792007E+00 -1.471828717251E+00
    6     5 B     2.035015951834E+00  3.523023712519E+00 -1.489726234862E+00
    7     1 H    -4.247436277572E+00  1.826656310345E-01 -1.486650689249E+00
    8     1 H    -1.719351659353E+00  4.465273648831E+00 -1.521422842874E+00
    9     1 H     1.762933316485E+00 -1.943089994296E-01  4.478875587328E+00
   10     1 H    -1.719463225146E+00  1.825355307877E-01 -1.487945013115E+00
   11     1 H     1.718457089149E+00 -1.269271027571E+00 -4.487935464343E+00
   12     1 H     5.307907763301E+00 -1.587268640477E+00  1.483830654011E+00
   13     1 H     4.029352035556E+00 -3.761789299204E+00  1.487751340092E+00
   14     1 H     2.993909200633E+00  9.067173155762E-01 -4.493519638175E+00
   15     1 H     4.717981886999E+00  7.275529147745E-01 -1.506912727949E+00
   16     1 H     2.282696631064E+00 -3.604561038462E+00 -1.482062483815E+00
   17     1 H     1.016833289089E+00 -1.429069679282E+00 -1.483157163948E+00
   18     1 H    -1.002425285388E+00  1.414193053988E+00  4.496601064487E+00
   19     6 C    -4.386980597449E+00  2.324219473966E+00 -1.499066315187E+00
   20     6 C    -3.678092702459E+00  1.114058475814E+00 -1.493767865321E+00
   21     6 C    -2.286726697523E+00  3.533592204055E+00 -1.512947195311E+00
   22     6 C     2.331924923684E+00 -1.124915519046E+00  4.488777664461E+00
   23     6 C    -2.286550791638E+00  1.114782765953E+00 -1.495699044895E+00
   24     6 C    -1.577960540904E+00  2.324663122193E+00 -1.502249063544E+00
   25     6 C    -2.031426641108E-01 -3.177768359906E-01 -4.494978441594E+00
   26     6 C     1.199354445502E+00 -3.095941822892E-01 -4.493807882441E+00
   27     6 C     5.824754188971E+00 -2.548805981625E+00  1.491075855302E+00
   28     6 C     5.121143447809E+00 -3.750782148603E+00  1.494431964267E+00
   29     6 C     1.902510042193E+00  8.913111016191E-01 -4.498120235082E+00
   30     6 C    -2.769462704911E+00 -4.871852938064E+00  4.498076849925E+00
   31     6 C     2.796423046682E+00 -2.224276939601E-01 -1.500322774552E+00
   32     6 C     4.198607246297E+00 -2.325240426986E-01 -1.501977261233E+00
   33     6 C     2.809575168864E+00 -2.648791171485E+00 -1.488406227943E+00
   34     6 C     2.108783840214E+00 -1.445283866171E+00 -1.490230114762E+00
   35     6 C     4.898256756505E+00 -1.435655386332E+00 -1.499162086572E+00
   36     6 C     4.212375893464E+00 -2.659445258795E+00 -1.495436423675E+00
   37     8 O    -2.683361877943E+00 -2.334397213129E+00  4.499276632552E+00
   38     8 O     3.372993387434E+00  3.459592094914E+00 -4.492822985359E+00
   39     8 O    -6.191662668988E-01 -1.136038667777E+00  4.494687467004E+00
   40     8 O     6.567630707474E-01  3.523470975224E+00 -1.492026278286E+00
   41     8 O     6.536452682616E-01  1.132288602782E+00 -1.469562307826E+00
   42     8 O     2.721486671278E+00  2.324491330062E+00 -1.484610836757E+00

 *******************************************************************************
 STARTING BASIS SET HANDLING 
 *******************************************************************************

 Loading internal basis set: SOLDEF2MSVP         

 Please cite in your publication:
 L. Dona', J. G. Brandenburg and B. Civalleri, J. Chem. Phys., 151, 121101 (2019
 )                                                                              
                                                                                
                    

 *******************************************************************************
 LOCAL ATOMIC FUNCTIONS BASIS SET
 *******************************************************************************
   ATOM   X(AU)   Y(AU)   Z(AU)  N. TYPE  EXPONENT  S COEF   P COEF   D/F/G COEF
 *******************************************************************************
   1 B    3.769   6.535  -8.501
                                  1 S  
                                         2.410E+03 1.755E-03 0.000E+00 0.000E+00
                                         3.619E+02 1.344E-02 0.000E+00 0.000E+00
                                         8.231E+01 6.637E-02 0.000E+00 0.000E+00
                                         2.311E+01 2.303E-01 0.000E+00 0.000E+00
                                         7.252E+00 5.150E-01 0.000E+00 0.000E+00
                                  2 S  
                                         2.367E+00 1.000E+00 0.000E+00 0.000E+00
                                  3 S  
                                         5.533E-01 1.000E+00 0.000E+00 0.000E+00
                                  4 S  
                                         1.716E-01 1.000E+00 0.000E+00 0.000E+00
                           5-     7 P  
                                         6.002E+00 0.000E+00-3.555E-02 0.000E+00
                                         1.240E+00 0.000E+00-1.983E-01 0.000E+00
                                         3.367E-01 0.000E+00-5.048E-01 0.000E+00
                           8-    10 P  
                                         1.256E-01 0.000E+00 1.000E+00 0.000E+00
                          11-    15 D  
                                         8.880E-01 0.000E+00 0.000E+00 1.000E+00
   2 B  -11.221   4.398  -2.831
   3 B   -3.777  -2.149   8.500
   4 B   -0.057   4.400  -2.804
   5 B    3.839   2.131  -2.781
   6 B    3.846   6.658  -2.815
   7 H   -8.026   0.345  -2.809
                                 91 S  
                                         1.874E+01 1.968E-02 0.000E+00 0.000E+00
                                         2.826E+00 1.380E-01 0.000E+00 0.000E+00
                                         6.401E-01 4.783E-01 0.000E+00 0.000E+00
                                 92 S  
                                         1.756E-01 1.000E+00 0.000E+00 0.000E+00
   8 H   -3.249   8.438  -2.875
   9 H    3.331  -0.367   8.464
  10 H   -3.249   0.345  -2.812
  11 H    3.247  -2.399  -8.481
  12 H   10.030  -3.000   2.804
  13 H    7.614  -7.109   2.811
  14 H    5.658   1.713  -8.492
  15 H    8.916   1.375  -2.848
  16 H    4.314  -6.812  -2.801
  17 H    1.922  -2.701  -2.803
  18 H   -1.894   2.672   8.497
  19 C   -8.290   4.392  -2.833
                                115 S  
                                         3.624E+03 1.634E-03 0.000E+00 0.000E+00
                                         5.440E+02 1.252E-02 0.000E+00 0.000E+00
                                         1.237E+02 6.211E-02 0.000E+00 0.000E+00
                                         3.476E+01 2.182E-01 0.000E+00 0.000E+00
                                         1.093E+01 4.980E-01 0.000E+00 0.000E+00
                                116 S  
                                         3.574E+00 1.000E+00 0.000E+00 0.000E+00
                                117 S  
                                         7.742E-01 1.000E+00 0.000E+00 0.000E+00
                                118 S  
                                         2.330E-01 1.000E+00 0.000E+00 0.000E+00
                         119-   121 P  
                                         9.443E+00 0.000E+00 3.790E-02 0.000E+00
                                         2.002E+00 0.000E+00 2.082E-01 0.000E+00
                                         5.463E-01 0.000E+00 5.047E-01 0.000E+00
                         122-   124 P  
                                         1.820E-01 0.000E+00 1.000E+00 0.000E+00
                         125-   129 D  
                                         8.880E-01 0.000E+00 0.000E+00 1.000E+00
  20 C   -6.951   2.105  -2.823
  21 C   -4.321   6.678  -2.859
  22 C    4.407  -2.126   8.483
  23 C   -4.321   2.107  -2.826
  24 C   -2.982   4.393  -2.839
  25 C   -0.384  -0.601  -8.494
  26 C    2.266  -0.585  -8.492
  27 C   11.007  -4.817   2.818
  28 C    9.678  -7.088   2.824
  29 C    3.595   1.684  -8.500
  30 C   -5.234  -9.206   8.500
  31 C    5.284  -0.420  -2.835
  32 C    7.934  -0.439  -2.838
  33 C    5.309  -5.005  -2.813
  34 C    3.985  -2.731  -2.816
  35 C    9.256  -2.713  -2.833
  36 C    7.960  -5.026  -2.826
  37 O   -5.071  -4.411   8.502
                                385 S  
                                         6.773E+03 1.727E-03 0.000E+00 0.000E+00
                                         1.017E+03 1.325E-02 0.000E+00 0.000E+00
                                         2.313E+02 6.603E-02 0.000E+00 0.000E+00
                                         6.501E+01 2.353E-01 0.000E+00 0.000E+00
                                         2.050E+01 5.498E-01 0.000E+00 0.000E+00
                                386 S  
                                         6.716E+00 1.000E+00 0.000E+00 0.000E+00
                                387 S  
                                         1.147E+00 1.000E+00 0.000E+00 0.000E+00
                                388 S  
                                         3.342E-01 1.000E+00 0.000E+00 0.000E+00
                         389-   391 P  
                                         1.769E+01 0.000E+00 4.359E-02 0.000E+00
                                         3.854E+00 0.000E+00 2.318E-01 0.000E+00
                                         1.047E+00 0.000E+00 5.146E-01 0.000E+00
                         392-   394 P  
                                         2.759E-01 0.000E+00 1.000E+00 0.000E+00
                         395-   399 D  
                                         8.000E-01 0.000E+00 0.000E+00 1.000E+00
  38 O    6.374   6.538  -8.490
  39 O   -1.170  -2.147   8.494
  40 O    1.241   6.658  -2.820
  41 O    1.235   2.140  -2.777
  42 O    5.143   4.393  -2.806

 *******************************************************************************
 FINISHED BASIS SET HANDLING 
 *******************************************************************************

 INFORMATION **** SET_MPP **** PCRYSTAL CALCULATION
 INFORMATION **** READM2 **** NEW DEFAULT: FOCK/KS MATRIX MIXING SET TO 30 %
 INFORMATION **** READM2 **** NEW DEFAULT: FULL DIRECT SCF MODE
 INFORMATION **** READM2 **** NEW DEFAULT: COULOMB BIPOLAR BUFFER SET TO 32 Mb
 INFORMATION **** READM2 **** NEW DEFAULT: EXCHANGE BIPOLAR BUFFER SET TO 32 Mb

 *******************************************************************************
 NEW DEFAULT: DFT INTEGRATION GRID INCREASED TO XLGRID
 NEW DEFAULT: DIIS ACCELERATOR ACTIVE
 USE KEYWORD NODIIS TO TURN IT OFF
 *******************************************************************************

 WARNING **** RDDFTP **** HSEsol-HJS ACTIVE
 RANGE SEPARATION - OMEGA:   0.110000000000000     
 WARNING **** RDDFTP **** HSEsol-3c has to be combined with sol-def2-mSVP basis set
 *******************************************************************************
 N. OF ATOMS PER CELL        42  COULOMB OVERLAP TOL         (T1) 10**   -6
 NUMBER OF SHELLS           234  COULOMB PENETRATION TOL     (T2) 10**   -6
 NUMBER OF AO               474  EXCHANGE OVERLAP TOL        (T3) 10**   -6
 N. OF ELECTRONS PER CELL   198  EXCHANGE PSEUDO OVP (F(G))  (T4) 10**   -6
 CORE ELECTRONS PER CELL     60  EXCHANGE PSEUDO OVP (P(G))  (T5) 10**  -12
 N. OF SYMMETRY OPERATORS     1  POLE ORDER IN MONO ZONE                  4
 *******************************************************************************
 TYPE OF CALCULATION :  RESTRICTED CLOSED SHELL
 KOHN-SHAM HAMILTONIAN

 (EXCHANGE)[CORRELATION] FUNCTIONAL:(HSEsol GGA)[PBEsol]

 RANGE-SEPARATED HYBRID FUNCTIONAL 
 OMEGA (SHORT-RANGE)[LONG-RANGE]:(    0.1100)[    0.0000]

 HYBRID EXCHANGE - PERCENTAGE OF FOCK EXCHANGE    25.0000

 CAPPA:IS1  2;IS2  2;IS3  8; K PTS MONK NET  20; SYMMOPS:K SPACE   2;G SPACE   1

 *******************************************************************************
 MAX NUMBER OF SCF CYCLES      50  CONVERGENCE ON DELTAP        10**-16
 WEIGHT OF F(I) IN F(I+1)      30% CONVERGENCE ON ENERGY        10**- 6
 SHRINK. FACT.(MONKH.)    2  2  8  NUMBER OF K POINTS IN THE IBZ     20
 SHRINKING FACTOR(GILAT NET)    8  NUMBER OF K POINTS(GILAT NET)   1028
 *******************************************************************************
 *** K POINTS COORDINATES (OBLIQUE COORDINATES IN UNITS OF IS =  2)
   1-R(  0  0  0)   2-R(  1  0  0)   3-R(  0  1  0)   4-R(  1  1  0)
   5-C(  0  0  1)   6-C(  1  0  1)   7-C(  0  1  1)   8-C(  1  1  1)
   9-C(  0  0  2)  10-C(  1  0  2)  11-C(  0  1  2)  12-C(  1  1  2)
  13-C(  0  0  3)  14-C(  1  0  3)  15-C(  0  1  3)  16-C(  1  1  3)
  17-R(  0  0  4)  18-R(  1  0  4)  19-R(  0  1  4)  20-R(  1  1  4)

 DIRECT LATTICE VECTORS COMPON. (A.U.)     RECIP. LATTICE VECTORS COMPON. (A.U.) 
        X            Y            Z              X            Y            Z
   24.5689761  -14.2152832    0.0000000      0.2557366    0.0000000   -0.2561117
    0.0000000   28.4297713    0.0000000      0.1278719    0.2210072   -0.5105920
    5.6781693    9.8137194    5.6698524      0.0000000    0.0000000    1.1081744

 DISK SPACE FOR EIGENVECTORS (FTN 10)     7189632 REALS

 SYMMETRY ADAPTION OF THE BLOCH FUNCTIONS DISABLED
 TTTTTTTTTTTTTTTTTTTTTTTTTTTTTT gordsh1     TELAPSE        0.06 TCPU        0.04

 MATRIX SIZE: P(G)  394244, F(G)   75668, P(G) IRR  198421, F(G) IRR   76184
 MAX G-VECTOR INDEX FOR 1- AND 2-ELECTRON INTEGRALS  73

 TTTTTTTTTTTTTTTTTTTTTTTTTTTTTT INPUT       TELAPSE        0.46 TCPU        0.45

 NEIGHBORS OF THE NON-EQUIVALENT ATOMS

 N = NUMBER OF NEIGHBORS AT DISTANCE R
    ATOM  N     R/ANG      R/AU   NEIGHBORS (ATOM LABELS AND CELL INDICES)
   1 B    1     1.3787     2.6054   38 O    0 0 0
   1 B    1     1.3795     2.6068   37 O    1 2-3
   1 B    1     1.5517     2.9323   30 C    1 2-3
   1 B    1     2.3868     4.5104    2 B    1 1-1
   1 B    1     2.3912     4.5187    3 B    1 2-3
   1 B    1     2.5629     4.8431   27 C    0 1-2

   2 B    1     1.3792     2.6064   38 O   -1-1 1
   2 B    1     1.3798     2.6075   39 O    0 1-2
   2 B    1     1.5510     2.9309   19 C    0 0 0
   2 B    1     2.3868     4.5104    1 B   -1-1 1
   2 B    1     2.3894     4.5154    3 B    0 1-2
   2 B    1     2.5618     4.8411   22 C    0 1-2

   3 B    1     1.3790     2.6060   37 O    0 0 0
   3 B    1     1.3795     2.6069   39 O    0 0 0
   3 B    1     1.5529     2.9346   36 C   -1-1 2
   3 B    1     2.3894     4.5154    2 B    0-1 2
   3 B    1     2.3912     4.5187    1 B   -1-2 3
   3 B    1     2.5679     4.8526   35 C   -1-1 2

   4 B    1     1.3778     2.6037   41 O    0 0 0
   4 B    1     1.3785     2.6051   40 O    0 0 0
   4 B    1     1.5479     2.9250   24 C    0 0 0
   4 B    1     2.3857     4.5083    5 B    0 0 0
   4 B    1     2.3859     4.5087    6 B    0 0 0
   4 B    1     2.5584     4.8347   21 C    0 0 0

   5 B    1     1.3778     2.6037   41 O    0 0 0
   5 B    1     1.3813     2.6103   42 O    0 0 0
   5 B    1     1.5522     2.9333   31 C    0 0 0
   5 B    1     2.3857     4.5083    4 B    0 0 0
   5 B    1     2.3952     4.5262    6 B    0 0 0
   5 B    1     2.5589     4.8357   32 C    0 0 0

   6 B    1     1.3783     2.6045   40 O    0 0 0
   6 B    1     1.3812     2.6101   42 O    0 0 0
   6 B    1     1.5546     2.9377   25 C    0 0 1
   6 B    1     2.3859     4.5087    4 B    0 0 0
   6 B    1     2.3952     4.5262    5 B    0 0 0
   6 B    1     2.5605     4.8386   26 C    0 0 1

   7 H    1     1.0916     2.0629   20 C    0 0 0
   7 H    1     2.1461     4.0556   19 C    0 0 0
   7 H    1     2.1712     4.1029   23 C    0 0 0
   7 H    1     2.5280     4.7772   10 H    0 0 0
   7 H    1     2.5583     4.8346   38 O   -1-1 1
   7 H    1     2.7310     5.1608    2 B    0 0 0

   8 H    1     1.0909     2.0615   21 C    0 0 0
   8 H    1     2.1454     4.0541   24 C    0 0 0
   8 H    1     2.1688     4.0985   22 C    0 1-2
   8 H    1     2.5272     4.7758    9 H    0 1-2
   8 H    1     2.5561     4.8304   40 O    0 0 0
   8 H    1     2.7242     5.1480    4 B    0 0 0

   9 H    1     1.0908     2.0613   22 C    0 0 0
   9 H    1     2.1442     4.0519   19 C    0-1 2
   9 H    1     2.1694     4.0995   21 C    0-1 2
   9 H    1     2.5272     4.7758    8 H    0-1 2
   9 H    1     2.5615     4.8406   39 O    0 0 0
   9 H    1     2.7248     5.1491    2 B    0-1 2

  10 H    1     1.0912     2.0621   23 C    0 0 0
  10 H    1     2.1468     4.0569   24 C    0 0 0
  10 H    1     2.1689     4.0986   20 C    0 0 0
  10 H    1     2.5280     4.7772    7 H    0 0 0
  10 H    1     2.5562     4.8305   41 O    0 0 0
  10 H    1     2.7309     5.1607    4 B    0 0 0

  11 H    1     1.0911     2.0619   26 C    0 0 0
  11 H    1     2.1443     4.0521   25 C    0 0 0
  11 H    1     2.1684     4.0977   29 C    0 0 0
  11 H    1     2.5222     4.7664   14 H    0 0 0
  11 H    1     2.5622     4.8419   42 O    0 0-1
  11 H    1     2.7179     5.1361    6 B    0 0-1

  12 H    1     1.0917     2.0630   27 C    0 0 0
  12 H    1     2.1441     4.0517   30 C    1 1-1
  12 H    1     2.1716     4.1037   28 C    0 0 0
  12 H    1     2.5226     4.7669   13 H    0 0 0
  12 H    1     2.5540     4.8264   37 O    1 1-1
  12 H    1     2.7237     5.1470    1 B    0-1 2

  13 H    1     1.0919     2.0633   28 C    0 0 0
  13 H    1     2.1522     4.0670   25 C    0-1 2
  13 H    1     2.1668     4.0946   27 C    0 0 0
  13 H    1     2.5226     4.7669   12 H    0 0 0
  13 H    1     2.5922     4.8986   40 O    0-1 1
  13 H    1     2.7582     5.2123    6 B    0-1 1

  14 H    1     1.0915     2.0627   29 C    0 0 0
  14 H    1     2.1483     4.0597   30 C    1 2-3
  14 H    1     2.1679     4.0968   26 C    0 0 0
  14 H    1     2.5222     4.7664   11 H    0 0 0
  14 H    1     2.5809     4.8771   38 O    0 0 0
  14 H    1     2.7404     5.1785    1 B    0 0 0

  15 H    1     1.0916     2.0628   32 C    0 0 0
  15 H    1     2.1436     4.0508   31 C    0 0 0
  15 H    1     2.1707     4.1021   35 C    0 0 0
  15 H    1     2.5217     4.7654   18 H    1 1-2
  15 H    1     2.5567     4.8315   42 O    0 0 0
  15 H    1     2.7164     5.1333    5 B    0 0 0

  16 H    1     1.0914     2.0624   33 C    0 0 0
  16 H    1     2.1487     4.0605   36 C    0 0 0
  16 H    1     2.1663     4.0937   34 C    0 0 0
  16 H    1     2.5170     4.7564   17 H    0 0 0
  16 H    1     2.5779     4.8716   37 O    1 1-2
  16 H    1     2.7395     5.1769    3 B    1 1-2

  17 H    1     1.0921     2.0638   34 C    0 0 0
  17 H    1     2.1502     4.0632   31 C    0 0 0
  17 H    1     2.1683     4.0976   33 C    0 0 0
  17 H    1     2.5170     4.7564   16 H    0 0 0
  17 H    1     2.5870     4.8887   41 O    0 0 0
  17 H    1     2.7510     5.1986    5 B    0 0 0

  18 H    1     1.0913     2.0622   35 C   -1-1 2
  18 H    1     2.1494     4.0619   36 C   -1-1 2
  18 H    1     2.1656     4.0923   32 C   -1-1 2
  18 H    1     2.5217     4.7654   15 H   -1-1 2
  18 H    1     2.5789     4.8734   39 O    0 0 0
  18 H    1     2.7392     5.1763    3 B    0 0 0

  19 C    1     1.4017     2.6488   22 C    0 1-2
  19 C    1     1.4025     2.6504   20 C    0 0 0
  19 C    1     1.5510     2.9309    2 B    0 0 0
  19 C    1     2.1442     4.0519    9 H    0 1-2
  19 C    1     2.1461     4.0556    7 H    0 0 0
  19 C    1     2.4236     4.5799   21 C    0 0 0

  20 C    1     1.0916     2.0629    7 H    0 0 0
  20 C    1     1.3915     2.6296   23 C    0 0 0
  20 C    1     1.4025     2.6504   19 C    0 0 0
  20 C    1     2.1689     4.0986   10 H    0 0 0
  20 C    1     2.4191     4.5714   22 C    0 1-2
  20 C    1     2.4241     4.5809   24 C    0 0 0

  21 C    1     1.0909     2.0615    8 H    0 0 0
  21 C    1     1.3909     2.6284   22 C    0 1-2
  21 C    1     1.4014     2.6483   24 C    0 0 0
  21 C    1     2.1694     4.0995    9 H    0 1-2
  21 C    1     2.4189     4.5710   23 C    0 0 0
  21 C    1     2.4236     4.5799   19 C    0 0 0

  22 C    1     1.0908     2.0613    9 H    0 0 0
  22 C    1     1.3909     2.6284   21 C    0-1 2
  22 C    1     1.4017     2.6488   19 C    0-1 2
  22 C    1     2.1688     4.0985    8 H    0-1 2
  22 C    1     2.4191     4.5714   20 C    0-1 2
  22 C    1     2.4226     4.5780   24 C    0-1 2

  23 C    1     1.0912     2.0621   10 H    0 0 0
  23 C    1     1.3915     2.6296   20 C    0 0 0
  23 C    1     1.4021     2.6496   24 C    0 0 0
  23 C    1     2.1712     4.1029    7 H    0 0 0
  23 C    1     2.4189     4.5710   21 C    0 0 0
  23 C    1     2.4237     4.5802   19 C    0 0 0

  24 C    1     1.4014     2.6483   21 C    0 0 0
  24 C    1     1.4021     2.6496   23 C    0 0 0
  24 C    1     1.5479     2.9250    4 B    0 0 0
  24 C    1     2.1454     4.0541    8 H    0 0 0
  24 C    1     2.1468     4.0569   10 H    0 0 0
  24 C    1     2.4226     4.5780   22 C    0 1-2

  25 C    1     1.4025     2.6504   26 C    0 0 0
  25 C    1     1.4037     2.6525   28 C    0 1-2
  25 C    1     1.5546     2.9377    6 B    0 0-1
  25 C    1     2.1443     4.0521   11 H    0 0 0
  25 C    1     2.1522     4.0670   13 H    0 1-2
  25 C    1     2.4271     4.5865   27 C    0 1-2

  26 C    1     1.0911     2.0619   11 H    0 0 0
  26 C    1     1.3916     2.6298   29 C    0 0 0
  26 C    1     1.4025     2.6504   25 C    0 0 0
  26 C    1     2.1679     4.0968   14 H    0 0 0
  26 C    1     2.4165     4.5665   28 C    0 1-2
  26 C    1     2.4246     4.5818   30 C    1 2-3

  27 C    1     1.0917     2.0630   12 H    0 0 0
  27 C    1     1.3928     2.6320   28 C    0 0 0
  27 C    1     1.4024     2.6501   30 C    1 1-1
  27 C    1     2.1668     4.0946   13 H    0 0 0
  27 C    1     2.4166     4.5668   29 C    0-1 2
  27 C    1     2.4271     4.5865   25 C    0-1 2

  28 C    1     1.0919     2.0633   13 H    0 0 0
  28 C    1     1.3928     2.6320   27 C    0 0 0
  28 C    1     1.4037     2.6525   25 C    0-1 2
  28 C    1     2.1716     4.1037   12 H    0 0 0
  28 C    1     2.4165     4.5665   26 C    0-1 2
  28 C    1     2.4277     4.5877   30 C    1 1-1

  29 C    1     1.0915     2.0627   14 H    0 0 0
  29 C    1     1.3916     2.6298   26 C    0 0 0
  29 C    1     1.4023     2.6499   30 C    1 2-3
  29 C    1     2.1684     4.0977   11 H    0 0 0
  29 C    1     2.4166     4.5668   27 C    0 1-2
  29 C    1     2.4281     4.5884   25 C    0 0 0

  30 C    1     1.4023     2.6499   29 C   -1-2 3
  30 C    1     1.4024     2.6501   27 C   -1-1 1
  30 C    1     1.5517     2.9323    1 B   -1-2 3
  30 C    1     2.1441     4.0517   12 H   -1-1 1
  30 C    1     2.1483     4.0597   14 H   -1-2 3
  30 C    1     2.4246     4.5818   26 C   -1-2 3

  31 C    1     1.4022     2.6498   32 C    0 0 0
  31 C    1     1.4030     2.6512   34 C    0 0 0
  31 C    1     1.5522     2.9333    5 B    0 0 0
  31 C    1     2.1436     4.0508   15 H    0 0 0
  31 C    1     2.1502     4.0632   17 H    0 0 0
  31 C    1     2.4264     4.5853   33 C    0 0 0

  32 C    1     1.0916     2.0628   15 H    0 0 0
  32 C    1     1.3918     2.6301   35 C    0 0 0
  32 C    1     1.4022     2.6498   31 C    0 0 0
  32 C    1     2.1656     4.0923   18 H    1 1-2
  32 C    1     2.4163     4.5661   34 C    0 0 0
  32 C    1     2.4270     4.5863   36 C    0 0 0

  33 C    1     1.0914     2.0624   16 H    0 0 0
  33 C    1     1.3927     2.6318   34 C    0 0 0
  33 C    1     1.4029     2.6510   36 C    0 0 0
  33 C    1     2.1683     4.0976   17 H    0 0 0
  33 C    1     2.4155     4.5645   35 C    0 0 0
  33 C    1     2.4264     4.5853   31 C    0 0 0

  34 C    1     1.0921     2.0638   17 H    0 0 0
  34 C    1     1.3927     2.6318   33 C    0 0 0
  34 C    1     1.4030     2.6512   31 C    0 0 0
  34 C    1     2.1663     4.0937   16 H    0 0 0
  34 C    1     2.4163     4.5661   32 C    0 0 0
  34 C    1     2.4289     4.5899   36 C    0 0 0

  35 C    1     1.0913     2.0622   18 H    1 1-2
  35 C    1     1.3918     2.6301   32 C    0 0 0
  35 C    1     1.4029     2.6511   36 C    0 0 0
  35 C    1     2.1707     4.1021   15 H    0 0 0
  35 C    1     2.4155     4.5645   33 C    0 0 0
  35 C    1     2.4269     4.5861   31 C    0 0 0

  36 C    1     1.4029     2.6510   33 C    0 0 0
  36 C    1     1.4029     2.6511   35 C    0 0 0
  36 C    1     1.5529     2.9346    3 B    1 1-2
  36 C    1     2.1487     4.0605   16 H    0 0 0
  36 C    1     2.1494     4.0619   18 H    1 1-2
  36 C    1     2.4270     4.5863   32 C    0 0 0

  37 O    1     1.3790     2.6060    3 B    0 0 0
  37 O    1     1.3795     2.6068    1 B   -1-2 3
  37 O    1     2.3868     4.5105   39 O    0 0 0
  37 O    1     2.3885     4.5135   38 O   -1-2 3
  37 O    1     2.5389     4.7979   30 C    0 0 0
  37 O    1     2.5412     4.8021   36 C   -1-1 2

  38 O    1     1.3787     2.6054    1 B    0 0 0
  38 O    1     1.3792     2.6064    2 B    1 1-1
  38 O    1     2.3885     4.5135   37 O    1 2-3
  38 O    1     2.3912     4.5187   39 O    1 2-3
  38 O    1     2.5351     4.7906   19 C    1 1-1
  38 O    1     2.5405     4.8008   30 C    1 2-3

  39 O    1     1.3795     2.6069    3 B    0 0 0
  39 O    1     1.3798     2.6075    2 B    0-1 2
  39 O    1     2.3868     4.5105   37 O    0 0 0
  39 O    1     2.3912     4.5187   38 O   -1-2 3
  39 O    1     2.5416     4.8030   19 C    0-1 2
  39 O    1     2.5427     4.8050   36 C   -1-1 2

  40 O    1     1.3783     2.6045    6 B    0 0 0
  40 O    1     1.3785     2.6051    4 B    0 0 0
  40 O    1     2.3876     4.5119   42 O    0 0 0
  40 O    1     2.3913     4.5189   41 O    0 0 0
  40 O    1     2.5354     4.7912   25 C    0 0 1
  40 O    1     2.5360     4.7923   24 C    0 0 0

  41 O    1     1.3778     2.6037    4 B    0 0 0
  41 O    1     1.3778     2.6037    5 B    0 0 0
  41 O    1     2.3870     4.5107   42 O    0 0 0
  41 O    1     2.3913     4.5189   40 O    0 0 0
  41 O    1     2.5304     4.7818   24 C    0 0 0
  41 O    1     2.5353     4.7910   31 C    0 0 0

  42 O    1     1.3812     2.6101    6 B    0 0 0
  42 O    1     1.3813     2.6103    5 B    0 0 0
  42 O    1     2.3870     4.5107   41 O    0 0 0
  42 O    1     2.3876     4.5119   40 O    0 0 0
  42 O    1     2.5481     4.8152   31 C    0 0 0
  42 O    1     2.5522     4.8230   25 C    0 0 1


 SYMMETRY ALLOWED INTERNAL DEGREE(S) OF FREEDOM: 123
 TTTTTTTTTTTTTTTTTTTTTTTTTTTTTT SYMM        TELAPSE        0.46 TCPU        0.45
 TTTTTTTTTTTTTTTTTTTTTTTTTTTTTT INT_SCREEN  TELAPSE        0.50 TCPU        0.48

 DFT PARAMETERS

     ATOM       ELECTRONS   NET CHARGE   R(ANGSTROM)
   1   5  B       5.0000      0.0000     0.89000000
   7   1  H       1.0000      0.0000     1.11000000
  19   6  C       6.0000      0.0000     0.77000000
  37   8  O       8.0000      0.0000     0.74000000

 SIZE OF GRID=    1240790
 TTTTTTTTTTTTTTTTTTTTTTTTTTTTTT MAKE_GRID2  TELAPSE       11.87 TCPU       11.85
 BECKE WEIGHT FUNCTION
 RADSAFE =     2.00
 TOLERANCES - DENSITY:10**- 6; POTENTIAL:10**- 9; GRID WGT:10**-14

 RADIAL INTEGRATION  - INTERVALS (POINTS,UPPER LIMIT):            1( 75,  4.0*R)

 ANGULAR INTEGRATION - INTERVALS (ACCURACY LEVEL [N. POINTS] UPPER LIMIT):
  1(  4[  86]   0.2)  2(  8[ 194]   0.5)  3( 12[ 350]   0.9)  4( 16[ 974]   3.5)
  5( 12[ 350]9999.0)
 TTTTTTTTTTTTTTTTTTTTTTTTTTTTTT INT_CALC    TELAPSE       11.97 TCPU       11.94
 EEEEEEEEEE INT_CALC TERMINATION  DATE 02 12 2025 TIME 07:53:44.2

 *******************************************************************************
 COF-5_z30_inc_L060                                                              
 CRYSTAL - SCF - TYPE OF CALCULATION :  RESTRICTED CLOSED SHELL
 *******************************************************************************

 CAPPA:IS1  2;IS2  2;IS3  8; K PTS MONK NET  20; SYMMOPS:K SPACE   2;G SPACE   1

 TTTTTTTTTTTTTTTTTTTTTTTTTTTTTT SDIK        TELAPSE       12.88 TCPU       21.29

 AAAAAAAAAAAAAAAAAAAAAAAAAAAAAAAAAAAAAAAAAAAAAAAAAAAAAAAAAAAAAAAAAAAAAAAAAAAAAAA
         ATOMIC WAVEFUNCTION(S)


 NUCLEAR CHARGE  5.0  SYMMETRY SPECIES            S    P
 N. ELECTRONS    5.0  NUMBER OF PRIMITIVE GTOS    8    4
                      NUMBER OF CONTRACTED GTOS   4    2
                      NUMBER OF CLOSED SHELLS     2    0
                      OPEN SHELL OCCUPATION       0    1

  ZNUC  SCFIT    TOTAL HF ENERGY   KINETIC ENERGY   VIRIAL THEOREM ACCURACY
   5.0    11    -2.451164084E+01  2.462155050E+01 -1.995536038E+00  1.5E-06

 NUCLEAR CHARGE  1.0  SYMMETRY SPECIES            S
 N. ELECTRONS    1.0  NUMBER OF PRIMITIVE GTOS    4
                      NUMBER OF CONTRACTED GTOS   2
                      NUMBER OF CLOSED SHELLS     0
                      OPEN SHELL OCCUPATION       1

  ZNUC  SCFIT    TOTAL HF ENERGY   KINETIC ENERGY   VIRIAL THEOREM ACCURACY
   1.0     1    -4.977266687E-01  5.190767460E-01 -1.958869132E+00  0.0E+00

 NUCLEAR CHARGE  6.0  SYMMETRY SPECIES            S    P
 N. ELECTRONS    6.0  NUMBER OF PRIMITIVE GTOS    8    4
                      NUMBER OF CONTRACTED GTOS   4    2
                      NUMBER OF CLOSED SHELLS     2    0
                      OPEN SHELL OCCUPATION       0    2

  ZNUC  SCFIT    TOTAL HF ENERGY   KINETIC ENERGY   VIRIAL THEOREM ACCURACY
   6.0     9    -3.766704647E+01  3.775180683E+01 -1.997754800E+00  1.1E-06

 NUCLEAR CHARGE  8.0  SYMMETRY SPECIES            S    P
 N. ELECTRONS    8.0  NUMBER OF PRIMITIVE GTOS    8    4
                      NUMBER OF CONTRACTED GTOS   4    2
                      NUMBER OF CLOSED SHELLS     2    0
                      OPEN SHELL OCCUPATION       0    4

  ZNUC  SCFIT    TOTAL HF ENERGY   KINETIC ENERGY   VIRIAL THEOREM ACCURACY
   8.0    12    -7.477373220E+01  7.477365593E+01 -2.000001020E+00  3.8E-06

 AAAAAAAAAAAAAAAAAAAAAAAAAAAAAAAAAAAAAAAAAAAAAAAAAAAAAAAAAAAAAAAAAAAAAAAAAAAAAAA

 CHARGE NORMALIZATION FACTOR   1.00000000
 TOTAL ATOMIC CHARGES:
   5.0000000   5.0000000   5.0000000   5.0000000   5.0000000   5.0000000
   1.0000000   1.0000000   1.0000000   1.0000000   1.0000000   1.0000000
   1.0000000   1.0000000   1.0000000   1.0000000   1.0000000   1.0000000
   6.0000000   6.0000000   6.0000000   6.0000000   6.0000000   6.0000000
   6.0000000   6.0000000   6.0000000   6.0000000   6.0000000   6.0000000
   6.0000000   6.0000000   6.0000000   6.0000000   6.0000000   6.0000000
   8.0000000   8.0000000   8.0000000   8.0000000   8.0000000   8.0000000
 TTTTTTTTTTTTTTTTTTTTTTTTTTTTTT MOQGAD      TELAPSE       12.93 TCPU       22.21
 TTTTTTTTTTTTTTTTTTTTTTTTTTTTTT SHELLXN     TELAPSE       24.25 TCPU      377.33
 TTTTTTTTTTTTTTTTTTTTTTTTTTTTTT MONMO3      TELAPSE       24.42 TCPU      382.83
 NUMERICALLY INTEGRATED DENSITY    198.0000978530
 TTTTTTTTTTTTTTTTTTTTTTTTTTTTTT NUMDFT      TELAPSE       25.18 TCPU      407.10
 CYC   0 ETOT(AU) -1.296025349897E+03 DETOT -1.30E+03 tst  0.00E+00 PX  1.00E+00
 TTTTTTTTTTTTTTTTTTTTTTTTTTTTTT DIIS        TELAPSE       25.22 TCPU      408.36
 TTTTTTTTTTTTTTTTTTTTTTTTTTTTTT FDIK        TELAPSE       25.93 TCPU      425.08
 INSULATING STATE
 TOP OF VALENCE BANDS -    BAND     99; K    1; EIG -2.9670316E-01 AU
 BOTTOM OF VIRTUAL BANDS - BAND    100; K   17; EIG -1.7294034E-01 AU
 INDIRECT ENERGY BAND GAP:   3.3678 eV
 BOTTOM OF VIRTUAL BANDS - BAND    100; K    1; EIG -1.6037270E-01 AU
 TTTTTTTTTTTTTTTTTTTTTTTTTTTTTT PDIG        TELAPSE       26.27 TCPU      431.29
 CHARGE NORMALIZATION FACTOR   1.00000000
 TOTAL ATOMIC CHARGES:
   4.1408698   4.1568631   4.1580109   4.1591473   4.1567270   4.1389786
   0.7859607   0.7859262   0.7837234   0.7837053   0.7855770   0.7855633
   0.7863624   0.7860806   0.7857005   0.7862714   0.7838791   0.7840904
   6.0467837   6.2719243   6.2717895   6.2695211   6.2682545   6.0494272
   6.0429353   6.2563467   6.2537823   6.2571360   6.2564410   6.0462137
   6.0460673   6.2715506   6.2727580   6.2689299   6.2706126   6.0432710
   8.7000607   8.6994705   8.7022119   8.6991129   8.7006667   8.7012955
 TTTTTTTTTTTTTTTTTTTTTTTTTTTTTT MOQGAD      TELAPSE       26.33 TCPU      431.34
 TTTTTTTTTTTTTTTTTTTTTTTTTTTTTT SHELLXN     TELAPSE       37.90 TCPU      800.68
 TTTTTTTTTTTTTTTTTTTTTTTTTTTTTT MONMO3      TELAPSE       38.08 TCPU      806.16
 NUMERICALLY INTEGRATED DENSITY    198.0000692906
 TTTTTTTTTTTTTTTTTTTTTTTTTTTTTT NUMDFT      TELAPSE       38.85 TCPU      830.91
 CYC   1 ETOT(AU) -1.288825581307E+03 DETOT  7.20E+00 tst  0.00E+00 PX  1.00E+00
 TTTTTTTTTTTTTTTTTTTTTTTTTTTTTT DIIS        TELAPSE       38.90 TCPU      832.45
 DIIS TEST: 0.10910E+01 AT SCF   CYCLE   1 - MIX   30 %
 TTTTTTTTTTTTTTTTTTTTTTTTTTTTTT FDIK        TELAPSE       39.40 TCPU      848.41
 INSULATING STATE
 TOP OF VALENCE BANDS -    BAND     99; K    1; EIG -2.0920355E-01 AU
 BOTTOM OF VIRTUAL BANDS - BAND    100; K   17; EIG -1.0116394E-01 AU
 INDIRECT ENERGY BAND GAP:   2.9399 eV
 BOTTOM OF VIRTUAL BANDS - BAND    100; K    1; EIG -8.1639433E-02 AU
 TTTTTTTTTTTTTTTTTTTTTTTTTTTTTT PDIG        TELAPSE       39.75 TCPU      854.61
 CHARGE NORMALIZATION FACTOR   1.00000000
 TOTAL ATOMIC CHARGES:
   4.6963180   4.6857500   4.6862644   4.6863567   4.6862959   4.6952768
   0.9069138   0.9073868   0.9124900   0.9126028   0.8873860   0.8873228
   0.8876902   0.8882623   0.9064532   0.9069852   0.9124164   0.9122006
   5.8679520   6.1609243   6.1594142   6.1359315   6.1373850   5.8640197
   5.9250774   6.1297220   6.1295603   6.1357833   6.1314007   5.9183538
   5.8684305   6.1562253   6.1588942   6.1379897   6.1351582   5.8702783
   8.3403830   8.3395358   8.3265903   8.3383669   8.3241281   8.3441238
 TTTTTTTTTTTTTTTTTTTTTTTTTTTTTT MOQGAD      TELAPSE       39.80 TCPU      854.67
 TTTTTTTTTTTTTTTTTTTTTTTTTTTTTT SHELLXN     TELAPSE       51.37 TCPU     1223.89
 TTTTTTTTTTTTTTTTTTTTTTTTTTTTTT MONMO3      TELAPSE       51.54 TCPU     1229.37
 NUMERICALLY INTEGRATED DENSITY    198.0000775611
 TTTTTTTTTTTTTTTTTTTTTTTTTTTTTT NUMDFT      TELAPSE       52.32 TCPU     1254.14
 CYC   2 ETOT(AU) -1.289014402981E+03 DETOT -1.89E-01 tst  2.96E-03 PX  1.62E-01
 TTTTTTTTTTTTTTTTTTTTTTTTTTTTTT DIIS        TELAPSE       52.37 TCPU     1255.80
 DIIS TEST: 0.45707E+00 AT SCF   CYCLE   2 - DIIS ACTIVE - HISTORY:     2 CYCLES
 TTTTTTTTTTTTTTTTTTTTTTTTTTTTTT FDIK        TELAPSE       52.87 TCPU     1271.65
 INSULATING STATE
 TOP OF VALENCE BANDS -    BAND     99; K    1; EIG -2.1981008E-01 AU
 BOTTOM OF VIRTUAL BANDS - BAND    100; K   17; EIG -9.4960050E-02 AU
 INDIRECT ENERGY BAND GAP:   3.3973 eV
 BOTTOM OF VIRTUAL BANDS - BAND    100; K    1; EIG -7.8400564E-02 AU
 TTTTTTTTTTTTTTTTTTTTTTTTTTTTTT PDIG        TELAPSE       53.22 TCPU     1277.86
 CHARGE NORMALIZATION FACTOR   1.00000000
 TOTAL ATOMIC CHARGES:
   4.4741993   4.4888944   4.4890356   4.4906681   4.4890591   4.4725041
   0.8866834   0.8864842   0.8897497   0.8898088   0.8714720   0.8713535
   0.8725714   0.8722921   0.8853274   0.8866354   0.8898847   0.8893676
   5.8998994   6.1688628   6.1694953   6.1617132   6.1614631   5.9018874
   5.8981254   6.1669548   6.1675983   6.1706085   6.1700807   5.9001733
   5.9010725   6.1687060   6.1691634   6.1622889   6.1633853   5.8999484
   8.5153222   8.5148341   8.5214781   8.5143383   8.5191320   8.5174777
 TTTTTTTTTTTTTTTTTTTTTTTTTTTTTT MOQGAD      TELAPSE       53.28 TCPU     1277.91
 TTTTTTTTTTTTTTTTTTTTTTTTTTTTTT SHELLXN     TELAPSE       64.85 TCPU     1647.20
 TTTTTTTTTTTTTTTTTTTTTTTTTTTTTT MONMO3      TELAPSE       65.02 TCPU     1652.68
 NUMERICALLY INTEGRATED DENSITY    198.0000775692
 TTTTTTTTTTTTTTTTTTTTTTTTTTTTTT NUMDFT      TELAPSE       65.79 TCPU     1677.42
 CYC   3 ETOT(AU) -1.289108184604E+03 DETOT -9.38E-02 tst  8.34E-04 PX  6.88E-02
 TTTTTTTTTTTTTTTTTTTTTTTTTTTTTT DIIS        TELAPSE       65.86 TCPU     1679.38
 DIIS TEST: 0.15244E-01 AT SCF   CYCLE   3 - DIIS ACTIVE - HISTORY:     3 CYCLES
 TTTTTTTTTTTTTTTTTTTTTTTTTTTTTT FDIK        TELAPSE       66.35 TCPU     1695.30
 INSULATING STATE
 TOP OF VALENCE BANDS -    BAND     99; K    1; EIG -2.3036234E-01 AU
 BOTTOM OF VIRTUAL BANDS - BAND    100; K   17; EIG -1.0388568E-01 AU
 INDIRECT ENERGY BAND GAP:   3.4416 eV
 BOTTOM OF VIRTUAL BANDS - BAND    100; K    1; EIG -8.5560579E-02 AU
 TTTTTTTTTTTTTTTTTTTTTTTTTTTTTT PDIG        TELAPSE       66.70 TCPU     1701.51
 CHARGE NORMALIZATION FACTOR   1.00000000
 TOTAL ATOMIC CHARGES:
   4.4832162   4.4924016   4.4926336   4.4935240   4.4919908   4.4815353
   0.8687142   0.8690982   0.8732344   0.8734384   0.8542604   0.8545152
   0.8553223   0.8555268   0.8681298   0.8688887   0.8735047   0.8733016
   5.9403784   6.1850706   6.1835152   6.1687646   6.1689585   5.9381603
   5.9750949   6.1658980   6.1634668   6.1689263   6.1655897   5.9707752
   5.9399171   6.1822997   6.1844417   6.1698456   6.1683450   5.9399911
   8.4864438   8.4856611   8.4766068   8.4847734   8.4747175   8.4891226
 TTTTTTTTTTTTTTTTTTTTTTTTTTTTTT MOQGAD      TELAPSE       66.76 TCPU     1701.56
 TTTTTTTTTTTTTTTTTTTTTTTTTTTTTT SHELLXN     TELAPSE       78.33 TCPU     2070.93
 TTTTTTTTTTTTTTTTTTTTTTTTTTTTTT MONMO3      TELAPSE       78.50 TCPU     2076.41
 NUMERICALLY INTEGRATED DENSITY    198.0000768687
 TTTTTTTTTTTTTTTTTTTTTTTTTTTTTT NUMDFT      TELAPSE       79.28 TCPU     2101.15
 CYC   4 ETOT(AU) -1.289111456981E+03 DETOT -3.27E-03 tst  3.92E-05 PX  1.66E-02
 TTTTTTTTTTTTTTTTTTTTTTTTTTTTTT DIIS        TELAPSE       79.34 TCPU     2103.19
 DIIS TEST: 0.40859E-02 AT SCF   CYCLE   4 - DIIS ACTIVE - HISTORY:     4 CYCLES
 TTTTTTTTTTTTTTTTTTTTTTTTTTTTTT FDIK        TELAPSE       79.84 TCPU     2119.04
 INSULATING STATE
 TOP OF VALENCE BANDS -    BAND     99; K    1; EIG -2.2847364E-01 AU
 BOTTOM OF VIRTUAL BANDS - BAND    100; K   17; EIG -1.0347203E-01 AU
 INDIRECT ENERGY BAND GAP:   3.4015 eV
 BOTTOM OF VIRTUAL BANDS - BAND    100; K    1; EIG -8.5588068E-02 AU
 TTTTTTTTTTTTTTTTTTTTTTTTTTTTTT PDIG        TELAPSE       80.19 TCPU     2125.24
 CHARGE NORMALIZATION FACTOR   1.00000000
 TOTAL ATOMIC CHARGES:
   4.4871596   4.4941326   4.4944580   4.4956899   4.4943639   4.4855058
   0.8721400   0.8720734   0.8763001   0.8763984   0.8568374   0.8567064
   0.8577838   0.8576969   0.8710846   0.8722341   0.8765360   0.8761130
   5.9251433   6.1813543   6.1815841   6.1685790   6.1684826   5.9259427
   5.9453988   6.1682112   6.1686274   6.1720504   6.1705260   5.9456376
   5.9260778   6.1802690   6.1810852   6.1690158   6.1693889   5.9256225
   8.4929671   8.4922980   8.4918647   8.4917051   8.4895803   8.4953743
 TTTTTTTTTTTTTTTTTTTTTTTTTTTTTT MOQGAD      TELAPSE       80.24 TCPU     2125.30
 TTTTTTTTTTTTTTTTTTTTTTTTTTTTTT SHELLXN     TELAPSE       91.83 TCPU     2494.92
 TTTTTTTTTTTTTTTTTTTTTTTTTTTTTT MONMO3      TELAPSE       92.00 TCPU     2500.40
 NUMERICALLY INTEGRATED DENSITY    198.0000766970
 TTTTTTTTTTTTTTTTTTTTTTTTTTTTTT NUMDFT      TELAPSE       92.77 TCPU     2525.13
 CYC   5 ETOT(AU) -1.289112392148E+03 DETOT -9.35E-04 tst  6.54E-06 PX  7.58E-03
 TTTTTTTTTTTTTTTTTTTTTTTTTTTTTT DIIS        TELAPSE       92.85 TCPU     2527.50
 DIIS TEST: 0.67587E-04 AT SCF   CYCLE   5 - DIIS ACTIVE - HISTORY:     5 CYCLES
 TTTTTTTTTTTTTTTTTTTTTTTTTTTTTT FDIK        TELAPSE       93.34 TCPU     2543.39
 INSULATING STATE
 TOP OF VALENCE BANDS -    BAND     99; K    1; EIG -2.2827159E-01 AU
 BOTTOM OF VIRTUAL BANDS - BAND    100; K   17; EIG -1.0295150E-01 AU
 INDIRECT ENERGY BAND GAP:   3.4101 eV
 BOTTOM OF VIRTUAL BANDS - BAND    100; K    1; EIG -8.5257464E-02 AU
 TTTTTTTTTTTTTTTTTTTTTTTTTTTTTT PDIG        TELAPSE       93.69 TCPU     2549.59
 CHARGE NORMALIZATION FACTOR   1.00000000
 TOTAL ATOMIC CHARGES:
   4.4853313   4.4949571   4.4951635   4.4961237   4.4947462   4.4836605
   0.8728326   0.8731309   0.8769369   0.8771104   0.8577224   0.8579776
   0.8587833   0.8588670   0.8721163   0.8729477   0.8771317   0.8768880
   5.9262382   6.1818077   6.1804674   6.1678154   6.1679670   5.9246935
   5.9468998   6.1688326   6.1664699   6.1717575   6.1692088   5.9436823
   5.9259335   6.1794439   6.1813605   6.1690909   6.1678839   5.9256279
   8.4940589   8.4934601   8.4887988   8.4925643   8.4868552   8.4966548
 TTTTTTTTTTTTTTTTTTTTTTTTTTTTTT MOQGAD      TELAPSE       93.75 TCPU     2549.64
 TTTTTTTTTTTTTTTTTTTTTTTTTTTTTT SHELLXN     TELAPSE      105.34 TCPU     2918.87
 TTTTTTTTTTTTTTTTTTTTTTTTTTTTTT MONMO3      TELAPSE      105.51 TCPU     2924.35
 NUMERICALLY INTEGRATED DENSITY    198.0000767881
 TTTTTTTTTTTTTTTTTTTTTTTTTTTTTT NUMDFT      TELAPSE      106.29 TCPU     2949.10
 CYC   6 ETOT(AU) -1.289112406266E+03 DETOT -1.41E-05 tst  1.05E-07 PX  1.45E-03
 TTTTTTTTTTTTTTTTTTTTTTTTTTTTTT DIIS        TELAPSE      106.36 TCPU     2951.50
 DIIS TEST: 0.19874E-04 AT SCF   CYCLE   6 - DIIS ACTIVE - HISTORY:     6 CYCLES
 TTTTTTTTTTTTTTTTTTTTTTTTTTTTTT FDIK        TELAPSE      106.86 TCPU     2967.35
 INSULATING STATE
 TOP OF VALENCE BANDS -    BAND     99; K    1; EIG -2.2830803E-01 AU
 BOTTOM OF VIRTUAL BANDS - BAND    100; K   17; EIG -1.0303639E-01 AU
 INDIRECT ENERGY BAND GAP:   3.4088 eV
 BOTTOM OF VIRTUAL BANDS - BAND    100; K    1; EIG -8.5259943E-02 AU
 TTTTTTTTTTTTTTTTTTTTTTTTTTTTTT PDIG        TELAPSE      107.21 TCPU     2973.56
 CHARGE NORMALIZATION FACTOR   1.00000000
 TOTAL ATOMIC CHARGES:
   4.4861193   4.4945635   4.4948648   4.4960548   4.4946423   4.4844443
   0.8729473   0.8729688   0.8770056   0.8771225   0.8577225   0.8576616
   0.8586750   0.8586628   0.8719721   0.8730462   0.8772455   0.8768461
   5.9252847   6.1809473   6.1808467   6.1679546   6.1679292   5.9255690
   5.9462307   6.1676219   6.1675677   6.1714372   6.1694285   5.9455553
   5.9258897   6.1795746   6.1806876   6.1685234   6.1686160   5.9256180
   8.4932614   8.4925328   8.4904786   8.4919218   8.4882782   8.4956800
 TTTTTTTTTTTTTTTTTTTTTTTTTTTTTT MOQGAD      TELAPSE      107.26 TCPU     2973.61
 TTTTTTTTTTTTTTTTTTTTTTTTTTTTTT SHELLXN     TELAPSE      118.84 TCPU     3342.86
 TTTTTTTTTTTTTTTTTTTTTTTTTTTTTT MONMO3      TELAPSE      119.01 TCPU     3348.34
 NUMERICALLY INTEGRATED DENSITY    198.0000767850
 TTTTTTTTTTTTTTTTTTTTTTTTTTTTTT NUMDFT      TELAPSE      119.79 TCPU     3373.18
 CYC   7 ETOT(AU) -1.289112410713E+03 DETOT -4.45E-06 tst  4.44E-08 PX  5.96E-04
 TTTTTTTTTTTTTTTTTTTTTTTTTTTTTT DIIS        TELAPSE      119.87 TCPU     3375.92
 DIIS TEST: 0.12930E-05 AT SCF   CYCLE   7 - DIIS ACTIVE - HISTORY:     7 CYCLES
 TTTTTTTTTTTTTTTTTTTTTTTTTTTTTT FDIK        TELAPSE      120.37 TCPU     3391.98
 INSULATING STATE
 TOP OF VALENCE BANDS -    BAND     99; K    1; EIG -2.2830942E-01 AU
 BOTTOM OF VIRTUAL BANDS - BAND    100; K   17; EIG -1.0306393E-01 AU
 INDIRECT ENERGY BAND GAP:   3.4081 eV
 BOTTOM OF VIRTUAL BANDS - BAND    100; K    1; EIG -8.5274232E-02 AU
 TTTTTTTTTTTTTTTTTTTTTTTTTTTTTT PDIG        TELAPSE      120.72 TCPU     3398.20
 CHARGE NORMALIZATION FACTOR   1.00000000
 TOTAL ATOMIC CHARGES:
   4.4862357   4.4946388   4.4948950   4.4960084   4.4946404   4.4845702
   0.8728638   0.8729741   0.8769766   0.8771161   0.8576297   0.8576968
   0.8586503   0.8586298   0.8719693   0.8729702   0.8771929   0.8768624
   5.9255827   6.1812639   6.1807221   6.1678874   6.1678852   5.9252028
   5.9464532   6.1681098   6.1671052   6.1714011   6.1694946   5.9450461
   5.9259542   6.1795678   6.1808860   6.1687288   6.1683034   5.9254800
   8.4933471   8.4927391   8.4902962   8.4919741   8.4881741   8.4958747
 TTTTTTTTTTTTTTTTTTTTTTTTTTTTTT MOQGAD      TELAPSE      120.78 TCPU     3398.25
 TTTTTTTTTTTTTTTTTTTTTTTTTTTTTT SHELLXN     TELAPSE      132.36 TCPU     3767.73
 TTTTTTTTTTTTTTTTTTTTTTTTTTTTTT MONMO3      TELAPSE      132.53 TCPU     3773.22
 NUMERICALLY INTEGRATED DENSITY    198.0000767848
 TTTTTTTTTTTTTTTTTTTTTTTTTTTTTT NUMDFT      TELAPSE      133.30 TCPU     3797.92
 CYC   8 ETOT(AU) -1.289112410824E+03 DETOT -1.11E-07 tst  3.86E-09 PX  1.21E-04
 TTTTTTTTTTTTTTTTTTTTTTTTTTTTTT DIIS        TELAPSE      133.39 TCPU     3800.69
 DIIS TEST: 0.16739E-06 AT SCF   CYCLE   8 - DIIS ACTIVE - HISTORY:     8 CYCLES
 TTTTTTTTTTTTTTTTTTTTTTTTTTTTTT FDIK        TELAPSE      133.89 TCPU     3816.59
 INSULATING STATE
 TOP OF VALENCE BANDS -    BAND     99; K    1; EIG -2.2831168E-01 AU
 BOTTOM OF VIRTUAL BANDS - BAND    100; K   17; EIG -1.0305680E-01 AU
 INDIRECT ENERGY BAND GAP:   3.4084 eV
 BOTTOM OF VIRTUAL BANDS - BAND    100; K    1; EIG -8.5275749E-02 AU
 TTTTTTTTTTTTTTTTTTTTTTTTTTTTTT PDIG        TELAPSE      134.24 TCPU     3822.79
 CHARGE NORMALIZATION FACTOR   1.00000000
 TOTAL ATOMIC CHARGES:
   4.4861667   4.4946349   4.4949145   4.4960456   4.4946527   4.4844966
   0.8728724   0.8729584   0.8769727   0.8770996   0.8576568   0.8576691
   0.8586352   0.8586444   0.8719575   0.8729742   0.8771995   0.8768367
   5.9254758   6.1811776   6.1807862   6.1678938   6.1679234   5.9253543
   5.9463287   6.1679324   6.1673410   6.1715415   6.1694096   5.9450763
   5.9258730   6.1795672   6.1808723   6.1686414   6.1684283   5.9256025
   8.4934180   8.4927251   8.4902326   8.4920474   8.4880897   8.4958746
 TTTTTTTTTTTTTTTTTTTTTTTTTTTTTT MOQGAD      TELAPSE      134.29 TCPU     3822.85
 TTTTTTTTTTTTTTTTTTTTTTTTTTTTTT SHELLXN     TELAPSE      145.87 TCPU     4192.24
 +++ ENERGIES IN A.U. +++
 ::: EXT EL-POLE                                  -1.7244383315451E+03
 ::: EXT EL-SPHEROPOLE                             1.9067744127788E+01
 ::: BIELET ZONE E-E                               2.3473521934897E+03
 ::: TOTAL E-E                                     6.4198160607237E+02
 ::: TOTAL E-N + N-E                              -3.1042538409016E+03
 ::: TOTAL N-N                                     2.6898219738286E+01
 ::: KINETIC ENERGY                                1.2800084666819E+03
 ::: PSEUDO TOTAL   ENERGY                        -1.1553655484090E+03
 ::: VIRIAL COEFFICIENT                            1.0511801955267E+00
 TTTTTTTTTTTTTTTTTTTTTTTTTTTTTT MONMO3      TELAPSE      146.04 TCPU     4197.72
 NUMERICALLY INTEGRATED DENSITY    198.0000767857
 EXCHANGE ENERGY: -0.126030835882E+03  CORRELATION ENERGY: -0.771602656336E+01
 TTTTTTTTTTTTTTTTTTTTTTTTTTTTTT NUMDFT      TELAPSE      146.82 TCPU     4222.47
 CYC   9 ETOT(AU) -1.289112410854E+03 DETOT -2.99E-08 tst  1.17E-09 PX  1.21E-04

 == SCF ENDED - CONVERGENCE ON ENERGY      E(AU) -1.2891124108543E+03 CYCLES   9


 ENERGY EXPRESSION=HARTREE+FOCK EXCH*0.00000+(HSESOL     EXCH)*1.00000+PBESOL     CORR


 TOTAL ENERGY(DFT)(AU)(  9) -1.2891124108543E+03 DE-3.0E-08 tester 1.2E-09
 TTTTTTTTTTTTTTTTTTTTTTTTTTTTTT EDFT        TELAPSE      146.82 TCPU     4222.48
 
 INFORMATION **** DFTD3 ENERGY **** CALCULATE DFTD3 ENERGY

           DFT-D V3(BJ)
 DF                                         hsesol3c  
 parameters
 s6       :    1.0000
 s8       :    0.0000
 a1       :    0.5196
 a2       :    4.9385
 k1 k3    :   16.0000   -4.0000
 Cutoff   :   50.2022
 CN-Cutoff:   21.1671
 ABC-Cutoff:   21.1671
 
 Edisp /kcal,au:   -30.5563 -0.04869453

 E6    /kcal :   -32.6756
 E8    /kcal :     0.0000
 E6(ABC) "   :   2.119297
 
 INFORMATION **** DFTD3 ENERGY **** NORMAL TERMINATION OF DFTD3 MODULE

 GCP ENERGY CALCULATION
  level        hsesol3c            basis:hsesol3c
  Nbf            474
  Atoms           42

  Parameters: 
  sigma     1.0000
  eta       1.4281
  alpha     0.2936
  beta      1.9467

  dmp_scal      4.0000
  dmp_exp       6.0000
 cutoffs: 
   distance [bohr] 60.0
   noise    [a.u.] 2.2E-16
 SR-damping   T
 ** gCP correction **
  Egcp:        0.0856907667 / (a.u.) ||      53.7718 / (kcal/mol)
 INFORMATION **** GCP **** NORMAL TERMINATION OF GCP MODULE

 *******************************************************************************

 DFT-D3-GCP DISPERSION AND COUNTERPOISE CORRECTION

 D3 DISPERSION ENERGY (AU)      -4.8694528419039E-02
 GCP ENERGY (AU)                 8.5690766693684E-02
 TOTAL ENERGY + DISP + GCP (AU) -1.2890754146160E+03

 *******************************************************************************

 EIGENVECTORS IN FORTRAN UNIT 10
 TTTTTTTTTTTTTTTTTTTTTTTTTTTTTT END         TELAPSE      149.22 TCPU     4230.85
 EEEEEEEEEE TERMINATION  DATE 02 12 2025 TIME 07:56:01.4
