 Default number of threads is:           32

         
 *******************************************************************************
 *                                                                             *
 *                               CRYSTAL23                                     *
 *                      public : 1.0.1 - October 2022                          *
 *                       HTTP://WWW.CRYSTAL.UNITO.IT                           *
 *                                                                             *
 *                              MAIN AUTHORS                                   *
 *                                                                             *
 *  R. DOVESI(1,11), V.R. SAUNDERS(2), C. ROETTI(1,11), R. ORLANDO(1,11),      *
 *  C.M. ZICOVICH-WILSON(1,3), F. PASCALE(4), B. CIVALLERI(1,11),              *
 *  K. DOLL(5), N.M. HARRISON(6), I.J. BUSH(7), Ph. D'ARCO(8),                 *
 *  M. LLUNELL(9), M. CAUSA'(10), Y. NOEL(8), L. MASCHIO(1,11), A. ERBA(1,11)  *
 *  M. RE'RAT(14), S. CASASSA(1,11), B.G. SEARLE(2), J.K. DESMARAIS(1)         *
 *                                                                             *
 *        CONTRIBUTIONS TO THE CODE HAVE ALSO BEEN GIVEN BY                    *
 *                                                                             *
 *  M. FERRABONE(1,11), M. DE LA PIERRE(1,11), M. FERRERO(1,11),               *
 *  J. BAIMA(1,11), E. ALBANESE(1,11), M.F. PEINTINGER(12), R. BAST(13),       *
 *  B. KIRTMAN(15), V. LACIVITA(1,11), R. DEMICHELIS(1,16)                     *
 *  G. BRANDEBURG(17), S. SALUSTRO(1,11), G. SANSONE(1,11)                     *
 *  M.T. RUGGIERO(18), L.E. DAGA(1), L. DONA'(1), A. COSSARD(1)                *
 *                                                                             *
 * (1) THEORETICAL CHEMISTRY GROUP - UNIVERSITA' DI TORINO - TORINO (ITALY)    *
 * (2) SCIENTIFIC COMPUTING DEPARTMENT - STFC DARESBURY (UK)                   *
 * (3) UNIVERSIDAD AUTONOMA DEL ESTADO DE MORELOS - CUERNAVACA (MEXICO)        *
 * (4) UNIVERSITE' DE LORRAINE - NANCY (FRANCE)                                *
 * (5) UNIVERSITAET STUTTGART- STUTTGART (GERMANY)                             *
 * (6) IMPERIAL COLLEGE - LONDON (UK)                                          *
 * (7) SCIENTIFIC COMPUTING DEPARTMENT - STFC RAL (UK)                         *
 * (8) UPMC - SORBONNE UNIVERSITES - PARIS (FRANCE)                            *
 * (9) UNIVERSIDAD DE BARCELONA - BARCELONA (SPAIN)                            *
 *(10) UNIVERSITA' DI NAPOLI "FEDERICO II" - NAPOLI (ITALY)                    *
 *(11) NIS - NANOSTRUCTURED INTERFACES AND SURFACES - TORINO (ITALY)           *
 *(12) MPI FUER CHEMISCHE ENERGIEKONVERSION - MUELHEIM AN DER RUHR (GERMANY)   *
 *(13) UNIVERSITY OF TROMSO - TROMSO (NORWAY)                                  *
 *(14) UNIVERSITE' DE PAU ET DES PAYS DE L'ADOUR - PAU (FRANCE)                *
 *(15) UNIVERSITY OF CALIFORNIA SANTA BARBARA - SANTA BARBARA (USA)            *
 *(16) CURTIN UNIVERSITY - PERTH (AUSTRALIA)                                   *
 *(17) UNIVERSITY COLLEGE LONDON - LONDON (UK)                                 *
 *(18) UNIVERSITY OF VERMONT - BURLINGTON (USA)                                *
 *                                                                             *
 *******************************************************************************
 EEEEEEEEEE STARTING  DATE 02 12 2025 TIME 08:06:31.7
 COF-5_z45_inc_L030                                                              

 CRYSTAL CALCULATION
 (INPUT ACCORDING TO THE INTERNATIONAL TABLES FOR X-RAY CRYSTALLOGRAPHY)
 CRYSTAL FAMILY                       :  TRICLINIC   
 CRYSTAL CLASS  (GROTH - 1921)        :  TRICLINIC PEDIAL                     

 SPACE GROUP (NONCENTROSYMMETRIC)     :  P 1             

 LATTICE PARAMETERS  (ANGSTROMS AND DEGREES) - CONVENTIONAL CELL
        A           B           C        ALPHA        BETA       GAMMA
    15.02070    15.04439     5.40833    61.30942    89.99941   120.05310


 NUMBER OF IRREDUCIBLE ATOMS IN THE CONVENTIONAL CELL:   42

 INPUT COORDINATES

 ATOM AT. N.              COORDINATES
   1   5     5.577623500000E-01  1.127342000000E-01  5.006502800000E-01
   2   5     7.165406000000E-01  2.717586200000E-01  5.006602700000E-01
   3   5     5.574741300000E-01  2.717754400000E-01  4.992303100000E-01
   4   5     1.703817700000E-01  4.979134500000E-01  5.054452500000E-01
   5   5     3.284890600000E-01  4.964810000000E-01  5.094891200000E-01
   6   5     3.294509900000E-01  6.571938800000E-01  5.035235200000E-01
   7   1     8.461168600000E-01  1.933096100000E-01  5.045486600000E-01
   8   1     4.190413000000E-02  5.778711800000E-01  4.929584000000E-01
   9   1     8.475378300000E-01  4.806035600000E-01  4.928201000000E-01
  10   1     4.060610000000E-02  2.906227600000E-01  5.041172400000E-01
  11   1     5.361314500000E-01  7.870614000000E-01  5.042393000000E-01
  12   1     3.511067800000E-01 -1.530883000000E-02  4.945906100000E-01
  13   1     2.526154800000E-01  7.906782600000E-01  4.958974500000E-01
  14   1     6.344481100000E-01 -1.881976000000E-02  5.023779800000E-01
  15   1     5.364736300000E-01  5.758819200000E-01  4.977949200000E-01
  16   1     3.482062000000E-01  1.923604900000E-01  5.060780000000E-01
  17   1     2.508843100000E-01  2.883660200000E-01  5.057131200000E-01
  18   1     6.341571700000E-01  4.798076300000E-01  4.987283600000E-01
  19   6     8.358619900000E-01  3.312453000000E-01  5.004102800000E-01
  20   6     8.901821200000E-01  2.776619500000E-01  5.021763600000E-01
  21   6    -2.062060000000E-03  4.934710600000E-01  4.957835100000E-01
  22   6     8.909205000000E-01  4.398684700000E-01  4.961206600000E-01
  23   6    -2.712860000000E-03  3.313751900000E-01  5.015326600000E-01
  24   6     5.204074000000E-02  4.395502800000E-01  4.993494000000E-01
  25   6     3.886026200000E-01  7.769458800000E-01  5.018917300000E-01
  26   6     4.964307900000E-01  8.313380300000E-01  5.022819100000E-01
  27   6     3.905810300000E-01 -5.990132000000E-02  4.970055800000E-01
  28   6     3.363334500000E-01  8.328857400000E-01  4.981242400000E-01
  29   6     5.506802000000E-01 -6.146429000000E-02  5.008445200000E-01
  30   6     4.981884100000E-01 -6.096850000000E-03  4.992202700000E-01
  31   6     3.884228500000E-01  4.383301700000E-01  4.999914800000E-01
  32   6     4.963357700000E-01  4.917122200000E-01  4.994400000000E-01
  33   6     3.889754700000E-01  2.766406400000E-01  5.039635000000E-01
  34   6     3.351442600000E-01  3.298263000000E-01  5.033555700000E-01
  35   6     5.500409700000E-01  4.384315100000E-01  5.003783500000E-01
  36   6     4.971428600000E-01  3.304221000000E-01  5.016201900000E-01
  37   8     5.047646600000E-01  1.657869600000E-01  4.996201700000E-01
  38   8     6.635785900000E-01  1.653953200000E-01  5.026102000000E-01
  39   8     6.637093000000E-01  3.251803600000E-01  4.980905100000E-01
  40   8     2.235310700000E-01  6.043944800000E-01  5.027568700000E-01
  41   8     2.224260300000E-01  4.436078200000E-01  5.102445600000E-01
  42   8     3.820539400000E-01  6.035353900000E-01  5.052285800000E-01

 *******************************************************************************

 << INFORMATION >>: FROM NOW ON, ALL COORDINATES REFER TO THE PRIMITIVE CELL

 *******************************************************************************

 LATTICE PARAMETERS  (ANGSTROMS AND DEGREES) - PRIMITIVE CELL
       A          B          C        ALPHA      BETA     GAMMA        VOLUME
   15.02070   15.04439    5.40833    61.30942  89.99941 120.05310    880.222389

 COORDINATES OF THE EQUIVALENT ATOMS (FRACTIONAL UNITS)

 N. ATOM EQUIV AT. N.          X                  Y                  Z

   1   1   1    5 B    -4.42237650000E-01  1.12734200000E-01 -4.99349720000E-01

   2   2   1    5 B    -2.83459400000E-01  2.71758620000E-01 -4.99339730000E-01

   3   3   1    5 B    -4.42525870000E-01  2.71775440000E-01  4.99230310000E-01

   4   4   1    5 B     1.70381770000E-01  4.97913450000E-01 -4.94554750000E-01

   5   5   1    5 B     3.28489060000E-01  4.96481000000E-01 -4.90510880000E-01

   6   6   1    5 B     3.29450990000E-01 -3.42806120000E-01 -4.96476480000E-01

   7   7   1    1 H    -1.53883140000E-01  1.93309610000E-01 -4.95451340000E-01

   8   8   1    1 H     4.19041300000E-02 -4.22128820000E-01  4.92958400000E-01

   9   9   1    1 H    -1.52462170000E-01  4.80603560000E-01  4.92820100000E-01

  10  10   1    1 H     4.06061000000E-02  2.90622760000E-01 -4.95882760000E-01

  11  11   1    1 H    -4.63868550000E-01 -2.12938600000E-01 -4.95760700000E-01

  12  12   1    1 H     3.51106780000E-01 -1.53088300000E-02  4.94590610000E-01

  13  13   1    1 H     2.52615480000E-01 -2.09321740000E-01  4.95897450000E-01

  14  14   1    1 H    -3.65551890000E-01 -1.88197600000E-02 -4.97622020000E-01

  15  15   1    1 H    -4.63526370000E-01 -4.24118080000E-01  4.97794920000E-01

  16  16   1    1 H     3.48206200000E-01  1.92360490000E-01 -4.93922000000E-01

  17  17   1    1 H     2.50884310000E-01  2.88366020000E-01 -4.94286880000E-01

  18  18   1    1 H    -3.65842830000E-01  4.79807630000E-01  4.98728360000E-01

  19  19   1    6 C    -1.64138010000E-01  3.31245300000E-01 -4.99589720000E-01

  20  20   1    6 C    -1.09817880000E-01  2.77661950000E-01 -4.97823640000E-01

  21  21   1    6 C    -2.06206000000E-03  4.93471060000E-01  4.95783510000E-01

  22  22   1    6 C    -1.09079500000E-01  4.39868470000E-01  4.96120660000E-01

  23  23   1    6 C    -2.71286000000E-03  3.31375190000E-01 -4.98467340000E-01

  24  24   1    6 C     5.20407400000E-02  4.39550280000E-01  4.99349400000E-01

  25  25   1    6 C     3.88602620000E-01 -2.23054120000E-01 -4.98108270000E-01

  26  26   1    6 C     4.96430790000E-01 -1.68661970000E-01 -4.97718090000E-01

  27  27   1    6 C     3.90581030000E-01 -5.99013200000E-02  4.97005580000E-01

  28  28   1    6 C     3.36333450000E-01 -1.67114260000E-01  4.98124240000E-01

  29  29   1    6 C    -4.49319800000E-01 -6.14642900000E-02 -4.99155480000E-01

  30  30   1    6 C     4.98188410000E-01 -6.09685000000E-03  4.99220270000E-01

  31  31   1    6 C     3.88422850000E-01  4.38330170000E-01  4.99991480000E-01

  32  32   1    6 C     4.96335770000E-01  4.91712220000E-01  4.99440000000E-01

  33  33   1    6 C     3.88975470000E-01  2.76640640000E-01 -4.96036500000E-01

  34  34   1    6 C     3.35144260000E-01  3.29826300000E-01 -4.96644430000E-01

  35  35   1    6 C    -4.49959030000E-01  4.38431510000E-01 -4.99621650000E-01

  36  36   1    6 C     4.97142860000E-01  3.30422100000E-01 -4.98379810000E-01

  37  37   1    8 O    -4.95235340000E-01  1.65786960000E-01  4.99620170000E-01

  38  38   1    8 O    -3.36421410000E-01  1.65395320000E-01 -4.97389800000E-01

  39  39   1    8 O    -3.36290700000E-01  3.25180360000E-01  4.98090510000E-01

  40  40   1    8 O     2.23531070000E-01 -3.95605520000E-01 -4.97243130000E-01

  41  41   1    8 O     2.22426030000E-01  4.43607820000E-01 -4.89755440000E-01

  42  42   1    8 O     3.82053940000E-01 -3.96464610000E-01 -4.94771420000E-01

 NUMBER OF SYMMETRY OPERATORS         :    1
 *******************************************************************************
 * GEOMETRY EDITING - INPUT COORDINATES ARE GIVEN IN ANGSTROM         
 *******************************************************************************

 GCALCO - MAX INDICES DIRECT LATTICE VECTOR    10    11    28
 NO.OF VECTORS CREATED 6999 STARS 3500 RMAX   214.80968 BOHR

 GEOMETRY FOR WAVE FUNCTION - DIMENSIONALITY OF THE SYSTEM    3
 (NON PERIODIC DIRECTION: LATTICE PARAMETER FORMALLY SET TO 500)
 *******************************************************************************
 LATTICE PARAMETERS (ANGSTROMS AND DEGREES) - BOHR = 0.5291772083 ANGSTROM
 PRIMITIVE CELL - CENTRING CODE 1/0 VOLUME=   880.222389 - DENSITY  0.736 g/cm^3
         A              B              C           ALPHA      BETA       GAMMA 
    15.02070100    15.04438700     5.40832700    61.309425  89.999406 120.053104
 *******************************************************************************
 ATOMS IN THE ASYMMETRIC UNIT   42 - ATOMS IN THE UNIT CELL:   42
     ATOM                 X/A                 Y/B                 Z/C    
 *******************************************************************************
      1 T   5 B    -4.422376500000E-01  1.127342000000E-01 -4.993497200000E-01
      2 T   5 B    -2.834594000000E-01  2.717586200000E-01 -4.993397300000E-01
      3 T   5 B    -4.425258700000E-01  2.717754400000E-01  4.992303100000E-01
      4 T   5 B     1.703817700000E-01  4.979134500000E-01 -4.945547500000E-01
      5 T   5 B     3.284890600000E-01  4.964810000000E-01 -4.905108800000E-01
      6 T   5 B     3.294509900000E-01 -3.428061200000E-01 -4.964764800000E-01
      7 T   1 H    -1.538831400000E-01  1.933096100000E-01 -4.954513400000E-01
      8 T   1 H     4.190413000000E-02 -4.221288200000E-01  4.929584000000E-01
      9 T   1 H    -1.524621700000E-01  4.806035600000E-01  4.928201000000E-01
     10 T   1 H     4.060610000000E-02  2.906227600000E-01 -4.958827600000E-01
     11 T   1 H    -4.638685500000E-01 -2.129386000000E-01 -4.957607000000E-01
     12 T   1 H     3.511067800000E-01 -1.530883000000E-02  4.945906100000E-01
     13 T   1 H     2.526154800000E-01 -2.093217400000E-01  4.958974500000E-01
     14 T   1 H    -3.655518900000E-01 -1.881976000000E-02 -4.976220200000E-01
     15 T   1 H    -4.635263700000E-01 -4.241180800000E-01  4.977949200000E-01
     16 T   1 H     3.482062000000E-01  1.923604900000E-01 -4.939220000000E-01
     17 T   1 H     2.508843100000E-01  2.883660200000E-01 -4.942868800000E-01
     18 T   1 H    -3.658428300000E-01  4.798076300000E-01  4.987283600000E-01
     19 T   6 C    -1.641380100000E-01  3.312453000000E-01 -4.995897200000E-01
     20 T   6 C    -1.098178800000E-01  2.776619500000E-01 -4.978236400000E-01
     21 T   6 C    -2.062060000000E-03  4.934710600000E-01  4.957835100000E-01
     22 T   6 C    -1.090795000000E-01  4.398684700000E-01  4.961206600000E-01
     23 T   6 C    -2.712860000000E-03  3.313751900000E-01 -4.984673400000E-01
     24 T   6 C     5.204074000000E-02  4.395502800000E-01  4.993494000000E-01
     25 T   6 C     3.886026200000E-01 -2.230541200000E-01 -4.981082700000E-01
     26 T   6 C     4.964307900000E-01 -1.686619700000E-01 -4.977180900000E-01
     27 T   6 C     3.905810300000E-01 -5.990132000000E-02  4.970055800000E-01
     28 T   6 C     3.363334500000E-01 -1.671142600000E-01  4.981242400000E-01
     29 T   6 C    -4.493198000000E-01 -6.146429000000E-02 -4.991554800000E-01
     30 T   6 C     4.981884100000E-01 -6.096850000000E-03  4.992202700000E-01
     31 T   6 C     3.884228500000E-01  4.383301700000E-01  4.999914800000E-01
     32 T   6 C     4.963357700000E-01  4.917122200000E-01  4.994400000000E-01
     33 T   6 C     3.889754700000E-01  2.766406400000E-01 -4.960365000000E-01
     34 T   6 C     3.351442600000E-01  3.298263000000E-01 -4.966444300000E-01
     35 T   6 C    -4.499590300000E-01  4.384315100000E-01 -4.996216500000E-01
     36 T   6 C     4.971428600000E-01  3.304221000000E-01 -4.983798100000E-01
     37 T   8 O    -4.952353400000E-01  1.657869600000E-01  4.996201700000E-01
     38 T   8 O    -3.364214100000E-01  1.653953200000E-01 -4.973898000000E-01
     39 T   8 O    -3.362907000000E-01  3.251803600000E-01  4.980905100000E-01
     40 T   8 O     2.235310700000E-01 -3.956055200000E-01 -4.972431300000E-01
     41 T   8 O     2.224260300000E-01  4.436078200000E-01 -4.897554400000E-01
     42 T   8 O     3.820539400000E-01 -3.964646100000E-01 -4.947714200000E-01

 T = ATOM BELONGING TO THE ASYMMETRIC UNIT

 ****    1 SYMMOPS - TRANSLATORS IN FRACTIONAL UNITS
 **** MATRICES AND TRANSLATORS IN THE CRYSTALLOGRAPHIC REFERENCE FRAME
   V INV                    ROTATION MATRICES                   TRANSLATORS
   1   1  1.00 -0.00  0.00  0.00  1.00  0.00  0.00  0.00  1.00  0.00  0.00  0.00

 DIRECT LATTICE VECTORS CARTESIAN COMPONENTS (ANGSTROM)
          X                    Y                    Z
   0.130013421718E+02  -0.752240388864E+01   0.000000000000E+00
   0.000000000000E+00   0.150443870000E+02   0.000000000000E+00
   0.150232197785E+01   0.259642531457E+01   0.450017835198E+01


 CARTESIAN COORDINATES - PRIMITIVE CELL
 *******************************************************************************
 *      ATOM          X(ANGSTROM)         Y(ANGSTROM)         Z(ANGSTROM)
 *******************************************************************************
    1     5 B    -6.499867067881E+00  3.726182897168E+00 -2.247162800013E+00
    2     5 B    -4.435521701999E+00  4.924239627156E+00 -2.247117843231E+00
    3     5 B     6.495594604913E+00 -1.405061766759E+00 -2.253552918267E+00
    4     5 B     1.472211221427E+00  4.925047672763E+00 -2.225584579820E+00
    5     5 B     3.533893393345E+00  3.724650053923E+00 -2.207386443588E+00
    6     5 B     3.537437522429E+00  6.119751555698E+00 -2.234232707565E+00
    7     1 H    -2.745014794645E+00  2.779393313078E+00 -2.229619394729E+00
    8     1 H     1.285392171027E+00 -5.385959453606E+00  2.218400720108E+00
    9     1 H    -1.241838373064E+00 -5.387548446135E+00  2.217778345442E+00
   10     1 H    -2.170417684244E-01  2.779263236783E+00 -2.231560861673E+00
   11     1 H    -5.273383958788E+00  1.595095561822E+00  2.269166782079E+00
   12     1 H     5.307893729052E+00 -1.587311390085E+00  2.225745956216E+00
   13     1 H     4.029337931262E+00 -3.761832240546E+00  2.231626969293E+00
   14     1 H    -3.997931722886E+00  3.771084110904E+00  2.260790510109E+00
   15     1 H    -5.278616693231E+00 -1.601276629289E+00  2.240165922711E+00
   16     1 H     3.785118076589E+00 -1.007833602083E+00 -2.222737091968E+00
   17     1 H     2.519254716652E+00  1.167657925495E+00 -2.224379117045E+00
   18     1 H    -4.007197237714E+00 -3.779046862705E+00  2.244366569192E+00
   19     6 C    -2.884559047669E+00  4.920947493922E+00 -2.248242842817E+00
   20     6 C    -2.175671229925E+00  3.710786377442E+00 -2.240295167833E+00
   21     6 C    -7.843050621608E-01  6.130320789443E+00 -2.269064133011E+00
   22     6 C    -6.728469322418E-01 -6.318155212546E+00  2.232631454103E+00
   23     6 C    -7.841292612473E-01  3.711510609110E+00 -2.243191932638E+00
   24     6 C    -7.553893199220E-02  4.921391161740E+00 -2.253016992027E+00
   25     6 C    -7.194983563825E+00  2.546589918538E+00  2.258602298385E+00
   26     6 C    -5.792486453910E+00  2.554772500817E+00  2.260358177975E+00
   27     6 C     5.824740022783E+00 -2.548849029398E+00  2.236613751931E+00
   28     6 C     5.121129260716E+00 -3.750825266282E+00  2.241647921446E+00
   29     6 C    -5.089330734471E+00  3.755677835715E+00  2.253889666613E+00
   30     6 C    -5.774234603942E+00  4.979294231675E+00  2.246580251925E+00
   31     6 C     4.298844591477E+00  2.374300375150E+00 -2.250127517511E+00
   32     6 C     5.701028888627E+00  2.364204148528E+00 -2.252609275868E+00
   33     6 C     4.311996646130E+00 -5.206346557736E-02 -2.232252719093E+00
   34     6 C     3.611205358799E+00  1.151443844906E+00 -2.234988512519E+00
   35     6 C    -5.098341919863E+00 -3.764485118761E+00  2.251791818471E+00
   36     6 C     5.714797489234E+00 -6.271739247649E-02 -2.242798032027E+00
   37     8 O     5.810886444996E+00 -2.602079312952E+00 -2.251798478735E+00
   38     8 O    -5.121169493420E+00  3.727533456946E+00 -2.238342810457E+00
   39     8 O    -3.623938139753E+00 -6.329278540855E+00  2.241496130430E+00
   40     8 O     2.159184644558E+00  6.120198817355E+00 -2.237682769298E+00
   41     8 O     2.156066562655E+00  3.729015864935E+00 -2.203986828854E+00
   42     8 O     4.223908023736E+00  4.921218891615E+00 -2.226559633464E+00

 *******************************************************************************
 STARTING BASIS SET HANDLING 
 *******************************************************************************

 Loading internal basis set: SOLDEF2MSVP         

 Please cite in your publication:
 L. Dona', J. G. Brandenburg and B. Civalleri, J. Chem. Phys., 151, 121101 (2019
 )                                                                              
                                                                                
                    

 *******************************************************************************
 LOCAL ATOMIC FUNCTIONS BASIS SET
 *******************************************************************************
   ATOM   X(AU)   Y(AU)   Z(AU)  N. TYPE  EXPONENT  S COEF   P COEF   D/F/G COEF
 *******************************************************************************
   1 B  -12.283   7.041  -4.247
                                  1 S  
                                         2.410E+03 1.755E-03 0.000E+00 0.000E+00
                                         3.619E+02 1.344E-02 0.000E+00 0.000E+00
                                         8.231E+01 6.637E-02 0.000E+00 0.000E+00
                                         2.311E+01 2.303E-01 0.000E+00 0.000E+00
                                         7.252E+00 5.150E-01 0.000E+00 0.000E+00
                                  2 S  
                                         2.367E+00 1.000E+00 0.000E+00 0.000E+00
                                  3 S  
                                         5.533E-01 1.000E+00 0.000E+00 0.000E+00
                                  4 S  
                                         1.716E-01 1.000E+00 0.000E+00 0.000E+00
                           5-     7 P  
                                         6.002E+00 0.000E+00-3.555E-02 0.000E+00
                                         1.240E+00 0.000E+00-1.983E-01 0.000E+00
                                         3.367E-01 0.000E+00-5.048E-01 0.000E+00
                           8-    10 P  
                                         1.256E-01 0.000E+00 1.000E+00 0.000E+00
                          11-    15 D  
                                         8.880E-01 0.000E+00 0.000E+00 1.000E+00
   2 B   -8.382   9.305  -4.246
   3 B   12.275  -2.655  -4.259
   4 B    2.782   9.307  -4.206
   5 B    6.678   7.039  -4.171
   6 B    6.685  11.565  -4.222
   7 H   -5.187   5.252  -4.213
                                 91 S  
                                         1.874E+01 1.968E-02 0.000E+00 0.000E+00
                                         2.826E+00 1.380E-01 0.000E+00 0.000E+00
                                         6.401E-01 4.783E-01 0.000E+00 0.000E+00
                                 92 S  
                                         1.756E-01 1.000E+00 0.000E+00 0.000E+00
   8 H    2.429 -10.178   4.192
   9 H   -2.347 -10.181   4.191
  10 H   -0.410   5.252  -4.217
  11 H   -9.965   3.014   4.288
  12 H   10.030  -3.000   4.206
  13 H    7.614  -7.109   4.217
  14 H   -7.555   7.126   4.272
  15 H   -9.975  -3.026   4.233
  16 H    7.153  -1.905  -4.200
  17 H    4.761   2.207  -4.203
  18 H   -7.573  -7.141   4.241
  19 C   -5.451   9.299  -4.249
                                115 S  
                                         3.624E+03 1.634E-03 0.000E+00 0.000E+00
                                         5.440E+02 1.252E-02 0.000E+00 0.000E+00
                                         1.237E+02 6.211E-02 0.000E+00 0.000E+00
                                         3.476E+01 2.182E-01 0.000E+00 0.000E+00
                                         1.093E+01 4.980E-01 0.000E+00 0.000E+00
                                116 S  
                                         3.574E+00 1.000E+00 0.000E+00 0.000E+00
                                117 S  
                                         7.742E-01 1.000E+00 0.000E+00 0.000E+00
                                118 S  
                                         2.330E-01 1.000E+00 0.000E+00 0.000E+00
                         119-   121 P  
                                         9.443E+00 0.000E+00 3.790E-02 0.000E+00
                                         2.002E+00 0.000E+00 2.082E-01 0.000E+00
                                         5.463E-01 0.000E+00 5.047E-01 0.000E+00
                         122-   124 P  
                                         1.820E-01 0.000E+00 1.000E+00 0.000E+00
                         125-   129 D  
                                         8.880E-01 0.000E+00 0.000E+00 1.000E+00
  20 C   -4.111   7.012  -4.234
  21 C   -1.482  11.585  -4.288
  22 C   -1.271 -11.940   4.219
  23 C   -1.482   7.014  -4.239
  24 C   -0.143   9.300  -4.258
  25 C  -13.597   4.812   4.268
  26 C  -10.946   4.828   4.271
  27 C   11.007  -4.817   4.227
  28 C    9.678  -7.088   4.236
  29 C   -9.617   7.097   4.259
  30 C  -10.912   9.410   4.245
  31 C    8.124   4.487  -4.252
  32 C   10.773   4.468  -4.257
  33 C    8.148  -0.098  -4.218
  34 C    6.824   2.176  -4.224
  35 C   -9.634  -7.114   4.255
  36 C   10.799  -0.119  -4.238
  37 O   10.981  -4.917  -4.255
                                385 S  
                                         6.773E+03 1.727E-03 0.000E+00 0.000E+00
                                         1.017E+03 1.325E-02 0.000E+00 0.000E+00
                                         2.313E+02 6.603E-02 0.000E+00 0.000E+00
                                         6.501E+01 2.353E-01 0.000E+00 0.000E+00
                                         2.050E+01 5.498E-01 0.000E+00 0.000E+00
                                386 S  
                                         6.716E+00 1.000E+00 0.000E+00 0.000E+00
                                387 S  
                                         1.147E+00 1.000E+00 0.000E+00 0.000E+00
                                388 S  
                                         3.342E-01 1.000E+00 0.000E+00 0.000E+00
                         389-   391 P  
                                         1.769E+01 0.000E+00 4.359E-02 0.000E+00
                                         3.854E+00 0.000E+00 2.318E-01 0.000E+00
                                         1.047E+00 0.000E+00 5.146E-01 0.000E+00
                         392-   394 P  
                                         2.759E-01 0.000E+00 1.000E+00 0.000E+00
                         395-   399 D  
                                         8.000E-01 0.000E+00 0.000E+00 1.000E+00
  38 O   -9.678   7.044  -4.230
  39 O   -6.848 -11.961   4.236
  40 O    4.080  11.565  -4.229
  41 O    4.074   7.047  -4.165
  42 O    7.982   9.300  -4.208

 *******************************************************************************
 FINISHED BASIS SET HANDLING 
 *******************************************************************************

 INFORMATION **** SET_MPP **** PCRYSTAL CALCULATION
 INFORMATION **** READM2 **** NEW DEFAULT: FOCK/KS MATRIX MIXING SET TO 30 %
 INFORMATION **** READM2 **** NEW DEFAULT: FULL DIRECT SCF MODE
 INFORMATION **** READM2 **** NEW DEFAULT: COULOMB BIPOLAR BUFFER SET TO 32 Mb
 INFORMATION **** READM2 **** NEW DEFAULT: EXCHANGE BIPOLAR BUFFER SET TO 32 Mb

 *******************************************************************************
 NEW DEFAULT: DFT INTEGRATION GRID INCREASED TO XLGRID
 NEW DEFAULT: DIIS ACCELERATOR ACTIVE
 USE KEYWORD NODIIS TO TURN IT OFF
 *******************************************************************************

 WARNING **** RDDFTP **** HSEsol-HJS ACTIVE
 RANGE SEPARATION - OMEGA:   0.110000000000000     
 WARNING **** RDDFTP **** HSEsol-3c has to be combined with sol-def2-mSVP basis set
 *******************************************************************************
 N. OF ATOMS PER CELL        42  COULOMB OVERLAP TOL         (T1) 10**   -6
 NUMBER OF SHELLS           234  COULOMB PENETRATION TOL     (T2) 10**   -6
 NUMBER OF AO               474  EXCHANGE OVERLAP TOL        (T3) 10**   -6
 N. OF ELECTRONS PER CELL   198  EXCHANGE PSEUDO OVP (F(G))  (T4) 10**   -6
 CORE ELECTRONS PER CELL     60  EXCHANGE PSEUDO OVP (P(G))  (T5) 10**  -12
 N. OF SYMMETRY OPERATORS     1  POLE ORDER IN MONO ZONE                  4
 *******************************************************************************
 TYPE OF CALCULATION :  RESTRICTED CLOSED SHELL
 KOHN-SHAM HAMILTONIAN

 (EXCHANGE)[CORRELATION] FUNCTIONAL:(HSEsol GGA)[PBEsol]

 RANGE-SEPARATED HYBRID FUNCTIONAL 
 OMEGA (SHORT-RANGE)[LONG-RANGE]:(    0.1100)[    0.0000]

 HYBRID EXCHANGE - PERCENTAGE OF FOCK EXCHANGE    25.0000

 CAPPA:IS1  2;IS2  2;IS3  8; K PTS MONK NET  20; SYMMOPS:K SPACE   2;G SPACE   1

 *******************************************************************************
 MAX NUMBER OF SCF CYCLES      50  CONVERGENCE ON DELTAP        10**-16
 WEIGHT OF F(I) IN F(I+1)      30% CONVERGENCE ON ENERGY        10**- 6
 SHRINK. FACT.(MONKH.)    2  2  8  NUMBER OF K POINTS IN THE IBZ     20
 SHRINKING FACTOR(GILAT NET)    8  NUMBER OF K POINTS(GILAT NET)   1028
 *******************************************************************************
 *** K POINTS COORDINATES (OBLIQUE COORDINATES IN UNITS OF IS =  2)
   1-R(  0  0  0)   2-R(  1  0  0)   3-R(  0  1  0)   4-R(  1  1  0)
   5-C(  0  0  1)   6-C(  1  0  1)   7-C(  0  1  1)   8-C(  1  1  1)
   9-C(  0  0  2)  10-C(  1  0  2)  11-C(  0  1  2)  12-C(  1  1  2)
  13-C(  0  0  3)  14-C(  1  0  3)  15-C(  0  1  3)  16-C(  1  1  3)
  17-R(  0  0  4)  18-R(  1  0  4)  19-R(  0  1  4)  20-R(  1  1  4)

 DIRECT LATTICE VECTORS COMPON. (A.U.)     RECIP. LATTICE VECTORS COMPON. (A.U.) 
        X            Y            Z              X            Y            Z
   24.5689761  -14.2152832    0.0000000      0.2557366    0.0000000   -0.0853741
    0.0000000   28.4297713    0.0000000      0.1278719    0.2210072   -0.1702007
    2.8389771    4.9065328    8.5041046      0.0000000    0.0000000    0.7388415

 DISK SPACE FOR EIGENVECTORS (FTN 10)     7189632 REALS

 SYMMETRY ADAPTION OF THE BLOCH FUNCTIONS DISABLED
 TTTTTTTTTTTTTTTTTTTTTTTTTTTTTT gordsh1     TELAPSE        0.04 TCPU        0.04

 MATRIX SIZE: P(G)  287480, F(G)   57605, P(G) IRR  144877, F(G) IRR   58229
 MAX G-VECTOR INDEX FOR 1- AND 2-ELECTRON INTEGRALS  59

 TTTTTTTTTTTTTTTTTTTTTTTTTTTTTT INPUT       TELAPSE        0.31 TCPU        0.31

 NEIGHBORS OF THE NON-EQUIVALENT ATOMS

 N = NUMBER OF NEIGHBORS AT DISTANCE R
    ATOM  N     R/ANG      R/AU   NEIGHBORS (ATOM LABELS AND CELL INDICES)
   1 B    1     1.3787     2.6054   38 O    0 0 0
   1 B    1     1.3795     2.6068   37 O   -1 0 0
   1 B    1     1.5517     2.9323   30 C    0 0-1
   1 B    1     2.3868     4.5104    2 B    0 0 0
   1 B    1     2.3912     4.5187    3 B   -1 0 0
   1 B    1     2.5629     4.8432   27 C   -1 0-1

   2 B    1     1.3792     2.6064   38 O    0 0 0
   2 B    1     1.3798     2.6075   39 O    0 1-1
   2 B    1     1.5510     2.9309   19 C    0 0 0
   2 B    1     2.3868     4.5104    1 B    0 0 0
   2 B    1     2.3894     4.5154    3 B   -1 0 0
   2 B    1     2.5618     4.8412   22 C    0 1-1

   3 B    1     1.3790     2.6060   37 O    0 0 0
   3 B    1     1.3795     2.6069   39 O    1 1-1
   3 B    1     1.5529     2.9346   36 C    0 0 0
   3 B    1     2.3894     4.5154    2 B    1 0 0
   3 B    1     2.3912     4.5187    1 B    1 0 0
   3 B    1     2.5679     4.8526   35 C    1 1-1

   4 B    1     1.3779     2.6039   41 O    0 0 0
   4 B    1     1.3786     2.6051   40 O    0 0 0
   4 B    1     1.5480     2.9253   24 C    0 0 0
   4 B    1     2.3858     4.5084    5 B    0 0 0
   4 B    1     2.3859     4.5087    6 B    0 0 0
   4 B    1     2.5586     4.8351   21 C    0 0 0

   5 B    1     1.3778     2.6037   41 O    0 0 0
   5 B    1     1.3814     2.6105   42 O    0 0 0
   5 B    1     1.5526     2.9339   31 C    0 0 0
   5 B    1     2.3858     4.5084    4 B    0 0 0
   5 B    1     2.3953     4.5264    6 B    0 0 0
   5 B    1     2.5592     4.8361   32 C    0 0 0

   6 B    1     1.3783     2.6045   40 O    0 0 0
   6 B    1     1.3812     2.6101   42 O    0 0 0
   6 B    1     1.5546     2.9377   25 C    1 1-1
   6 B    1     2.3859     4.5087    4 B    0 0 0
   6 B    1     2.3953     4.5264    5 B    0 0 0
   6 B    1     2.5605     4.8387   26 C    1 1-1

   7 H    1     1.0917     2.0630   20 C    0 0 0
   7 H    1     2.1462     4.0557   19 C    0 0 0
   7 H    1     2.1712     4.1030   23 C    0 0 0
   7 H    1     2.5280     4.7772   10 H    0 0 0
   7 H    1     2.5584     4.8346   38 O    0 0 0
   7 H    1     2.7310     5.1609    2 B    0 0 0

   8 H    1     1.0909     2.0615   21 C    0-1 1
   8 H    1     2.1455     4.0543   24 C    0-1 1
   8 H    1     2.1688     4.0985   22 C    0 0 0
   8 H    1     2.5272     4.7758    9 H    0 0 0
   8 H    1     2.5563     4.8308   40 O    0-1 1
   8 H    1     2.7245     5.1486    4 B    0-1 1

   9 H    1     1.0909     2.0614   22 C    0 0 0
   9 H    1     2.1443     4.0522   19 C    0-1 1
   9 H    1     2.1694     4.0996   21 C    0-1 1
   9 H    1     2.5272     4.7758    8 H    0 0 0
   9 H    1     2.5616     4.8407   39 O    0 0 0
   9 H    1     2.7249     5.1494    2 B    0-1 1

  10 H    1     1.0912     2.0621   23 C    0 0 0
  10 H    1     2.1469     4.0571   24 C    0 0 0
  10 H    1     2.1689     4.0986   20 C    0 0 0
  10 H    1     2.5280     4.7772    7 H    0 0 0
  10 H    1     2.5563     4.8306   41 O    0 0 0
  10 H    1     2.7309     5.1607    4 B    0 0 0

  11 H    1     1.0911     2.0619   26 C    0 0 0
  11 H    1     2.1443     4.0521   25 C    0 0 0
  11 H    1     2.1685     4.0978   29 C    0 0 0
  11 H    1     2.5223     4.7664   14 H    0 0 0
  11 H    1     2.5623     4.8420   42 O   -1-1 1
  11 H    1     2.7179     5.1361    6 B   -1-1 1

  12 H    1     1.0917     2.0630   27 C    0 0 0
  12 H    1     2.1441     4.0519   30 C    1 0 0
  12 H    1     2.1716     4.1038   28 C    0 0 0
  12 H    1     2.5226     4.7669   13 H    0 0 0
  12 H    1     2.5541     4.8266   37 O    0 0 1
  12 H    1     2.7237     5.1471    1 B    1 0 1

  13 H    1     1.0919     2.0634   28 C    0 0 0
  13 H    1     2.1523     4.0672   25 C    1 0 0
  13 H    1     2.1668     4.0946   27 C    0 0 0
  13 H    1     2.5226     4.7669   12 H    0 0 0
  13 H    1     2.5923     4.8988   40 O    0-1 1
  13 H    1     2.7583     5.2125    6 B    0-1 1

  14 H    1     1.0915     2.0627   29 C    0 0 0
  14 H    1     2.1483     4.0597   30 C    0 0 0
  14 H    1     2.1679     4.0968   26 C    0 0 0
  14 H    1     2.5223     4.7664   11 H    0 0 0
  14 H    1     2.5809     4.8771   38 O    0 0 1
  14 H    1     2.7404     5.1785    1 B    0 0 1

  15 H    1     1.0916     2.0628   32 C   -1-1 1
  15 H    1     2.1436     4.0508   31 C   -1-1 1
  15 H    1     2.1707     4.1021   35 C    0 0 0
  15 H    1     2.5217     4.7654   18 H    0 0 0
  15 H    1     2.5568     4.8317   42 O   -1-1 1
  15 H    1     2.7167     5.1338    5 B   -1-1 1

  16 H    1     1.0914     2.0625   33 C    0 0 0
  16 H    1     2.1488     4.0606   36 C    0 0 0
  16 H    1     2.1663     4.0937   34 C    0 0 0
  16 H    1     2.5170     4.7564   17 H    0 0 0
  16 H    1     2.5780     4.8718   37 O    0 0 0
  16 H    1     2.7396     5.1771    3 B    0 0 0

  17 H    1     1.0921     2.0638   34 C    0 0 0
  17 H    1     2.1503     4.0634   31 C    0 0 0
  17 H    1     2.1683     4.0976   33 C    0 0 0
  17 H    1     2.5170     4.7564   16 H    0 0 0
  17 H    1     2.5871     4.8888   41 O    0 0 0
  17 H    1     2.7510     5.1986    5 B    0 0 0

  18 H    1     1.0913     2.0622   35 C    0 0 0
  18 H    1     2.1495     4.0619   36 C   -1-1 1
  18 H    1     2.1656     4.0924   32 C   -1-1 1
  18 H    1     2.5217     4.7654   15 H    0 0 0
  18 H    1     2.5789     4.8734   39 O    0 0 0
  18 H    1     2.7392     5.1763    3 B   -1-1 1

  19 C    1     1.4018     2.6490   22 C    0 1-1
  19 C    1     1.4025     2.6504   20 C    0 0 0
  19 C    1     1.5510     2.9309    2 B    0 0 0
  19 C    1     2.1443     4.0522    9 H    0 1-1
  19 C    1     2.1462     4.0557    7 H    0 0 0
  19 C    1     2.4237     4.5800   21 C    0 0 0

  20 C    1     1.0917     2.0630    7 H    0 0 0
  20 C    1     1.3915     2.6296   23 C    0 0 0
  20 C    1     1.4025     2.6504   19 C    0 0 0
  20 C    1     2.1689     4.0986   10 H    0 0 0
  20 C    1     2.4192     4.5716   22 C    0 1-1
  20 C    1     2.4241     4.5809   24 C    0 0 0

  21 C    1     1.0909     2.0615    8 H    0 1-1
  21 C    1     1.3909     2.6284   22 C    0 1-1
  21 C    1     1.4015     2.6484   24 C    0 0 0
  21 C    1     2.1694     4.0996    9 H    0 1-1
  21 C    1     2.4189     4.5712   23 C    0 0 0
  21 C    1     2.4237     4.5800   19 C    0 0 0

  22 C    1     1.0909     2.0614    9 H    0 0 0
  22 C    1     1.3909     2.6284   21 C    0-1 1
  22 C    1     1.4018     2.6490   19 C    0-1 1
  22 C    1     2.1688     4.0985    8 H    0 0 0
  22 C    1     2.4192     4.5716   20 C    0-1 1
  22 C    1     2.4226     4.5780   24 C    0-1 1

  23 C    1     1.0912     2.0621   10 H    0 0 0
  23 C    1     1.3915     2.6296   20 C    0 0 0
  23 C    1     1.4021     2.6497   24 C    0 0 0
  23 C    1     2.1712     4.1030    7 H    0 0 0
  23 C    1     2.4189     4.5712   21 C    0 0 0
  23 C    1     2.4238     4.5802   19 C    0 0 0

  24 C    1     1.4015     2.6484   21 C    0 0 0
  24 C    1     1.4021     2.6497   23 C    0 0 0
  24 C    1     1.5480     2.9253    4 B    0 0 0
  24 C    1     2.1455     4.0543    8 H    0 1-1
  24 C    1     2.1469     4.0571   10 H    0 0 0
  24 C    1     2.4226     4.5780   22 C    0 1-1

  25 C    1     1.4025     2.6504   26 C    0 0 0
  25 C    1     1.4037     2.6526   28 C   -1 0 0
  25 C    1     1.5546     2.9377    6 B   -1-1 1
  25 C    1     2.1443     4.0521   11 H    0 0 0
  25 C    1     2.1523     4.0672   13 H   -1 0 0
  25 C    1     2.4271     4.5866   27 C   -1 0 0

  26 C    1     1.0911     2.0619   11 H    0 0 0
  26 C    1     1.3916     2.6298   29 C    0 0 0
  26 C    1     1.4025     2.6504   25 C    0 0 0
  26 C    1     2.1679     4.0968   14 H    0 0 0
  26 C    1     2.4165     4.5666   28 C   -1 0 0
  26 C    1     2.4246     4.5819   30 C    0 0 0

  27 C    1     1.0917     2.0630   12 H    0 0 0
  27 C    1     1.3928     2.6320   28 C    0 0 0
  27 C    1     1.4024     2.6502   30 C    1 0 0
  27 C    1     2.1668     4.0946   13 H    0 0 0
  27 C    1     2.4167     4.5668   29 C    1 0 0
  27 C    1     2.4271     4.5866   25 C    1 0 0

  28 C    1     1.0919     2.0634   13 H    0 0 0
  28 C    1     1.3928     2.6320   27 C    0 0 0
  28 C    1     1.4037     2.6526   25 C    1 0 0
  28 C    1     2.1716     4.1038   12 H    0 0 0
  28 C    1     2.4165     4.5666   26 C    1 0 0
  28 C    1     2.4277     4.5877   30 C    1 0 0

  29 C    1     1.0915     2.0627   14 H    0 0 0
  29 C    1     1.3916     2.6298   26 C    0 0 0
  29 C    1     1.4023     2.6499   30 C    0 0 0
  29 C    1     2.1685     4.0978   11 H    0 0 0
  29 C    1     2.4167     4.5668   27 C   -1 0 0
  29 C    1     2.4281     4.5885   25 C    0 0 0

  30 C    1     1.4023     2.6499   29 C    0 0 0
  30 C    1     1.4024     2.6502   27 C   -1 0 0
  30 C    1     1.5517     2.9323    1 B    0 0 1
  30 C    1     2.1441     4.0519   12 H   -1 0 0
  30 C    1     2.1483     4.0597   14 H    0 0 0
  30 C    1     2.4246     4.5819   26 C    0 0 0

  31 C    1     1.4022     2.6498   32 C    0 0 0
  31 C    1     1.4030     2.6513   34 C    0 0 0
  31 C    1     1.5526     2.9339    5 B    0 0 0
  31 C    1     2.1436     4.0508   15 H    1 1-1
  31 C    1     2.1503     4.0634   17 H    0 0 0
  31 C    1     2.4265     4.5854   33 C    0 0 0

  32 C    1     1.0916     2.0628   15 H    1 1-1
  32 C    1     1.3918     2.6301   35 C    1 1-1
  32 C    1     1.4022     2.6498   31 C    0 0 0
  32 C    1     2.1656     4.0924   18 H    1 1-1
  32 C    1     2.4163     4.5661   34 C    0 0 0
  32 C    1     2.4270     4.5863   36 C    0 0 0

  33 C    1     1.0914     2.0625   16 H    0 0 0
  33 C    1     1.3927     2.6318   34 C    0 0 0
  33 C    1     1.4029     2.6511   36 C    0 0 0
  33 C    1     2.1683     4.0976   17 H    0 0 0
  33 C    1     2.4155     4.5646   35 C    1 1-1
  33 C    1     2.4265     4.5854   31 C    0 0 0

  34 C    1     1.0921     2.0638   17 H    0 0 0
  34 C    1     1.3927     2.6318   33 C    0 0 0
  34 C    1     1.4030     2.6513   31 C    0 0 0
  34 C    1     2.1663     4.0937   16 H    0 0 0
  34 C    1     2.4163     4.5661   32 C    0 0 0
  34 C    1     2.4289     4.5899   36 C    0 0 0

  35 C    1     1.0913     2.0622   18 H    0 0 0
  35 C    1     1.3918     2.6301   32 C   -1-1 1
  35 C    1     1.4029     2.6511   36 C   -1-1 1
  35 C    1     2.1707     4.1021   15 H    0 0 0
  35 C    1     2.4155     4.5646   33 C   -1-1 1
  35 C    1     2.4269     4.5861   31 C   -1-1 1

  36 C    1     1.4029     2.6511   33 C    0 0 0
  36 C    1     1.4029     2.6511   35 C    1 1-1
  36 C    1     1.5529     2.9346    3 B    0 0 0
  36 C    1     2.1488     4.0606   16 H    0 0 0
  36 C    1     2.1495     4.0619   18 H    1 1-1
  36 C    1     2.4270     4.5863   32 C    0 0 0

  37 O    1     1.3790     2.6060    3 B    0 0 0
  37 O    1     1.3795     2.6068    1 B    1 0 0
  37 O    1     2.3868     4.5105   39 O    1 1-1
  37 O    1     2.3885     4.5136   38 O    1 0 0
  37 O    1     2.5389     4.7979   30 C    1 0-1
  37 O    1     2.5412     4.8022   36 C    0 0 0

  38 O    1     1.3787     2.6054    1 B    0 0 0
  38 O    1     1.3792     2.6064    2 B    0 0 0
  38 O    1     2.3885     4.5136   37 O   -1 0 0
  38 O    1     2.3912     4.5188   39 O    0 1-1
  38 O    1     2.5351     4.7907   19 C    0 0 0
  38 O    1     2.5405     4.8008   30 C    0 0-1

  39 O    1     1.3795     2.6069    3 B   -1-1 1
  39 O    1     1.3798     2.6075    2 B    0-1 1
  39 O    1     2.3868     4.5105   37 O   -1-1 1
  39 O    1     2.3912     4.5188   38 O    0-1 1
  39 O    1     2.5416     4.8030   19 C    0-1 1
  39 O    1     2.5427     4.8050   36 C   -1-1 1

  40 O    1     1.3783     2.6045    6 B    0 0 0
  40 O    1     1.3786     2.6051    4 B    0 0 0
  40 O    1     2.3876     4.5120   42 O    0 0 0
  40 O    1     2.3914     4.5191   41 O    0 0 0
  40 O    1     2.5354     4.7912   25 C    1 1-1
  40 O    1     2.5360     4.7924   24 C    0 0 0

  41 O    1     1.3778     2.6037    5 B    0 0 0
  41 O    1     1.3779     2.6039    4 B    0 0 0
  41 O    1     2.3870     4.5108   42 O    0 0 0
  41 O    1     2.3914     4.5191   40 O    0 0 0
  41 O    1     2.5307     4.7822   24 C    0 0 0
  41 O    1     2.5355     4.7914   31 C    0 0 0

  42 O    1     1.3812     2.6101    6 B    0 0 0
  42 O    1     1.3814     2.6105    5 B    0 0 0
  42 O    1     2.3870     4.5108   41 O    0 0 0
  42 O    1     2.3876     4.5120   40 O    0 0 0
  42 O    1     2.5481     4.8153   31 C    0 0 0
  42 O    1     2.5522     4.8230   25 C    1 1-1


 SYMMETRY ALLOWED INTERNAL DEGREE(S) OF FREEDOM: 123
 TTTTTTTTTTTTTTTTTTTTTTTTTTTTTT SYMM        TELAPSE        0.31 TCPU        0.31
 TTTTTTTTTTTTTTTTTTTTTTTTTTTTTT INT_SCREEN  TELAPSE        0.34 TCPU        0.34

 DFT PARAMETERS

     ATOM       ELECTRONS   NET CHARGE   R(ANGSTROM)
   1   5  B       5.0000      0.0000     0.89000000
   7   1  H       1.0000      0.0000     1.11000000
  19   6  C       6.0000      0.0000     0.77000000
  37   8  O       8.0000      0.0000     0.74000000

 SIZE OF GRID=    1337997
 TTTTTTTTTTTTTTTTTTTTTTTTTTTTTT MAKE_GRID2  TELAPSE        7.79 TCPU        7.78
 BECKE WEIGHT FUNCTION
 RADSAFE =     2.00
 TOLERANCES - DENSITY:10**- 6; POTENTIAL:10**- 9; GRID WGT:10**-14

 RADIAL INTEGRATION  - INTERVALS (POINTS,UPPER LIMIT):            1( 75,  4.0*R)

 ANGULAR INTEGRATION - INTERVALS (ACCURACY LEVEL [N. POINTS] UPPER LIMIT):
  1(  4[  86]   0.2)  2(  8[ 194]   0.5)  3( 12[ 350]   0.9)  4( 16[ 974]   3.5)
  5( 12[ 350]9999.0)
 TTTTTTTTTTTTTTTTTTTTTTTTTTTTTT INT_CALC    TELAPSE        7.87 TCPU        7.85
 EEEEEEEEEE INT_CALC TERMINATION  DATE 02 12 2025 TIME 08:06:39.6

 *******************************************************************************
 COF-5_z45_inc_L030                                                              
 CRYSTAL - SCF - TYPE OF CALCULATION :  RESTRICTED CLOSED SHELL
 *******************************************************************************

 CAPPA:IS1  2;IS2  2;IS3  8; K PTS MONK NET  20; SYMMOPS:K SPACE   2;G SPACE   1

 TTTTTTTTTTTTTTTTTTTTTTTTTTTTTT SDIK        TELAPSE        8.49 TCPU       15.51

 AAAAAAAAAAAAAAAAAAAAAAAAAAAAAAAAAAAAAAAAAAAAAAAAAAAAAAAAAAAAAAAAAAAAAAAAAAAAAAA
         ATOMIC WAVEFUNCTION(S)


 NUCLEAR CHARGE  5.0  SYMMETRY SPECIES            S    P
 N. ELECTRONS    5.0  NUMBER OF PRIMITIVE GTOS    8    4
                      NUMBER OF CONTRACTED GTOS   4    2
                      NUMBER OF CLOSED SHELLS     2    0
                      OPEN SHELL OCCUPATION       0    1

  ZNUC  SCFIT    TOTAL HF ENERGY   KINETIC ENERGY   VIRIAL THEOREM ACCURACY
   5.0    11    -2.451164084E+01  2.462155050E+01 -1.995536038E+00  1.5E-06

 NUCLEAR CHARGE  1.0  SYMMETRY SPECIES            S
 N. ELECTRONS    1.0  NUMBER OF PRIMITIVE GTOS    4
                      NUMBER OF CONTRACTED GTOS   2
                      NUMBER OF CLOSED SHELLS     0
                      OPEN SHELL OCCUPATION       1

  ZNUC  SCFIT    TOTAL HF ENERGY   KINETIC ENERGY   VIRIAL THEOREM ACCURACY
   1.0     1    -4.977266687E-01  5.190767460E-01 -1.958869132E+00  0.0E+00

 NUCLEAR CHARGE  6.0  SYMMETRY SPECIES            S    P
 N. ELECTRONS    6.0  NUMBER OF PRIMITIVE GTOS    8    4
                      NUMBER OF CONTRACTED GTOS   4    2
                      NUMBER OF CLOSED SHELLS     2    0
                      OPEN SHELL OCCUPATION       0    2

  ZNUC  SCFIT    TOTAL HF ENERGY   KINETIC ENERGY   VIRIAL THEOREM ACCURACY
   6.0     9    -3.766704647E+01  3.775180683E+01 -1.997754800E+00  1.1E-06

 NUCLEAR CHARGE  8.0  SYMMETRY SPECIES            S    P
 N. ELECTRONS    8.0  NUMBER OF PRIMITIVE GTOS    8    4
                      NUMBER OF CONTRACTED GTOS   4    2
                      NUMBER OF CLOSED SHELLS     2    0
                      OPEN SHELL OCCUPATION       0    4

  ZNUC  SCFIT    TOTAL HF ENERGY   KINETIC ENERGY   VIRIAL THEOREM ACCURACY
   8.0    12    -7.477373220E+01  7.477365593E+01 -2.000001020E+00  3.8E-06

 AAAAAAAAAAAAAAAAAAAAAAAAAAAAAAAAAAAAAAAAAAAAAAAAAAAAAAAAAAAAAAAAAAAAAAAAAAAAAAA

 CHARGE NORMALIZATION FACTOR   1.00000000
 TOTAL ATOMIC CHARGES:
   5.0000000   5.0000000   5.0000000   5.0000000   5.0000000   5.0000000
   1.0000000   1.0000000   1.0000000   1.0000000   1.0000000   1.0000000
   1.0000000   1.0000000   1.0000000   1.0000000   1.0000000   1.0000000
   6.0000000   6.0000000   6.0000000   6.0000000   6.0000000   6.0000000
   6.0000000   6.0000000   6.0000000   6.0000000   6.0000000   6.0000000
   6.0000000   6.0000000   6.0000000   6.0000000   6.0000000   6.0000000
   8.0000000   8.0000000   8.0000000   8.0000000   8.0000000   8.0000000
 TTTTTTTTTTTTTTTTTTTTTTTTTTTTTT MOQGAD      TELAPSE        8.53 TCPU       16.72
 TTTTTTTTTTTTTTTTTTTTTTTTTTTTTT SHELLXN     TELAPSE       13.40 TCPU      171.37
 TTTTTTTTTTTTTTTTTTTTTTTTTTTTTT MONMO3      TELAPSE       13.52 TCPU      175.29
 NUMERICALLY INTEGRATED DENSITY    197.9999865487
 TTTTTTTTTTTTTTTTTTTTTTTTTTTTTT NUMDFT      TELAPSE       14.00 TCPU      190.55
 CYC   0 ETOT(AU) -1.295945228887E+03 DETOT -1.30E+03 tst  0.00E+00 PX  1.00E+00
 TTTTTTTTTTTTTTTTTTTTTTTTTTTTTT DIIS        TELAPSE       14.03 TCPU      191.65
 TTTTTTTTTTTTTTTTTTTTTTTTTTTTTT FDIK        TELAPSE       14.51 TCPU      207.06
 INSULATING STATE
 TOP OF VALENCE BANDS -    BAND     99; K   17; EIG -3.1410184E-01 AU
 TOP OF VALENCE BANDS -    BAND     99; K    1; EIG -3.1454758E-01 AU
 BOTTOM OF VIRTUAL BANDS - BAND    100; K    1; EIG -1.5702201E-01 AU
 INDIRECT ENERGY BAND GAP:   4.2744 eV
 TTTTTTTTTTTTTTTTTTTTTTTTTTTTTT PDIG        TELAPSE       14.80 TCPU      213.20
 CHARGE NORMALIZATION FACTOR   1.00000000
 TOTAL ATOMIC CHARGES:
   4.1636055   4.1650129   4.1661456   4.1678995   4.1649892   4.1626303
   0.7850521   0.7850160   0.7851636   0.7851956   0.7851289   0.7850405
   0.7859977   0.7855731   0.7847645   0.7853506   0.7853572   0.7856040
   6.0430408   6.2648313   6.2649041   6.2656660   6.2643875   6.0452158
   6.0401027   6.2660410   6.2642388   6.2666494   6.2664962   6.0435616
   6.0422188   6.2649336   6.2657939   6.2651754   6.2668051   6.0397534
   8.6914470   8.6906450   8.6913617   8.6902706   8.6901198   8.6928138
 TTTTTTTTTTTTTTTTTTTTTTTTTTTTTT MOQGAD      TELAPSE       14.84 TCPU      213.24
 TTTTTTTTTTTTTTTTTTTTTTTTTTTTTT SHELLXN     TELAPSE       19.88 TCPU      373.96
 TTTTTTTTTTTTTTTTTTTTTTTTTTTTTT MONMO3      TELAPSE       20.01 TCPU      377.87
 NUMERICALLY INTEGRATED DENSITY    197.9999935741
 TTTTTTTTTTTTTTTTTTTTTTTTTTTTTT NUMDFT      TELAPSE       20.49 TCPU      393.46
 CYC   1 ETOT(AU) -1.288811644821E+03 DETOT  7.13E+00 tst  0.00E+00 PX  1.00E+00
 TTTTTTTTTTTTTTTTTTTTTTTTTTTTTT DIIS        TELAPSE       20.53 TCPU      394.81
 DIIS TEST: 0.11067E+01 AT SCF   CYCLE   1 - MIX   30 %
 TTTTTTTTTTTTTTTTTTTTTTTTTTTTTT FDIK        TELAPSE       21.02 TCPU      410.42
 INSULATING STATE
 TOP OF VALENCE BANDS -    BAND     99; K   17; EIG -2.2511385E-01 AU
 TOP OF VALENCE BANDS -    BAND     99; K    1; EIG -2.2740905E-01 AU
 BOTTOM OF VIRTUAL BANDS - BAND    100; K    1; EIG -7.9074378E-02 AU
 INDIRECT ENERGY BAND GAP:   3.9739 eV
 TTTTTTTTTTTTTTTTTTTTTTTTTTTTTT PDIG        TELAPSE       21.31 TCPU      416.56
 CHARGE NORMALIZATION FACTOR   1.00000000
 TOTAL ATOMIC CHARGES:
   4.7001514   4.7066108   4.7070183   4.7076932   4.7066341   4.6998979
   0.9099535   0.9103229   0.9151919   0.9152157   0.9087628   0.9083628
   0.9093543   0.9096352   0.9095059   0.9100367   0.9150065   0.9151447
   5.8666920   6.1290914   6.1271248   6.1399835   6.1421953   5.8627729
   5.8770130   6.1336109   6.1363411   6.1390855   6.1370128   5.8722593
   5.8683624   6.1238805   6.1269254   6.1423226   6.1392495   5.8690976
   8.3309130   8.3296136   8.3409971   8.3282616   8.3381125   8.3345830
 TTTTTTTTTTTTTTTTTTTTTTTTTTTTTT MOQGAD      TELAPSE       21.35 TCPU      416.60
 TTTTTTTTTTTTTTTTTTTTTTTTTTTTTT SHELLXN     TELAPSE       26.40 TCPU      577.39
 TTTTTTTTTTTTTTTTTTTTTTTTTTTTTT MONMO3      TELAPSE       26.52 TCPU      581.30
 NUMERICALLY INTEGRATED DENSITY    197.9999910693
 TTTTTTTTTTTTTTTTTTTTTTTTTTTTTT NUMDFT      TELAPSE       27.01 TCPU      596.87
 CYC   2 ETOT(AU) -1.289007296089E+03 DETOT -1.96E-01 tst  3.69E-03 PX  1.59E-01
 TTTTTTTTTTTTTTTTTTTTTTTTTTTTTT DIIS        TELAPSE       27.06 TCPU      598.42
 DIIS TEST: 0.45636E+00 AT SCF   CYCLE   2 - DIIS ACTIVE - HISTORY:     2 CYCLES
 TTTTTTTTTTTTTTTTTTTTTTTTTTTTTT FDIK        TELAPSE       27.55 TCPU      614.06
 INSULATING STATE
 TOP OF VALENCE BANDS -    BAND     99; K   17; EIG -2.3809383E-01 AU
 TOP OF VALENCE BANDS -    BAND     99; K    1; EIG -2.3912493E-01 AU
 BOTTOM OF VIRTUAL BANDS - BAND    100; K    1; EIG -7.5092032E-02 AU
 INDIRECT ENERGY BAND GAP:   4.4355 eV
 TTTTTTTTTTTTTTTTTTTTTTTTTTTTTT PDIG        TELAPSE       27.84 TCPU      620.20
 CHARGE NORMALIZATION FACTOR   1.00000000
 TOTAL ATOMIC CHARGES:
   4.4971056   4.5014288   4.5019809   4.5033158   4.5012387   4.4963427
   0.8881963   0.8880257   0.8919405   0.8922051   0.8872275   0.8870909
   0.8887031   0.8881706   0.8870036   0.8881422   0.8923746   0.8919050
   5.8885733   6.1595601   6.1603150   6.1585603   6.1583937   5.8903129
   5.8949393   6.1585045   6.1588876   6.1610279   6.1612532   5.8960277
   5.8896132   6.1593601   6.1597472   6.1593066   6.1600314   5.8886940
   8.5116847   8.5111442   8.5096344   8.5105677   8.5075386   8.5139246
 TTTTTTTTTTTTTTTTTTTTTTTTTTTTTT MOQGAD      TELAPSE       27.88 TCPU      620.24
 TTTTTTTTTTTTTTTTTTTTTTTTTTTTTT SHELLXN     TELAPSE       32.93 TCPU      781.06
 TTTTTTTTTTTTTTTTTTTTTTTTTTTTTT MONMO3      TELAPSE       33.05 TCPU      784.97
 NUMERICALLY INTEGRATED DENSITY    197.9999920992
 TTTTTTTTTTTTTTTTTTTTTTTTTTTTTT NUMDFT      TELAPSE       33.54 TCPU      800.59
 CYC   3 ETOT(AU) -1.289101802951E+03 DETOT -9.45E-02 tst  6.95E-04 PX  6.44E-02
 TTTTTTTTTTTTTTTTTTTTTTTTTTTTTT DIIS        TELAPSE       33.59 TCPU      802.20
 DIIS TEST: 0.13295E-01 AT SCF   CYCLE   3 - DIIS ACTIVE - HISTORY:     3 CYCLES
 TTTTTTTTTTTTTTTTTTTTTTTTTTTTTT FDIK        TELAPSE       34.08 TCPU      817.85
 INSULATING STATE
 TOP OF VALENCE BANDS -    BAND     99; K   17; EIG -2.4832071E-01 AU
 TOP OF VALENCE BANDS -    BAND     99; K    1; EIG -2.5054230E-01 AU
 BOTTOM OF VIRTUAL BANDS - BAND    100; K    1; EIG -8.3638966E-02 AU
 INDIRECT ENERGY BAND GAP:   4.4812 eV
 TTTTTTTTTTTTTTTTTTTTTTTTTTTTTT PDIG        TELAPSE       34.37 TCPU      824.00
 CHARGE NORMALIZATION FACTOR   1.00000000
 TOTAL ATOMIC CHARGES:
   4.5034616   4.5063571   4.5068000   4.5081761   4.5060527   4.5029074
   0.8709580   0.8713245   0.8741254   0.8742965   0.8690014   0.8688298
   0.8701984   0.8701292   0.8704134   0.8711539   0.8744045   0.8744267
   5.9384595   6.1631648   6.1611904   6.1707049   6.1711598   5.9361233
   5.9452730   6.1674291   6.1682775   6.1699793   6.1687205   5.9432398
   5.9387377   6.1600691   6.1622712   6.1717692   6.1701807   5.9380219
   8.4751599   8.4739081   8.4822894   8.4728838   8.4801539   8.4778168
 TTTTTTTTTTTTTTTTTTTTTTTTTTTTTT MOQGAD      TELAPSE       34.41 TCPU      824.04
 TTTTTTTTTTTTTTTTTTTTTTTTTTTTTT SHELLXN     TELAPSE       39.45 TCPU      984.83
 TTTTTTTTTTTTTTTTTTTTTTTTTTTTTT MONMO3      TELAPSE       39.58 TCPU      988.74
 NUMERICALLY INTEGRATED DENSITY    197.9999919932
 TTTTTTTTTTTTTTTTTTTTTTTTTTTTTT NUMDFT      TELAPSE       40.06 TCPU     1004.25
 CYC   4 ETOT(AU) -1.289104598632E+03 DETOT -2.80E-03 tst  2.68E-05 PX  1.35E-02
 TTTTTTTTTTTTTTTTTTTTTTTTTTTTTT DIIS        TELAPSE       40.12 TCPU     1006.16
 DIIS TEST: 0.41164E-02 AT SCF   CYCLE   4 - DIIS ACTIVE - HISTORY:     4 CYCLES
 TTTTTTTTTTTTTTTTTTTTTTTTTTTTTT FDIK        TELAPSE       40.62 TCPU     1022.02
 INSULATING STATE
 TOP OF VALENCE BANDS -    BAND     99; K   17; EIG -2.4641287E-01 AU
 TOP OF VALENCE BANDS -    BAND     99; K    1; EIG -2.4829925E-01 AU
 BOTTOM OF VIRTUAL BANDS - BAND    100; K    1; EIG -8.3158132E-02 AU
 INDIRECT ENERGY BAND GAP:   4.4424 eV
 TTTTTTTTTTTTTTTTTTTTTTTTTTTTTT PDIG        TELAPSE       40.90 TCPU     1028.16
 CHARGE NORMALIZATION FACTOR   1.00000000
 TOTAL ATOMIC CHARGES:
   4.5039966   4.5086749   4.5092080   4.5104224   4.5084723   4.5033763
   0.8741136   0.8740762   0.8777711   0.8779397   0.8727282   0.8725154
   0.8739950   0.8736438   0.8731984   0.8741840   0.8781089   0.8778507
   5.9191252   6.1639286   6.1640210   6.1683886   6.1687215   5.9196359
   5.9256885   6.1664165   6.1672699   6.1690614   6.1688433   5.9255699
   5.9203149   6.1626255   6.1635877   6.1691987   6.1690635   5.9196568
   8.4871394   8.4863112   8.4890902   8.4855599   8.4868879   8.4896187
 TTTTTTTTTTTTTTTTTTTTTTTTTTTTTT MOQGAD      TELAPSE       40.95 TCPU     1028.20
 TTTTTTTTTTTTTTTTTTTTTTTTTTTTTT SHELLXN     TELAPSE       45.99 TCPU     1189.04
 TTTTTTTTTTTTTTTTTTTTTTTTTTTTTT MONMO3      TELAPSE       46.12 TCPU     1192.96
 NUMERICALLY INTEGRATED DENSITY    197.9999920708
 TTTTTTTTTTTTTTTTTTTTTTTTTTTTTT NUMDFT      TELAPSE       46.60 TCPU     1208.52
 CYC   5 ETOT(AU) -1.289105539750E+03 DETOT -9.41E-04 tst  6.50E-06 PX  6.45E-03
 TTTTTTTTTTTTTTTTTTTTTTTTTTTTTT DIIS        TELAPSE       46.66 TCPU     1210.43
 DIIS TEST: 0.60207E-04 AT SCF   CYCLE   5 - DIIS ACTIVE - HISTORY:     5 CYCLES
 TTTTTTTTTTTTTTTTTTTTTTTTTTTTTT FDIK        TELAPSE       47.15 TCPU     1226.18
 INSULATING STATE
 TOP OF VALENCE BANDS -    BAND     99; K   17; EIG -2.4617032E-01 AU
 TOP OF VALENCE BANDS -    BAND     99; K    1; EIG -2.4805868E-01 AU
 BOTTOM OF VIRTUAL BANDS - BAND    100; K    1; EIG -8.2592820E-02 AU
 INDIRECT ENERGY BAND GAP:   4.4512 eV
 TTTTTTTTTTTTTTTTTTTTTTTTTTTTTT PDIG        TELAPSE       47.44 TCPU     1232.32
 CHARGE NORMALIZATION FACTOR   1.00000000
 TOTAL ATOMIC CHARGES:
   4.5044415   4.5081982   4.5086786   4.5100067   4.5079668   4.5038456
   0.8749601   0.8752046   0.8786699   0.8788833   0.8736771   0.8735178
   0.8749080   0.8747332   0.8742654   0.8750969   0.8789626   0.8788745
   5.9198345   6.1639615   6.1625066   6.1681046   6.1682813   5.9184008
   5.9263801   6.1658968   6.1665094   6.1685605   6.1676677   5.9251854
   5.9201630   6.1615156   6.1633027   6.1691842   6.1681213   5.9193223
   8.4860655   8.4850577   8.4902301   8.4841176   8.4881376   8.4886026
 TTTTTTTTTTTTTTTTTTTTTTTTTTTTTT MOQGAD      TELAPSE       47.48 TCPU     1232.36
 TTTTTTTTTTTTTTTTTTTTTTTTTTTTTT SHELLXN     TELAPSE       52.53 TCPU     1393.16
 TTTTTTTTTTTTTTTTTTTTTTTTTTTTTT MONMO3      TELAPSE       52.65 TCPU     1397.07
 NUMERICALLY INTEGRATED DENSITY    197.9999920598
 TTTTTTTTTTTTTTTTTTTTTTTTTTTTTT NUMDFT      TELAPSE       53.14 TCPU     1412.58
 CYC   6 ETOT(AU) -1.289105557151E+03 DETOT -1.74E-05 tst  1.38E-07 PX  9.13E-04
 TTTTTTTTTTTTTTTTTTTTTTTTTTTTTT DIIS        TELAPSE       53.21 TCPU     1414.82
 DIIS TEST: 0.76031E-05 AT SCF   CYCLE   6 - DIIS ACTIVE - HISTORY:     6 CYCLES
 TTTTTTTTTTTTTTTTTTTTTTTTTTTTTT FDIK        TELAPSE       53.70 TCPU     1430.50
 INSULATING STATE
 TOP OF VALENCE BANDS -    BAND     99; K   17; EIG -2.4617694E-01 AU
 TOP OF VALENCE BANDS -    BAND     99; K    1; EIG -2.4805663E-01 AU
 BOTTOM OF VIRTUAL BANDS - BAND    100; K    1; EIG -8.2656964E-02 AU
 INDIRECT ENERGY BAND GAP:   4.4496 eV
 TTTTTTTTTTTTTTTTTTTTTTTTTTTTTT PDIG        TELAPSE       53.99 TCPU     1436.64
 CHARGE NORMALIZATION FACTOR   1.00000000
 TOTAL ATOMIC CHARGES:
   4.5042118   4.5085153   4.5090450   4.5102981   4.5083062   4.5035847
   0.8750414   0.8750480   0.8786372   0.8788082   0.8736224   0.8734149
   0.8748942   0.8745749   0.8741585   0.8751230   0.8789803   0.8787357
   5.9192361   6.1632517   6.1631648   6.1677540   6.1681066   5.9195137
   5.9259486   6.1656956   6.1665642   6.1683570   6.1679555   5.9256009
   5.9203179   6.1617985   6.1629015   6.1685811   6.1683341   5.9196794
   8.4865672   8.4856634   8.4891258   8.4849074   8.4869279   8.4890471
 TTTTTTTTTTTTTTTTTTTTTTTTTTTTTT MOQGAD      TELAPSE       54.03 TCPU     1436.68
 TTTTTTTTTTTTTTTTTTTTTTTTTTTTTT SHELLXN     TELAPSE       59.08 TCPU     1597.46
 TTTTTTTTTTTTTTTTTTTTTTTTTTTTTT MONMO3      TELAPSE       59.20 TCPU     1601.37
 NUMERICALLY INTEGRATED DENSITY    197.9999920620
 TTTTTTTTTTTTTTTTTTTTTTTTTTTTTT NUMDFT      TELAPSE       59.69 TCPU     1616.93
 CYC   7 ETOT(AU) -1.289105558001E+03 DETOT -8.50E-07 tst  2.09E-08 PX  4.18E-04
 TTTTTTTTTTTTTTTTTTTTTTTTTTTTTT DIIS        TELAPSE       59.76 TCPU     1619.19
 DIIS TEST: 0.12804E-05 AT SCF   CYCLE   7 - DIIS ACTIVE - HISTORY:     7 CYCLES
 TTTTTTTTTTTTTTTTTTTTTTTTTTTTTT FDIK        TELAPSE       60.25 TCPU     1634.86
 INSULATING STATE
 TOP OF VALENCE BANDS -    BAND     99; K   17; EIG -2.4617929E-01 AU
 TOP OF VALENCE BANDS -    BAND     99; K    1; EIG -2.4806829E-01 AU
 BOTTOM OF VIRTUAL BANDS - BAND    100; K    1; EIG -8.2672021E-02 AU
 INDIRECT ENERGY BAND GAP:   4.4493 eV
 TTTTTTTTTTTTTTTTTTTTTTTTTTTTTT PDIG        TELAPSE       60.53 TCPU     1641.00
 CHARGE NORMALIZATION FACTOR   1.00000000
 TOTAL ATOMIC CHARGES:
   4.5043223   4.5085214   4.5090295   4.5103042   4.5083005   4.5037141
   0.8749615   0.8750672   0.8786034   0.8787958   0.8735813   0.8733977
   0.8748416   0.8745708   0.8741546   0.8750660   0.8789229   0.8787476
   5.9195288   6.1635256   6.1628343   6.1678970   6.1681499   5.9190368
   5.9260506   6.1658155   6.1665347   6.1684278   6.1679189   5.9254196
   5.9202866   6.1616526   6.1630101   6.1688341   6.1682360   5.9195284
   8.4864376   8.4855357   8.4894751   8.4846775   8.4873244   8.4889599
 TTTTTTTTTTTTTTTTTTTTTTTTTTTTTT MOQGAD      TELAPSE       60.57 TCPU     1641.04
 TTTTTTTTTTTTTTTTTTTTTTTTTTTTTT SHELLXN     TELAPSE       65.62 TCPU     1801.86
 +++ ENERGIES IN A.U. +++
 ::: EXT EL-POLE                                  -1.1342133131611E+03
 ::: EXT EL-SPHEROPOLE                             1.2693057110997E+01
 ::: BIELET ZONE E-E                               1.9708477043333E+03
 ::: TOTAL E-E                                     8.4932744828313E+02
 ::: TOTAL E-N + N-E                              -3.5312960207916E+03
 ::: TOTAL N-N                                     2.4665260510529E+02
 ::: KINETIC ENERGY                                1.2799268286254E+03
 ::: PSEUDO TOTAL   ENERGY                        -1.1553891387777E+03
 ::: VIRIAL COEFFICIENT                            1.0511382060951E+00
 TTTTTTTTTTTTTTTTTTTTTTTTTTTTTT MONMO3      TELAPSE       65.74 TCPU     1805.77
 NUMERICALLY INTEGRATED DENSITY    197.9999920615
 EXCHANGE ENERGY: -0.126027378231E+03  CORRELATION ENERGY: -0.768904119740E+01
 TTTTTTTTTTTTTTTTTTTTTTTTTTTTTT NUMDFT      TELAPSE       66.23 TCPU     1821.27
 CYC   8 ETOT(AU) -1.289105558206E+03 DETOT -2.05E-07 tst  4.39E-09 PX  4.18E-04

 == SCF ENDED - CONVERGENCE ON ENERGY      E(AU) -1.2891055582058E+03 CYCLES   8


 ENERGY EXPRESSION=HARTREE+FOCK EXCH*0.00000+(HSESOL     EXCH)*1.00000+PBESOL     CORR


 TOTAL ENERGY(DFT)(AU)(  8) -1.2891055582058E+03 DE-2.0E-07 tester 4.4E-09
 TTTTTTTTTTTTTTTTTTTTTTTTTTTTTT EDFT        TELAPSE       66.23 TCPU     1821.28
 
 INFORMATION **** DFTD3 ENERGY **** CALCULATE DFTD3 ENERGY

           DFT-D V3(BJ)
 DF                                         hsesol3c  
 parameters
 s6       :    1.0000
 s8       :    0.0000
 a1       :    0.5196
 a2       :    4.9385
 k1 k3    :   16.0000   -4.0000
 Cutoff   :   50.2022
 CN-Cutoff:   21.1671
 ABC-Cutoff:   21.1671
 
 Edisp /kcal,au:   -22.1077 -0.03523080

 E6    /kcal :   -23.3183
 E8    /kcal :     0.0000
 E6(ABC) "   :   1.210609
 
 INFORMATION **** DFTD3 ENERGY **** NORMAL TERMINATION OF DFTD3 MODULE

 GCP ENERGY CALCULATION
  level        hsesol3c            basis:hsesol3c
  Nbf            474
  Atoms           42

  Parameters: 
  sigma     1.0000
  eta       1.4281
  alpha     0.2936
  beta      1.9467

  dmp_scal      4.0000
  dmp_exp       6.0000
 cutoffs: 
   distance [bohr] 60.0
   noise    [a.u.] 2.2E-16
 SR-damping   T
 ** gCP correction **
  Egcp:        0.0829406289 / (a.u.) ||      52.0460 / (kcal/mol)
 INFORMATION **** GCP **** NORMAL TERMINATION OF GCP MODULE

 *******************************************************************************

 DFT-D3-GCP DISPERSION AND COUNTERPOISE CORRECTION

 D3 DISPERSION ENERGY (AU)      -3.5230798579416E-02
 GCP ENERGY (AU)                 8.2940628920644E-02
 TOTAL ENERGY + DISP + GCP (AU) -1.2890578483755E+03

 *******************************************************************************

 EIGENVECTORS IN FORTRAN UNIT  8
 TTTTTTTTTTTTTTTTTTTTTTTTTTTTTT END         TELAPSE       67.21 TCPU     1828.24
 EEEEEEEEEE TERMINATION  DATE 02 12 2025 TIME 08:07:38.9
