 Default number of threads is:           32

         
 *******************************************************************************
 *                                                                             *
 *                               CRYSTAL23                                     *
 *                      public : 1.0.1 - October 2022                          *
 *                       HTTP://WWW.CRYSTAL.UNITO.IT                           *
 *                                                                             *
 *                              MAIN AUTHORS                                   *
 *                                                                             *
 *  R. DOVESI(1,11), V.R. SAUNDERS(2), C. ROETTI(1,11), R. ORLANDO(1,11),      *
 *  C.M. ZICOVICH-WILSON(1,3), F. PASCALE(4), B. CIVALLERI(1,11),              *
 *  K. DOLL(5), N.M. HARRISON(6), I.J. BUSH(7), Ph. D'ARCO(8),                 *
 *  M. LLUNELL(9), M. CAUSA'(10), Y. NOEL(8), L. MASCHIO(1,11), A. ERBA(1,11)  *
 *  M. RE'RAT(14), S. CASASSA(1,11), B.G. SEARLE(2), J.K. DESMARAIS(1)         *
 *                                                                             *
 *        CONTRIBUTIONS TO THE CODE HAVE ALSO BEEN GIVEN BY                    *
 *                                                                             *
 *  M. FERRABONE(1,11), M. DE LA PIERRE(1,11), M. FERRERO(1,11),               *
 *  J. BAIMA(1,11), E. ALBANESE(1,11), M.F. PEINTINGER(12), R. BAST(13),       *
 *  B. KIRTMAN(15), V. LACIVITA(1,11), R. DEMICHELIS(1,16)                     *
 *  G. BRANDEBURG(17), S. SALUSTRO(1,11), G. SANSONE(1,11)                     *
 *  M.T. RUGGIERO(18), L.E. DAGA(1), L. DONA'(1), A. COSSARD(1)                *
 *                                                                             *
 * (1) THEORETICAL CHEMISTRY GROUP - UNIVERSITA' DI TORINO - TORINO (ITALY)    *
 * (2) SCIENTIFIC COMPUTING DEPARTMENT - STFC DARESBURY (UK)                   *
 * (3) UNIVERSIDAD AUTONOMA DEL ESTADO DE MORELOS - CUERNAVACA (MEXICO)        *
 * (4) UNIVERSITE' DE LORRAINE - NANCY (FRANCE)                                *
 * (5) UNIVERSITAET STUTTGART- STUTTGART (GERMANY)                             *
 * (6) IMPERIAL COLLEGE - LONDON (UK)                                          *
 * (7) SCIENTIFIC COMPUTING DEPARTMENT - STFC RAL (UK)                         *
 * (8) UPMC - SORBONNE UNIVERSITES - PARIS (FRANCE)                            *
 * (9) UNIVERSIDAD DE BARCELONA - BARCELONA (SPAIN)                            *
 *(10) UNIVERSITA' DI NAPOLI "FEDERICO II" - NAPOLI (ITALY)                    *
 *(11) NIS - NANOSTRUCTURED INTERFACES AND SURFACES - TORINO (ITALY)           *
 *(12) MPI FUER CHEMISCHE ENERGIEKONVERSION - MUELHEIM AN DER RUHR (GERMANY)   *
 *(13) UNIVERSITY OF TROMSO - TROMSO (NORWAY)                                  *
 *(14) UNIVERSITE' DE PAU ET DES PAYS DE L'ADOUR - PAU (FRANCE)                *
 *(15) UNIVERSITY OF CALIFORNIA SANTA BARBARA - SANTA BARBARA (USA)            *
 *(16) CURTIN UNIVERSITY - PERTH (AUSTRALIA)                                   *
 *(17) UNIVERSITY COLLEGE LONDON - LONDON (UK)                                 *
 *(18) UNIVERSITY OF VERMONT - BURLINGTON (USA)                                *
 *                                                                             *
 *******************************************************************************
 EEEEEEEEEE STARTING  DATE 19 02 2026 TIME 19:17:34.4
 cof-1_z44_L000_incl                                                             

 CRYSTAL CALCULATION
 (INPUT ACCORDING TO THE INTERNATIONAL TABLES FOR X-RAY CRYSTALLOGRAPHY)
 CRYSTAL FAMILY                       :  TRICLINIC   
 CRYSTAL CLASS  (GROTH - 1921)        :  TRICLINIC PEDIAL                     

 SPACE GROUP (NONCENTROSYMMETRIC)     :  P 1             

 LATTICE PARAMETERS  (ANGSTROMS AND DEGREES) - CONVENTIONAL CELL
        A           B           C        ALPHA        BETA       GAMMA
    15.02361    15.02392     4.40000    90.00032    89.99994   119.99596


 NUMBER OF IRREDUCIBLE ATOMS IN THE CONVENTIONAL CELL:   42

 INPUT COORDINATES

 ATOM AT. N.              COORDINATES
   1   5     6.136805400000E-01  2.273182200000E-01  5.010856200000E-01
   2   5     7.727362000000E-01  3.863778800000E-01  5.010856300000E-01
   3   5     6.136762700000E-01  3.863606700000E-01  4.988030900000E-01
   4   5     2.272552500000E-01  6.136332200000E-01  5.010856300000E-01
   5   5     3.863632200000E-01  6.136124500000E-01  5.010856200000E-01
   6   5     3.863435000000E-01  7.727516500000E-01  4.988030900000E-01
   7   1     9.030436200000E-01  3.089300500000E-01  4.963534600000E-01
   8   1     9.663453000000E-02  6.910534400000E-01  4.956298300000E-01
   9   1     9.029714200000E-01  5.940724300000E-01  4.955184600000E-01
  10   1     9.673618000000E-02  4.056849400000E-01  4.955462400000E-01
  11   1     6.910324000000E-01  9.700412000000E-02  5.036465700000E-01
  12   1     3.089297200000E-01  9.034373100000E-01  5.043702500000E-01
  13   1     4.058699900000E-01  9.704998000000E-02  5.044816900000E-01
  14   1     5.943122100000E-01  9.033473200000E-01  5.044537200000E-01
  15   1     6.910727400000E-01  5.940542100000E-01  4.963535000000E-01
  16   1     3.089618300000E-01  4.056093300000E-01  4.956297800000E-01
  17   1     4.058405700000E-01  3.088232500000E-01  4.955183700000E-01
  18   1     5.942908800000E-01  6.909579300000E-01  4.955463300000E-01
  19   6     8.918903100000E-01  4.459436900000E-01  4.987195700000E-01
  20   6     9.464891100000E-01  3.927856300000E-01  4.964648200000E-01
  21   6     5.338812000000E-02  6.071853000000E-01  4.962700400000E-01
  22   6     9.464521100000E-01  5.536921900000E-01  4.968545900000E-01
  23   6     5.342634000000E-02  4.462499700000E-01  4.953513900000E-01
  24   6     1.080358900000E-01  5.540356300000E-01  4.968824000000E-01
  25   6     5.540394200000E-01  1.081684600000E-01  5.012804900000E-01
  26   6     6.071778500000E-01  5.355594000000E-02  5.035352000000E-01
  27   6     3.927986700000E-01  9.466631600000E-01  5.037300500000E-01
  28   6     4.462875800000E-01  5.360286000000E-02  5.031455200000E-01
  29   6     5.537168500000E-01  9.466235600000E-01  5.046486100000E-01
  30   6     4.459279100000E-01  8.919920600000E-01  5.031176500000E-01
  31   6     5.540448700000E-01  4.458745500000E-01  4.987195700000E-01
  32   6     6.072102200000E-01  5.536257800000E-01  4.964648700000E-01
  33   6     3.928233700000E-01  4.461720300000E-01  4.962699900000E-01
  34   6     4.462872600000E-01  3.926899900000E-01  4.968545300000E-01
  35   6     5.537429600000E-01  6.070980000000E-01  4.953514500000E-01
  36   6     4.459599800000E-01  5.539582300000E-01  4.968824000000E-01
  37   8     5.607366800000E-01  2.803706300000E-01  4.994154700000E-01
  38   8     7.196817000000E-01  2.803783300000E-01  5.042310800000E-01
  39   8     7.196794200000E-01  4.393234600000E-01  4.969659300000E-01
  40   8     2.803245100000E-01  7.196511100000E-01  4.994154900000E-01
  41   8     2.803439700000E-01  5.606956100000E-01  5.042310700000E-01
  42   8     4.392638400000E-01  7.196354200000E-01  4.969659100000E-01

 *******************************************************************************

 << INFORMATION >>: FROM NOW ON, ALL COORDINATES REFER TO THE PRIMITIVE CELL

 *******************************************************************************

 LATTICE PARAMETERS  (ANGSTROMS AND DEGREES) - PRIMITIVE CELL
       A          B          C        ALPHA      BETA     GAMMA        VOLUME
   15.02361   15.02392    4.40000    90.00032  89.99994 119.99596    860.118811

 COORDINATES OF THE EQUIVALENT ATOMS (FRACTIONAL UNITS)

 N. ATOM EQUIV AT. N.          X                  Y                  Z

   1   1   1    5 B    -3.86319460000E-01  2.27318220000E-01 -4.98914380000E-01

   2   2   1    5 B    -2.27263800000E-01  3.86377880000E-01 -4.98914370000E-01

   3   3   1    5 B    -3.86323730000E-01  3.86360670000E-01  4.98803090000E-01

   4   4   1    5 B     2.27255250000E-01 -3.86366780000E-01 -4.98914370000E-01

   5   5   1    5 B     3.86363220000E-01 -3.86387550000E-01 -4.98914380000E-01

   6   6   1    5 B     3.86343500000E-01 -2.27248350000E-01  4.98803090000E-01

   7   7   1    1 H    -9.69563800000E-02  3.08930050000E-01  4.96353460000E-01

   8   8   1    1 H     9.66345300000E-02 -3.08946560000E-01  4.95629830000E-01

   9   9   1    1 H    -9.70285800000E-02 -4.05927570000E-01  4.95518460000E-01

  10  10   1    1 H     9.67361800000E-02  4.05684940000E-01  4.95546240000E-01

  11  11   1    1 H    -3.08967600000E-01  9.70041200000E-02 -4.96353430000E-01

  12  12   1    1 H     3.08929720000E-01 -9.65626900000E-02 -4.95629750000E-01

  13  13   1    1 H     4.05869990000E-01  9.70499800000E-02 -4.95518310000E-01

  14  14   1    1 H    -4.05687790000E-01 -9.66526800000E-02 -4.95546280000E-01

  15  15   1    1 H    -3.08927260000E-01 -4.05945790000E-01  4.96353500000E-01

  16  16   1    1 H     3.08961830000E-01  4.05609330000E-01  4.95629780000E-01

  17  17   1    1 H     4.05840570000E-01  3.08823250000E-01  4.95518370000E-01

  18  18   1    1 H    -4.05709120000E-01 -3.09042070000E-01  4.95546330000E-01

  19  19   1    6 C    -1.08109690000E-01  4.45943690000E-01  4.98719570000E-01

  20  20   1    6 C    -5.35108900000E-02  3.92785630000E-01  4.96464820000E-01

  21  21   1    6 C     5.33881200000E-02 -3.92814700000E-01  4.96270040000E-01

  22  22   1    6 C    -5.35478900000E-02 -4.46307810000E-01  4.96854590000E-01

  23  23   1    6 C     5.34263400000E-02  4.46249970000E-01  4.95351390000E-01

  24  24   1    6 C     1.08035890000E-01 -4.45964370000E-01  4.96882400000E-01

  25  25   1    6 C    -4.45960580000E-01  1.08168460000E-01 -4.98719510000E-01

  26  26   1    6 C    -3.92822150000E-01  5.35559400000E-02 -4.96464800000E-01

  27  27   1    6 C     3.92798670000E-01 -5.33368400000E-02 -4.96269950000E-01

  28  28   1    6 C     4.46287580000E-01  5.36028600000E-02 -4.96854480000E-01

  29  29   1    6 C    -4.46283150000E-01 -5.33764400000E-02 -4.95351390000E-01

  30  30   1    6 C     4.45927910000E-01 -1.08007940000E-01 -4.96882350000E-01

  31  31   1    6 C    -4.45955130000E-01  4.45874550000E-01  4.98719570000E-01

  32  32   1    6 C    -3.92789780000E-01 -4.46374220000E-01  4.96464870000E-01

  33  33   1    6 C     3.92823370000E-01  4.46172030000E-01  4.96269990000E-01

  34  34   1    6 C     4.46287260000E-01  3.92689990000E-01  4.96854530000E-01

  35  35   1    6 C    -4.46257040000E-01 -3.92902000000E-01  4.95351450000E-01

  36  36   1    6 C     4.45959980000E-01 -4.46041770000E-01  4.96882400000E-01

  37  37   1    8 O    -4.39263320000E-01  2.80370630000E-01  4.99415470000E-01

  38  38   1    8 O    -2.80318300000E-01  2.80378330000E-01 -4.95768920000E-01

  39  39   1    8 O    -2.80320580000E-01  4.39323460000E-01  4.96965930000E-01

  40  40   1    8 O     2.80324510000E-01 -2.80348890000E-01  4.99415490000E-01

  41  41   1    8 O     2.80343970000E-01 -4.39304390000E-01 -4.95768930000E-01

  42  42   1    8 O     4.39263840000E-01 -2.80364580000E-01  4.96965910000E-01

 NUMBER OF SYMMETRY OPERATORS         :    1
 *******************************************************************************
 * GEOMETRY EDITING - INPUT COORDINATES ARE GIVEN IN ANGSTROM         
 *******************************************************************************

 GCALCO - MAX INDICES DIRECT LATTICE VECTOR    10    10    31
 NO.OF VECTORS CREATED 6999 STARS 3500 RMAX   213.02912 BOHR

 GEOMETRY FOR WAVE FUNCTION - DIMENSIONALITY OF THE SYSTEM    3
 (NON PERIODIC DIRECTION: LATTICE PARAMETER FORMALLY SET TO 500)
 *******************************************************************************
 LATTICE PARAMETERS (ANGSTROMS AND DEGREES) - BOHR = 0.5291772083 ANGSTROM
 PRIMITIVE CELL - CENTRING CODE 1/0 VOLUME=   860.118811 - DENSITY  0.753 g/cm^3
         A              B              C           ALPHA      BETA       GAMMA 
    15.02361100    15.02391600     4.40000000    90.000323  89.999944 119.995964
 *******************************************************************************
 ATOMS IN THE ASYMMETRIC UNIT   42 - ATOMS IN THE UNIT CELL:   42
     ATOM                 X/A                 Y/B                 Z/C    
 *******************************************************************************
      1 T   5 B    -3.863194600000E-01  2.273182200000E-01 -4.989143800000E-01
      2 T   5 B    -2.272638000000E-01  3.863778800000E-01 -4.989143700000E-01
      3 T   5 B    -3.863237300000E-01  3.863606700000E-01  4.988030900000E-01
      4 T   5 B     2.272552500000E-01 -3.863667800000E-01 -4.989143700000E-01
      5 T   5 B     3.863632200000E-01 -3.863875500000E-01 -4.989143800000E-01
      6 T   5 B     3.863435000000E-01 -2.272483500000E-01  4.988030900000E-01
      7 T   1 H    -9.695638000000E-02  3.089300500000E-01  4.963534600000E-01
      8 T   1 H     9.663453000000E-02 -3.089465600000E-01  4.956298300000E-01
      9 T   1 H    -9.702858000000E-02 -4.059275700000E-01  4.955184600000E-01
     10 T   1 H     9.673618000000E-02  4.056849400000E-01  4.955462400000E-01
     11 T   1 H    -3.089676000000E-01  9.700412000000E-02 -4.963534300000E-01
     12 T   1 H     3.089297200000E-01 -9.656269000000E-02 -4.956297500000E-01
     13 T   1 H     4.058699900000E-01  9.704998000000E-02 -4.955183100000E-01
     14 T   1 H    -4.056877900000E-01 -9.665268000000E-02 -4.955462800000E-01
     15 T   1 H    -3.089272600000E-01 -4.059457900000E-01  4.963535000000E-01
     16 T   1 H     3.089618300000E-01  4.056093300000E-01  4.956297800000E-01
     17 T   1 H     4.058405700000E-01  3.088232500000E-01  4.955183700000E-01
     18 T   1 H    -4.057091200000E-01 -3.090420700000E-01  4.955463300000E-01
     19 T   6 C    -1.081096900000E-01  4.459436900000E-01  4.987195700000E-01
     20 T   6 C    -5.351089000000E-02  3.927856300000E-01  4.964648200000E-01
     21 T   6 C     5.338812000000E-02 -3.928147000000E-01  4.962700400000E-01
     22 T   6 C    -5.354789000000E-02 -4.463078100000E-01  4.968545900000E-01
     23 T   6 C     5.342634000000E-02  4.462499700000E-01  4.953513900000E-01
     24 T   6 C     1.080358900000E-01 -4.459643700000E-01  4.968824000000E-01
     25 T   6 C    -4.459605800000E-01  1.081684600000E-01 -4.987195100000E-01
     26 T   6 C    -3.928221500000E-01  5.355594000000E-02 -4.964648000000E-01
     27 T   6 C     3.927986700000E-01 -5.333684000000E-02 -4.962699500000E-01
     28 T   6 C     4.462875800000E-01  5.360286000000E-02 -4.968544800000E-01
     29 T   6 C    -4.462831500000E-01 -5.337644000000E-02 -4.953513900000E-01
     30 T   6 C     4.459279100000E-01 -1.080079400000E-01 -4.968823500000E-01
     31 T   6 C    -4.459551300000E-01  4.458745500000E-01  4.987195700000E-01
     32 T   6 C    -3.927897800000E-01 -4.463742200000E-01  4.964648700000E-01
     33 T   6 C     3.928233700000E-01  4.461720300000E-01  4.962699900000E-01
     34 T   6 C     4.462872600000E-01  3.926899900000E-01  4.968545300000E-01
     35 T   6 C    -4.462570400000E-01 -3.929020000000E-01  4.953514500000E-01
     36 T   6 C     4.459599800000E-01 -4.460417700000E-01  4.968824000000E-01
     37 T   8 O    -4.392633200000E-01  2.803706300000E-01  4.994154700000E-01
     38 T   8 O    -2.803183000000E-01  2.803783300000E-01 -4.957689200000E-01
     39 T   8 O    -2.803205800000E-01  4.393234600000E-01  4.969659300000E-01
     40 T   8 O     2.803245100000E-01 -2.803488900000E-01  4.994154900000E-01
     41 T   8 O     2.803439700000E-01 -4.393043900000E-01 -4.957689300000E-01
     42 T   8 O     4.392638400000E-01 -2.803645800000E-01  4.969659100000E-01

 T = ATOM BELONGING TO THE ASYMMETRIC UNIT

 ****    1 SYMMOPS - TRANSLATORS IN FRACTIONAL UNITS
 **** MATRICES AND TRANSLATORS IN THE CRYSTALLOGRAPHIC REFERENCE FRAME
   V INV                    ROTATION MATRICES                   TRANSLATORS
   1   1  1.00 -0.00  0.00  0.00  1.00  0.00 -0.00 -0.00  1.00  0.00  0.00  0.00

 DIRECT LATTICE VECTORS CARTESIAN COMPONENTS (ANGSTROM)
          X                    Y                    Z
   0.130113578931E+02  -0.751088897922E+01   0.000000000000E+00
   0.000000000000E+00   0.150239160000E+02   0.000000000000E+00
  -0.935304638444E-05  -0.248046193283E-04   0.439999999992E+01


 CARTESIAN COORDINATES - PRIMITIVE CELL
 *******************************************************************************
 *      ATOM          X(ANGSTROM)         Y(ANGSTROM)         Z(ANGSTROM)
 *******************************************************************************
    1     5 B    -5.026536088743E+00  6.316824792502E+00 -2.195223271960E+00
    2     5 B    -2.957005971567E+00  7.511874359554E+00 -2.195223227960E+00
    3     5 B    -5.026600978939E+00 -6.317643474770E+00  2.194733595960E+00
    4     5 B     2.956904057195E+00 -7.511618625224E+00 -2.195223227960E+00
    5     5 B     5.027114798503E+00  6.316943029663E+00 -2.195223271960E+00
    6     5 B     5.026848882828E+00 -6.315955630501E+00  2.194733595960E+00
    7     1 H    -1.261538802612E+00  5.369555415224E+00  2.183955223960E+00
    8     1 H     1.257341819009E+00 -5.367410686227E+00  2.180771251960E+00
    9     1 H    -1.262478214842E+00 -5.369863112720E+00  2.180281223960E+00
   10     1 H     1.258664424320E+00  5.368389460936E+00  2.180403455960E+00
   11     1 H    -4.020083378542E+00  3.778015404167E+00 -2.183955091960E+00
   12     1 H     4.019599786370E+00 -3.771074278687E+00 -2.180770899960E+00
   13     1 H     5.280924332547E+00 -1.590361396421E+00 -2.180280563960E+00
   14     1 H    -5.278544393666E+00  1.594986497256E+00 -2.180403631960E+00
   15     1 H    -4.019567785199E+00 -3.778589408860E+00  2.183955399960E+00
   16     1 H     4.020008309775E+00  3.773250204883E+00  2.180771031960E+00
   17     1 H     5.280532269186E+00  1.591498811171E+00  2.180280827960E+00
   18     1 H    -5.278831195665E+00 -1.595798233809E+00  2.180403851960E+00
   19     6 C    -1.406658532845E+00  7.511808047908E+00  2.194366107960E+00
   20     6 C    -6.962539844245E-01  6.303080350475E+00  2.184445207960E+00
   21     6 C     6.946472949207E-01 -6.302619608284E+00  2.183588175960E+00
   22     6 C    -6.967354083121E-01 -6.303111115012E+00  2.186160195960E+00
   23     6 C     6.951445976116E-01  6.303130468974E+00  2.179546115960E+00
   24     6 C     1.405688982721E+00 -7.511589134413E+00  2.186282559960E+00
   25     6 C     7.208809845028E+00 -2.536202346293E+00 -2.194365843960E+00
   26     6 C    -5.111144938512E+00  3.755075815709E+00 -2.184445119960E+00
   27     6 C     5.110848716922E+00 -3.751583095632E+00 -2.183587779960E+00
   28     6 C     5.806812073709E+00 -2.546679275897E+00 -2.186159711960E+00
   29     6 C    -5.806745153246E+00  2.550072329009E+00 -2.179546115960E+00
   30     6 C     5.802132278876E+00 -4.972004917660E+00 -2.186282339960E+00
   31     6 C     7.208871427835E+00  2.537399907114E+00  2.194366107960E+00
   32     6 C    -5.110733047774E+00 -3.756100670717E+00  2.184445427960E+00
   33     6 C     5.111160814190E+00  3.752786069970E+00  2.183587955960E+00
   34     6 C     5.806798615868E+00  2.547715036815E+00  2.186159931960E+00
   35     6 C    -5.806414692781E+00 -2.551151847602E+00  2.179546379960E+00
   36     6 C     5.802540258396E+00  4.973053691096E+00  2.186282559960E+00
   37     8 O     7.295940956188E+00  6.214561220357E-04  2.197428067960E+00
   38     8 O    -3.647317088323E+00  6.317832405642E+00 -2.181383247960E+00
   39     8 O    -3.647356039315E+00 -6.318112812212E+00  2.186650091960E+00
   40     8 O     3.647397854749E+00 -6.317436834628E+00  2.197428155960E+00
   41     8 O     3.647660363780E+00  6.318223608906E+00 -2.181383291960E+00
   42     8 O    -7.295943509483E+00 -5.591819533406E-04  2.186650003960E+00

 *******************************************************************************
 STARTING BASIS SET HANDLING 
 *******************************************************************************

 Loading internal basis set: SOLDEF2MSVP         

 Please cite in your publication:
 L. Dona', J. G. Brandenburg and B. Civalleri, J. Chem. Phys., 151, 121101 (2019
 )                                                                              
                                                                                
                    

 *******************************************************************************
 LOCAL ATOMIC FUNCTIONS BASIS SET
 *******************************************************************************
   ATOM   X(AU)   Y(AU)   Z(AU)  N. TYPE  EXPONENT  S COEF   P COEF   D/F/G COEF
 *******************************************************************************
   1 B   -9.499  11.937  -4.148
                                  1 S  
                                         2.410E+03 1.755E-03 0.000E+00 0.000E+00
                                         3.619E+02 1.344E-02 0.000E+00 0.000E+00
                                         8.231E+01 6.637E-02 0.000E+00 0.000E+00
                                         2.311E+01 2.303E-01 0.000E+00 0.000E+00
                                         7.252E+00 5.150E-01 0.000E+00 0.000E+00
                                  2 S  
                                         2.367E+00 1.000E+00 0.000E+00 0.000E+00
                                  3 S  
                                         5.533E-01 1.000E+00 0.000E+00 0.000E+00
                                  4 S  
                                         1.716E-01 1.000E+00 0.000E+00 0.000E+00
                           5-     7 P  
                                         6.002E+00 0.000E+00-3.555E-02 0.000E+00
                                         1.240E+00 0.000E+00-1.983E-01 0.000E+00
                                         3.367E-01 0.000E+00-5.048E-01 0.000E+00
                           8-    10 P  
                                         1.256E-01 0.000E+00 1.000E+00 0.000E+00
                          11-    15 D  
                                         8.880E-01 0.000E+00 0.000E+00 1.000E+00
   2 B   -5.588  14.195  -4.148
   3 B   -9.499 -11.939   4.147
   4 B    5.588 -14.195  -4.148
   5 B    9.500  11.937  -4.148
   6 B    9.499 -11.935   4.147
   7 H   -2.384  10.147   4.127
                                 91 S  
                                         1.874E+01 1.968E-02 0.000E+00 0.000E+00
                                         2.826E+00 1.380E-01 0.000E+00 0.000E+00
                                         6.401E-01 4.783E-01 0.000E+00 0.000E+00
                                 92 S  
                                         1.756E-01 1.000E+00 0.000E+00 0.000E+00
   8 H    2.376 -10.143   4.121
   9 H   -2.386 -10.148   4.120
  10 H    2.379  10.145   4.120
  11 H   -7.597   7.139  -4.127
  12 H    7.596  -7.126  -4.121
  13 H    9.980  -3.005  -4.120
  14 H   -9.975   3.014  -4.120
  15 H   -7.596  -7.140   4.127
  16 H    7.597   7.130   4.121
  17 H    9.979   3.007   4.120
  18 H   -9.976  -3.016   4.120
  19 C   -2.658  14.195   4.147
                                115 S  
                                         3.624E+03 1.634E-03 0.000E+00 0.000E+00
                                         5.440E+02 1.252E-02 0.000E+00 0.000E+00
                                         1.237E+02 6.211E-02 0.000E+00 0.000E+00
                                         3.476E+01 2.182E-01 0.000E+00 0.000E+00
                                         1.093E+01 4.980E-01 0.000E+00 0.000E+00
                                116 S  
                                         3.574E+00 1.000E+00 0.000E+00 0.000E+00
                                117 S  
                                         7.742E-01 1.000E+00 0.000E+00 0.000E+00
                                118 S  
                                         2.330E-01 1.000E+00 0.000E+00 0.000E+00
                         119-   121 P  
                                         9.443E+00 0.000E+00 3.790E-02 0.000E+00
                                         2.002E+00 0.000E+00 2.082E-01 0.000E+00
                                         5.463E-01 0.000E+00 5.047E-01 0.000E+00
                         122-   124 P  
                                         1.820E-01 0.000E+00 1.000E+00 0.000E+00
                         125-   129 D  
                                         8.880E-01 0.000E+00 0.000E+00 1.000E+00
  20 C   -1.316  11.911   4.128
  21 C    1.313 -11.910   4.126
  22 C   -1.317 -11.911   4.131
  23 C    1.314  11.911   4.119
  24 C    2.656 -14.195   4.131
  25 C   13.623  -4.793  -4.147
  26 C   -9.659   7.096  -4.128
  27 C    9.658  -7.089  -4.126
  28 C   10.973  -4.813  -4.131
  29 C  -10.973   4.819  -4.119
  30 C   10.964  -9.396  -4.131
  31 C   13.623   4.795   4.147
  32 C   -9.658  -7.098   4.128
  33 C    9.659   7.092   4.126
  34 C   10.973   4.814   4.131
  35 C  -10.973  -4.821   4.119
  36 C   10.965   9.398   4.131
  37 O   13.787   0.001   4.153
                                385 S  
                                         6.773E+03 1.727E-03 0.000E+00 0.000E+00
                                         1.017E+03 1.325E-02 0.000E+00 0.000E+00
                                         2.313E+02 6.603E-02 0.000E+00 0.000E+00
                                         6.501E+01 2.353E-01 0.000E+00 0.000E+00
                                         2.050E+01 5.498E-01 0.000E+00 0.000E+00
                                386 S  
                                         6.716E+00 1.000E+00 0.000E+00 0.000E+00
                                387 S  
                                         1.147E+00 1.000E+00 0.000E+00 0.000E+00
                                388 S  
                                         3.342E-01 1.000E+00 0.000E+00 0.000E+00
                         389-   391 P  
                                         1.769E+01 0.000E+00 4.359E-02 0.000E+00
                                         3.854E+00 0.000E+00 2.318E-01 0.000E+00
                                         1.047E+00 0.000E+00 5.146E-01 0.000E+00
                         392-   394 P  
                                         2.759E-01 0.000E+00 1.000E+00 0.000E+00
                         395-   399 D  
                                         8.000E-01 0.000E+00 0.000E+00 1.000E+00
  38 O   -6.892  11.939  -4.122
  39 O   -6.893 -11.940   4.132
  40 O    6.893 -11.938   4.153
  41 O    6.893  11.940  -4.122
  42 O  -13.787  -0.001   4.132

 *******************************************************************************
 FINISHED BASIS SET HANDLING 
 *******************************************************************************

 INFORMATION **** SET_MPP **** PCRYSTAL CALCULATION
 INFORMATION **** READM2 **** NEW DEFAULT: FOCK/KS MATRIX MIXING SET TO 30 %
 INFORMATION **** READM2 **** NEW DEFAULT: FULL DIRECT SCF MODE
 INFORMATION **** READM2 **** NEW DEFAULT: COULOMB BIPOLAR BUFFER SET TO 32 Mb
 INFORMATION **** READM2 **** NEW DEFAULT: EXCHANGE BIPOLAR BUFFER SET TO 32 Mb

 *******************************************************************************
 NEW DEFAULT: DFT INTEGRATION GRID INCREASED TO XLGRID
 NEW DEFAULT: DIIS ACCELERATOR ACTIVE
 USE KEYWORD NODIIS TO TURN IT OFF
 *******************************************************************************

 WARNING **** RDDFTP **** HSEsol-HJS ACTIVE
 RANGE SEPARATION - OMEGA:   0.110000000000000     
 WARNING **** RDDFTP **** HSEsol-3c has to be combined with sol-def2-mSVP basis set
 *******************************************************************************
 N. OF ATOMS PER CELL        42  COULOMB OVERLAP TOL         (T1) 10**   -6
 NUMBER OF SHELLS           234  COULOMB PENETRATION TOL     (T2) 10**   -6
 NUMBER OF AO               474  EXCHANGE OVERLAP TOL        (T3) 10**   -6
 N. OF ELECTRONS PER CELL   198  EXCHANGE PSEUDO OVP (F(G))  (T4) 10**   -6
 CORE ELECTRONS PER CELL     60  EXCHANGE PSEUDO OVP (P(G))  (T5) 10**  -12
 N. OF SYMMETRY OPERATORS     1  POLE ORDER IN MONO ZONE                  4
 *******************************************************************************
 TYPE OF CALCULATION :  RESTRICTED CLOSED SHELL
 KOHN-SHAM HAMILTONIAN

 (EXCHANGE)[CORRELATION] FUNCTIONAL:(HSEsol GGA)[PBEsol]

 RANGE-SEPARATED HYBRID FUNCTIONAL 
 OMEGA (SHORT-RANGE)[LONG-RANGE]:(    0.1100)[    0.0000]

 HYBRID EXCHANGE - PERCENTAGE OF FOCK EXCHANGE    25.0000

 CAPPA:IS1  2;IS2  2;IS3  8; K PTS MONK NET  20; SYMMOPS:K SPACE   2;G SPACE   1

 *******************************************************************************
 MAX NUMBER OF SCF CYCLES      50  CONVERGENCE ON DELTAP        10**-16
 WEIGHT OF F(I) IN F(I+1)      30% CONVERGENCE ON ENERGY        10**- 6
 SHRINK. FACT.(MONKH.)    2  2  8  NUMBER OF K POINTS IN THE IBZ     20
 SHRINKING FACTOR(GILAT NET)    8  NUMBER OF K POINTS(GILAT NET)   1028
 *******************************************************************************
 *** K POINTS COORDINATES (OBLIQUE COORDINATES IN UNITS OF IS =  2)
   1-R(  0  0  0)   2-R(  1  0  0)   3-R(  0  1  0)   4-R(  1  1  0)
   5-C(  0  0  1)   6-C(  1  0  1)   7-C(  0  1  1)   8-C(  1  1  1)
   9-C(  0  0  2)  10-C(  1  0  2)  11-C(  0  1  2)  12-C(  1  1  2)
  13-C(  0  0  3)  14-C(  1  0  3)  15-C(  0  1  3)  16-C(  1  1  3)
  17-R(  0  0  4)  18-R(  1  0  4)  19-R(  0  1  4)  20-R(  1  1  4)

 DIRECT LATTICE VECTORS COMPON. (A.U.)     RECIP. LATTICE VECTORS COMPON. (A.U.) 
        X            Y            Z              X            Y            Z
   24.5879030  -14.1935232    0.0000000      0.2555397    0.0000000    0.0000005
    0.0000000   28.3910867    0.0000000      0.1277517    0.2213084    0.0000015
   -0.0000177   -0.0000469    8.3147950      0.0000000    0.0000000    0.7556633

 DISK SPACE FOR EIGENVECTORS (FTN 10)     7189632 REALS

 SYMMETRY ADAPTION OF THE BLOCH FUNCTIONS DISABLED
 TTTTTTTTTTTTTTTTTTTTTTTTTTTTTT gordsh1     TELAPSE        0.04 TCPU        0.04

 MATRIX SIZE: P(G)  303428, F(G)   62274, P(G) IRR  153229, F(G) IRR   62970
 MAX G-VECTOR INDEX FOR 1- AND 2-ELECTRON INTEGRALS 101

 TTTTTTTTTTTTTTTTTTTTTTTTTTTTTT INPUT       TELAPSE        0.29 TCPU        0.29

 NEIGHBORS OF THE NON-EQUIVALENT ATOMS

 N = NUMBER OF NEIGHBORS AT DISTANCE R
    ATOM  N     R/ANG      R/AU   NEIGHBORS (ATOM LABELS AND CELL INDICES)
   1 B    1     1.3791     2.6061   37 O   -1 0-1
   1 B    1     1.3793     2.6065   38 O    0 0 0
   1 B    1     1.5503     2.9297   25 C   -1 0 0
   1 B    1     2.3895     4.5155    3 B    0 1-1
   1 B    1     2.3898     4.5160    2 B    0 0 0
   1 B    1     2.5632     4.8437   26 C    0 0 0

   2 B    1     1.3793     2.6065   39 O    0 1-1
   2 B    1     1.3793     2.6065   38 O    0 0 0
   2 B    1     1.5504     2.9298   19 C    0 0-1
   2 B    1     2.3895     4.5156    3 B    0 1-1
   2 B    1     2.3898     4.5160    1 B    0 0 0
   2 B    1     2.5634     4.8440   22 C    0 1-1

   3 B    1     1.3791     2.6061   37 O   -1-1 0
   3 B    1     1.3793     2.6064   39 O    0 0 0
   3 B    1     1.5502     2.9294   31 C   -1-1 0
   3 B    1     2.3895     4.5155    1 B    0-1 1
   3 B    1     2.3895     4.5156    2 B    0-1 1
   3 B    1     2.5629     4.8433   32 C    0 0 0

   4 B    1     1.3795     2.6068   40 O    0 0-1
   4 B    1     1.3795     2.6070   41 O    0-1 0
   4 B    1     1.5513     2.9316   24 C    0 0-1
   4 B    1     2.3905     4.5174    6 B    0 0-1
   4 B    1     2.3905     4.5175    5 B    0-1 0
   4 B    1     2.5648     4.8468   23 C    0-1-1

   5 B    1     1.3795     2.6069   41 O    0 0 0
   5 B    1     1.3797     2.6072   42 O    1 1-1
   5 B    1     1.5516     2.9322   36 C    0 0-1
   5 B    1     2.3905     4.5175    4 B    0 1 0
   5 B    1     2.3911     4.5185    6 B    0 1-1
   5 B    1     2.5651     4.8473   35 C    1 1-1

   6 B    1     1.3795     2.6068   40 O    0 0 0
   6 B    1     1.3796     2.6071   42 O    1 0 0
   6 B    1     1.5516     2.9322   30 C    0 0 1
   6 B    1     2.3905     4.5174    4 B    0 0 1
   6 B    1     2.3911     4.5185    5 B    0-1 1
   6 B    1     2.5651     4.8473   29 C    1 0 1

   7 H    1     1.0913     2.0623   20 C    0 0 0
   7 H    1     2.1472     4.0576   19 C    0 0 0
   7 H    1     2.1680     4.0969   23 C    0 0 0
   7 H    1     2.5202     4.7625   10 H    0 0 0
   7 H    1     2.5676     4.8520   38 O    0 0 1
   7 H    1     2.7321     5.1630    2 B    0 0 1

   8 H    1     1.0914     2.0625   21 C    0 0 0
   8 H    1     2.1493     4.0616   24 C    0 0 0
   8 H    1     2.1666     4.0942   22 C    0 0 0
   8 H    1     2.5198     4.7618    9 H    0 0 0
   8 H    1     2.5720     4.8604   40 O    0 0 0
   8 H    1     2.7362     5.1707    4 B    0 0 1

   9 H    1     1.0914     2.0624   22 C    0 0 0
   9 H    1     2.1471     4.0575   19 C    0-1 0
   9 H    1     2.1680     4.0970   21 C    0 0 0
   9 H    1     2.5198     4.7618    8 H    0 0 0
   9 H    1     2.5665     4.8500   39 O    0 0 0
   9 H    1     2.7315     5.1618    2 B    0-1 1

  10 H    1     1.0915     2.0626   23 C    0 0 0
  10 H    1     2.1490     4.0610   24 C    0 1 0
  10 H    1     2.1669     4.0948   20 C    0 0 0
  10 H    1     2.5202     4.7625    7 H    0 0 0
  10 H    1     2.5712     4.8588   41 O    0 0 1
  10 H    1     2.7351     5.1686    4 B    0 1 1

  11 H    1     1.0913     2.0623   26 C    0 0 0
  11 H    1     2.1469     4.0571   25 C   -1 0 0
  11 H    1     2.1680     4.0968   29 C    0 0 0
  11 H    1     2.5198     4.7617   14 H    0 0 0
  11 H    1     2.5670     4.8510   38 O    0 0 0
  11 H    1     2.7310     5.1609    1 B    0 0 0

  12 H    1     1.0914     2.0625   27 C    0 0 0
  12 H    1     2.1493     4.0617   30 C    0 0 0
  12 H    1     2.1664     4.0939   28 C    0 0 0
  12 H    1     2.5192     4.7606   13 H    0 0 0
  12 H    1     2.5735     4.8632   40 O    0 0-1
  12 H    1     2.7371     5.1723    6 B    0 0-1

  13 H    1     1.0914     2.0624   28 C    0 0 0
  13 H    1     2.1475     4.0581   25 C    0 0 0
  13 H    1     2.1679     4.0967   27 C    0 0 0
  13 H    1     2.5192     4.7606   12 H    0 0 0
  13 H    1     2.5675     4.8519   37 O    0 0-1
  13 H    1     2.7328     5.1643    1 B    1 0 0

  14 H    1     1.0914     2.0625   29 C    0 0 0
  14 H    1     2.1491     4.0612   30 C   -1 0 0
  14 H    1     2.1666     4.0942   26 C    0 0 0
  14 H    1     2.5198     4.7617   11 H    0 0 0
  14 H    1     2.5723     4.8609   42 O    0 0-1
  14 H    1     2.7355     5.1693    6 B   -1 0-1

  15 H    1     1.0914     2.0624   32 C    0 0 0
  15 H    1     2.1475     4.0582   31 C   -1-1 0
  15 H    1     2.1678     4.0966   35 C    0 0 0
  15 H    1     2.5200     4.7621   18 H    0 0 0
  15 H    1     2.5667     4.8503   39 O    0 0 0
  15 H    1     2.7315     5.1618    3 B    0 0 0

  16 H    1     1.0913     2.0623   33 C    0 0 0
  16 H    1     2.1487     4.0605   36 C    0 0 0
  16 H    1     2.1667     4.0945   34 C    0 0 0
  16 H    1     2.5197     4.7616   17 H    0 0 0
  16 H    1     2.5723     4.8610   41 O    0 0 1
  16 H    1     2.7359     5.1701    5 B    0 0 1

  17 H    1     1.0915     2.0626   34 C    0 0 0
  17 H    1     2.1479     4.0589   31 C    0 0 0
  17 H    1     2.1679     4.0968   33 C    0 0 0
  17 H    1     2.5197     4.7616   16 H    0 0 0
  17 H    1     2.5677     4.8522   37 O    0 0 0
  17 H    1     2.7331     5.1648    3 B    1 1 0

  18 H    1     1.0914     2.0624   35 C    0 0 0
  18 H    1     2.1486     4.0602   36 C   -1-1 0
  18 H    1     2.1668     4.0947   32 C    0 0 0
  18 H    1     2.5200     4.7621   15 H    0 0 0
  18 H    1     2.5717     4.8598   42 O    0 0 0
  18 H    1     2.7349     5.1682    5 B   -1-1 1

  19 C    1     1.4020     2.6495   22 C    0 1 0
  19 C    1     1.4021     2.6495   20 C    0 0 0
  19 C    1     1.5504     2.9298    2 B    0 0 1
  19 C    1     2.1471     4.0575    9 H    0 1 0
  19 C    1     2.1472     4.0576    7 H    0 0 0
  19 C    1     2.4246     4.5817   21 C    0 1 0

  20 C    1     1.0913     2.0623    7 H    0 0 0
  20 C    1     1.3914     2.6294   23 C    0 0 0
  20 C    1     1.4021     2.6495   19 C    0 0 0
  20 C    1     2.1669     4.0948   10 H    0 0 0
  20 C    1     2.4177     4.5688   22 C    0 1 0
  20 C    1     2.4250     4.5825   24 C    0 1 0

  21 C    1     1.0914     2.0625    8 H    0 0 0
  21 C    1     1.3914     2.6293   22 C    0 0 0
  21 C    1     1.4026     2.6505   24 C    0 0 0
  21 C    1     2.1680     4.0970    9 H    0 0 0
  21 C    1     2.4182     4.5697   23 C    0-1 0
  21 C    1     2.4246     4.5817   19 C    0-1 0

  22 C    1     1.0914     2.0624    9 H    0 0 0
  22 C    1     1.3914     2.6293   21 C    0 0 0
  22 C    1     1.4020     2.6495   19 C    0-1 0
  22 C    1     2.1666     4.0942    8 H    0 0 0
  22 C    1     2.4177     4.5688   20 C    0-1 0
  22 C    1     2.4250     4.5826   24 C    0 0 0

  23 C    1     1.0915     2.0626   10 H    0 0 0
  23 C    1     1.3914     2.6294   20 C    0 0 0
  23 C    1     1.4025     2.6504   24 C    0 1 0
  23 C    1     2.1680     4.0969    7 H    0 0 0
  23 C    1     2.4182     4.5697   21 C    0 1 0
  23 C    1     2.4246     4.5818   19 C    0 0 0

  24 C    1     1.4025     2.6504   23 C    0-1 0
  24 C    1     1.4026     2.6505   21 C    0 0 0
  24 C    1     1.5513     2.9316    4 B    0 0 1
  24 C    1     2.1490     4.0610   10 H    0-1 0
  24 C    1     2.1493     4.0616    8 H    0 0 0
  24 C    1     2.4250     4.5825   20 C    0-1 0

  25 C    1     1.4020     2.6494   26 C    1 0 0
  25 C    1     1.4021     2.6495   28 C    0 0 0
  25 C    1     1.5503     2.9297    1 B    1 0 0
  25 C    1     2.1469     4.0571   11 H    1 0 0
  25 C    1     2.1475     4.0581   13 H    0 0 0
  25 C    1     2.4246     4.5818   27 C    0 0 0

  26 C    1     1.0913     2.0623   11 H    0 0 0
  26 C    1     1.3914     2.6293   29 C    0 0 0
  26 C    1     1.4020     2.6494   25 C   -1 0 0
  26 C    1     2.1666     4.0942   14 H    0 0 0
  26 C    1     2.4175     4.5684   28 C   -1 0 0
  26 C    1     2.4251     4.5828   30 C   -1 0 0

  27 C    1     1.0914     2.0625   12 H    0 0 0
  27 C    1     1.3915     2.6295   28 C    0 0 0
  27 C    1     1.4026     2.6505   30 C    0 0 0
  27 C    1     2.1679     4.0967   13 H    0 0 0
  27 C    1     2.4179     4.5691   29 C    1 0 0
  27 C    1     2.4246     4.5818   25 C    0 0 0

  28 C    1     1.0914     2.0624   13 H    0 0 0
  28 C    1     1.3915     2.6295   27 C    0 0 0
  28 C    1     1.4021     2.6495   25 C    0 0 0
  28 C    1     2.1664     4.0939   12 H    0 0 0
  28 C    1     2.4175     4.5684   26 C    1 0 0
  28 C    1     2.4253     4.5832   30 C    0 0 0

  29 C    1     1.0914     2.0625   14 H    0 0 0
  29 C    1     1.3914     2.6293   26 C    0 0 0
  29 C    1     1.4025     2.6504   30 C   -1 0 0
  29 C    1     2.1680     4.0968   11 H    0 0 0
  29 C    1     2.4179     4.5691   27 C   -1 0 0
  29 C    1     2.4247     4.5819   25 C   -1 0 0

  30 C    1     1.4025     2.6504   29 C    1 0 0
  30 C    1     1.4026     2.6505   27 C    0 0 0
  30 C    1     1.5516     2.9322    6 B    0 0-1
  30 C    1     2.1491     4.0612   14 H    1 0 0
  30 C    1     2.1493     4.0617   12 H    0 0 0
  30 C    1     2.4251     4.5828   26 C    1 0 0

  31 C    1     1.4021     2.6496   32 C    1 1 0
  31 C    1     1.4021     2.6497   34 C    0 0 0
  31 C    1     1.5502     2.9294    3 B    1 1 0
  31 C    1     2.1475     4.0582   15 H    1 1 0
  31 C    1     2.1479     4.0589   17 H    0 0 0
  31 C    1     2.4244     4.5814   33 C    0 0 0

  32 C    1     1.0914     2.0624   15 H    0 0 0
  32 C    1     1.3914     2.6293   35 C    0 0 0
  32 C    1     1.4021     2.6496   31 C   -1-1 0
  32 C    1     2.1668     4.0947   18 H    0 0 0
  32 C    1     2.4179     4.5692   34 C   -1-1 0
  32 C    1     2.4251     4.5827   36 C   -1-1 0

  33 C    1     1.0913     2.0623   16 H    0 0 0
  33 C    1     1.3914     2.6294   34 C    0 0 0
  33 C    1     1.4025     2.6504   36 C    0 0 0
  33 C    1     2.1679     4.0968   17 H    0 0 0
  33 C    1     2.4178     4.5690   35 C    1 1 0
  33 C    1     2.4244     4.5814   31 C    0 0 0

  34 C    1     1.0915     2.0626   17 H    0 0 0
  34 C    1     1.3914     2.6294   33 C    0 0 0
  34 C    1     1.4021     2.6497   31 C    0 0 0
  34 C    1     2.1667     4.0945   16 H    0 0 0
  34 C    1     2.4179     4.5692   32 C    1 1 0
  34 C    1     2.4253     4.5832   36 C    0 0 0

  35 C    1     1.0914     2.0624   18 H    0 0 0
  35 C    1     1.3914     2.6293   32 C    0 0 0
  35 C    1     1.4025     2.6503   36 C   -1-1 0
  35 C    1     2.1678     4.0966   15 H    0 0 0
  35 C    1     2.4178     4.5690   33 C   -1-1 0
  35 C    1     2.4245     4.5817   31 C   -1-1 0

  36 C    1     1.4025     2.6503   35 C    1 1 0
  36 C    1     1.4025     2.6504   33 C    0 0 0
  36 C    1     1.5516     2.9322    5 B    0 0 1
  36 C    1     2.1486     4.0602   18 H    1 1 0
  36 C    1     2.1487     4.0605   16 H    0 0 0
  36 C    1     2.4251     4.5827   32 C    1 1 0

  37 O    1     1.3791     2.6061    1 B    1 0 1
  37 O    1     1.3791     2.6061    3 B    1 1 0
  37 O    1     2.3880     4.5126   38 O    1 0 1
  37 O    1     2.3882     4.5130   39 O    1 1 0
  37 O    1     2.5383     4.7966   31 C    0 0 0
  37 O    1     2.5384     4.7968   25 C    0 0 1

  38 O    1     1.3793     2.6065    1 B    0 0 0
  38 O    1     1.3793     2.6065    2 B    0 0 0
  38 O    1     2.3880     4.5126   37 O   -1 0-1
  38 O    1     2.3882     4.5131   39 O    0 1-1
  38 O    1     2.5391     4.7981   19 C    0 0-1
  38 O    1     2.5395     4.7990   25 C   -1 0 0

  39 O    1     1.3793     2.6064    3 B    0 0 0
  39 O    1     1.3793     2.6065    2 B    0-1 1
  39 O    1     2.3882     4.5130   37 O   -1-1 0
  39 O    1     2.3882     4.5131   38 O    0-1 1
  39 O    1     2.5390     4.7980   19 C    0-1 0
  39 O    1     2.5391     4.7982   31 C   -1-1 0

  40 O    1     1.3795     2.6068    6 B    0 0 0
  40 O    1     1.3795     2.6068    4 B    0 0 1
  40 O    1     2.3880     4.5126   42 O    1 0 0
  40 O    1     2.3884     4.5134   41 O    0-1 1
  40 O    1     2.5400     4.7998   24 C    0 0 0
  40 O    1     2.5403     4.8005   30 C    0 0 1

  41 O    1     1.3795     2.6069    5 B    0 0 0
  41 O    1     1.3795     2.6070    4 B    0 1 0
  41 O    1     2.3881     4.5128   42 O    1 1-1
  41 O    1     2.3884     4.5134   40 O    0 1-1
  41 O    1     2.5404     4.8006   24 C    0 1-1
  41 O    1     2.5405     4.8008   36 C    0 0-1

  42 O    1     1.3796     2.6071    6 B   -1 0 0
  42 O    1     1.3797     2.6072    5 B   -1-1 1
  42 O    1     2.3880     4.5126   40 O   -1 0 0
  42 O    1     2.3881     4.5128   41 O   -1-1 1
  42 O    1     2.5409     4.8016   36 C   -1-1 0
  42 O    1     2.5410     4.8019   30 C   -1 0 1


 SYMMETRY ALLOWED INTERNAL DEGREE(S) OF FREEDOM: 123
 TTTTTTTTTTTTTTTTTTTTTTTTTTTTTT SYMM        TELAPSE        0.29 TCPU        0.29
 TTTTTTTTTTTTTTTTTTTTTTTTTTTTTT INT_SCREEN  TELAPSE        0.32 TCPU        0.32

 DFT PARAMETERS

     ATOM       ELECTRONS   NET CHARGE   R(ANGSTROM)
   1   5  B       5.0000      0.0000     0.89000000
   7   1  H       1.0000      0.0000     1.11000000
  19   6  C       6.0000      0.0000     0.77000000
  37   8  O       8.0000      0.0000     0.74000000

 SIZE OF GRID=    1331535
 TTTTTTTTTTTTTTTTTTTTTTTTTTTTTT MAKE_GRID2  TELAPSE        8.80 TCPU        8.79
 BECKE WEIGHT FUNCTION
 RADSAFE =     2.00
 TOLERANCES - DENSITY:10**- 6; POTENTIAL:10**- 9; GRID WGT:10**-14

 RADIAL INTEGRATION  - INTERVALS (POINTS,UPPER LIMIT):            1( 75,  4.0*R)

 ANGULAR INTEGRATION - INTERVALS (ACCURACY LEVEL [N. POINTS] UPPER LIMIT):
  1(  4[  86]   0.2)  2(  8[ 194]   0.5)  3( 12[ 350]   0.9)  4( 16[ 974]   3.5)
  5( 12[ 350]9999.0)
 TTTTTTTTTTTTTTTTTTTTTTTTTTTTTT INT_CALC    TELAPSE        8.88 TCPU        8.87
 EEEEEEEEEE INT_CALC TERMINATION  DATE 19 02 2026 TIME 19:17:43.3

 *******************************************************************************
 cof-1_z44_L000_incl                                                             
 CRYSTAL - SCF - TYPE OF CALCULATION :  RESTRICTED CLOSED SHELL
 *******************************************************************************

 CAPPA:IS1  2;IS2  2;IS3  8; K PTS MONK NET  20; SYMMOPS:K SPACE   2;G SPACE   1

 TTTTTTTTTTTTTTTTTTTTTTTTTTTTTT SDIK        TELAPSE        9.48 TCPU       16.14

 AAAAAAAAAAAAAAAAAAAAAAAAAAAAAAAAAAAAAAAAAAAAAAAAAAAAAAAAAAAAAAAAAAAAAAAAAAAAAAA
         ATOMIC WAVEFUNCTION(S)


 NUCLEAR CHARGE  5.0  SYMMETRY SPECIES            S    P
 N. ELECTRONS    5.0  NUMBER OF PRIMITIVE GTOS    8    4
                      NUMBER OF CONTRACTED GTOS   4    2
                      NUMBER OF CLOSED SHELLS     2    0
                      OPEN SHELL OCCUPATION       0    1

  ZNUC  SCFIT    TOTAL HF ENERGY   KINETIC ENERGY   VIRIAL THEOREM ACCURACY
   5.0    11    -2.451164084E+01  2.462155050E+01 -1.995536038E+00  1.5E-06

 NUCLEAR CHARGE  1.0  SYMMETRY SPECIES            S
 N. ELECTRONS    1.0  NUMBER OF PRIMITIVE GTOS    4
                      NUMBER OF CONTRACTED GTOS   2
                      NUMBER OF CLOSED SHELLS     0
                      OPEN SHELL OCCUPATION       1

  ZNUC  SCFIT    TOTAL HF ENERGY   KINETIC ENERGY   VIRIAL THEOREM ACCURACY
   1.0     1    -4.977266687E-01  5.190767460E-01 -1.958869132E+00  0.0E+00

 NUCLEAR CHARGE  6.0  SYMMETRY SPECIES            S    P
 N. ELECTRONS    6.0  NUMBER OF PRIMITIVE GTOS    8    4
                      NUMBER OF CONTRACTED GTOS   4    2
                      NUMBER OF CLOSED SHELLS     2    0
                      OPEN SHELL OCCUPATION       0    2

  ZNUC  SCFIT    TOTAL HF ENERGY   KINETIC ENERGY   VIRIAL THEOREM ACCURACY
   6.0     9    -3.766704647E+01  3.775180683E+01 -1.997754800E+00  1.1E-06

 NUCLEAR CHARGE  8.0  SYMMETRY SPECIES            S    P
 N. ELECTRONS    8.0  NUMBER OF PRIMITIVE GTOS    8    4
                      NUMBER OF CONTRACTED GTOS   4    2
                      NUMBER OF CLOSED SHELLS     2    0
                      OPEN SHELL OCCUPATION       0    4

  ZNUC  SCFIT    TOTAL HF ENERGY   KINETIC ENERGY   VIRIAL THEOREM ACCURACY
   8.0    12    -7.477373220E+01  7.477365593E+01 -2.000001020E+00  3.8E-06

 AAAAAAAAAAAAAAAAAAAAAAAAAAAAAAAAAAAAAAAAAAAAAAAAAAAAAAAAAAAAAAAAAAAAAAAAAAAAAAA

 CHARGE NORMALIZATION FACTOR   1.00000000
 TOTAL ATOMIC CHARGES:
   5.0000000   5.0000000   5.0000000   5.0000000   5.0000000   5.0000000
   1.0000000   1.0000000   1.0000000   1.0000000   1.0000000   1.0000000
   1.0000000   1.0000000   1.0000000   1.0000000   1.0000000   1.0000000
   6.0000000   6.0000000   6.0000000   6.0000000   6.0000000   6.0000000
   6.0000000   6.0000000   6.0000000   6.0000000   6.0000000   6.0000000
   6.0000000   6.0000000   6.0000000   6.0000000   6.0000000   6.0000000
   8.0000000   8.0000000   8.0000000   8.0000000   8.0000000   8.0000000
 TTTTTTTTTTTTTTTTTTTTTTTTTTTTTT MOQGAD      TELAPSE        9.53 TCPU       17.30
 TTTTTTTTTTTTTTTTTTTTTTTTTTTTTT SHELLXN     TELAPSE       15.21 TCPU      197.09
 TTTTTTTTTTTTTTTTTTTTTTTTTTTTTT MONMO3      TELAPSE       15.35 TCPU      201.43
 NUMERICALLY INTEGRATED DENSITY    197.9999528406
 TTTTTTTTTTTTTTTTTTTTTTTTTTTTTT NUMDFT      TELAPSE       15.83 TCPU      216.92
 CYC   0 ETOT(AU) -1.295954782460E+03 DETOT -1.30E+03 tst  0.00E+00 PX  1.00E+00
 TTTTTTTTTTTTTTTTTTTTTTTTTTTTTT DIIS        TELAPSE       15.87 TCPU      217.98
 TTTTTTTTTTTTTTTTTTTTTTTTTTTTTT FDIK        TELAPSE       16.35 TCPU      233.47
 INSULATING STATE
 TOP OF VALENCE BANDS -    BAND     99; K    1; EIG -3.1108939E-01 AU
 BOTTOM OF VIRTUAL BANDS - BAND    100; K   17; EIG -1.6200579E-01 AU
 INDIRECT ENERGY BAND GAP:   4.0568 eV
 BOTTOM OF VIRTUAL BANDS - BAND    100; K    1; EIG -1.4909719E-01 AU
 TTTTTTTTTTTTTTTTTTTTTTTTTTTTTT PDIG        TELAPSE       16.63 TCPU      239.61
 CHARGE NORMALIZATION FACTOR   1.00000000
 TOTAL ATOMIC CHARGES:
   4.1598270   4.1596527   4.1599053   4.1595233   4.1592940   4.1594806
   0.7852800   0.7853945   0.7852382   0.7853565   0.7852596   0.7854237
   0.7852486   0.7853867   0.7852408   0.7854214   0.7852319   0.7853877
   6.0452500   6.2660343   6.2659955   6.2659813   6.2659211   6.0445117
   6.0452992   6.2660152   6.2660872   6.2659254   6.2661041   6.0440836
   6.0456067   6.2657483   6.2662910   6.2656641   6.2662737   6.0440460
   8.6926583   8.6927713   8.6927161   8.6930844   8.6931162   8.6932627
 TTTTTTTTTTTTTTTTTTTTTTTTTTTTTT MOQGAD      TELAPSE       16.67 TCPU      239.65
 TTTTTTTTTTTTTTTTTTTTTTTTTTTTTT SHELLXN     TELAPSE       22.53 TCPU      426.28
 TTTTTTTTTTTTTTTTTTTTTTTTTTTTTT MONMO3      TELAPSE       22.67 TCPU      430.61
 NUMERICALLY INTEGRATED DENSITY    197.9999601736
 TTTTTTTTTTTTTTTTTTTTTTTTTTTTTT NUMDFT      TELAPSE       23.16 TCPU      446.39
 CYC   1 ETOT(AU) -1.288804731119E+03 DETOT  7.15E+00 tst  0.00E+00 PX  1.00E+00
 TTTTTTTTTTTTTTTTTTTTTTTTTTTTTT DIIS        TELAPSE       23.21 TCPU      447.73
 DIIS TEST: 0.11225E+01 AT SCF   CYCLE   1 - MIX   30 %
 TTTTTTTTTTTTTTTTTTTTTTTTTTTTTT FDIK        TELAPSE       23.69 TCPU      463.27
 INSULATING STATE
 TOP OF VALENCE BANDS -    BAND     99; K    1; EIG -2.1694280E-01 AU
 BOTTOM OF VIRTUAL BANDS - BAND    100; K   17; EIG -8.4733505E-02 AU
 INDIRECT ENERGY BAND GAP:   3.5976 eV
 BOTTOM OF VIRTUAL BANDS - BAND    100; K    1; EIG -6.7610208E-02 AU
 TTTTTTTTTTTTTTTTTTTTTTTTTTTTTT PDIG        TELAPSE       23.97 TCPU      469.41
 CHARGE NORMALIZATION FACTOR   1.00000000
 TOTAL ATOMIC CHARGES:
   4.7165693   4.7164537   4.7164777   4.7168014   4.7167759   4.7168393
   0.9171537   0.9172157   0.9171296   0.9171628   0.9171551   0.9172193
   0.9171397   0.9172016   0.9171151   0.9172352   0.9170990   0.9172265
   5.8615657   6.1253166   6.1258454   6.1251645   6.1258041   5.8643728
   5.8613820   6.1250388   6.1258315   6.1252631   6.1256824   5.8648325
   5.8615005   6.1252744   6.1256501   6.1255206   6.1255449   5.8645848
   8.3348159   8.3351971   8.3351561   8.3346959   8.3348874   8.3351024
 TTTTTTTTTTTTTTTTTTTTTTTTTTTTTT MOQGAD      TELAPSE       24.01 TCPU      469.45
 TTTTTTTTTTTTTTTTTTTTTTTTTTTTTT SHELLXN     TELAPSE       29.87 TCPU      656.01
 TTTTTTTTTTTTTTTTTTTTTTTTTTTTTT MONMO3      TELAPSE       30.00 TCPU      660.34
 NUMERICALLY INTEGRATED DENSITY    197.9999490856
 TTTTTTTTTTTTTTTTTTTTTTTTTTTTTT NUMDFT      TELAPSE       30.50 TCPU      676.14
 CYC   2 ETOT(AU) -1.289000384458E+03 DETOT -1.96E-01 tst  4.60E-03 PX  1.58E-01
 TTTTTTTTTTTTTTTTTTTTTTTTTTTTTT DIIS        TELAPSE       30.54 TCPU      677.59
 DIIS TEST: 0.47717E+00 AT SCF   CYCLE   2 - DIIS ACTIVE - HISTORY:     2 CYCLES
 TTTTTTTTTTTTTTTTTTTTTTTTTTTTTT FDIK        TELAPSE       31.03 TCPU      693.21
 INSULATING STATE
 TOP OF VALENCE BANDS -    BAND     99; K    1; EIG -2.3186233E-01 AU
 BOTTOM OF VIRTUAL BANDS - BAND    100; K   17; EIG -8.0429728E-02 AU
 INDIRECT ENERGY BAND GAP:   4.1207 eV
 BOTTOM OF VIRTUAL BANDS - BAND    100; K    1; EIG -6.2167600E-02 AU
 TTTTTTTTTTTTTTTTTTTTTTTTTTTTTT PDIG        TELAPSE       31.31 TCPU      699.34
 CHARGE NORMALIZATION FACTOR   1.00000000
 TOTAL ATOMIC CHARGES:
   4.5050422   4.5048461   4.5049841   4.5044125   4.5042352   4.5042932
   0.8911521   0.8912852   0.8911183   0.8912422   0.8911022   0.8913261
   0.8911486   0.8912540   0.8911153   0.8912951   0.8911583   0.8912499
   5.8887148   6.1592988   6.1585862   6.1591943   6.1584611   5.8873792
   5.8888469   6.1592908   6.1585385   6.1592827   6.1584707   5.8871171
   5.8890032   6.1591640   6.1586180   6.1591850   6.1585416   5.8870858
   8.5069752   8.5071526   8.5071310   8.5071408   8.5072249   8.5073362
 TTTTTTTTTTTTTTTTTTTTTTTTTTTTTT MOQGAD      TELAPSE       31.36 TCPU      699.39
 TTTTTTTTTTTTTTTTTTTTTTTTTTTTTT SHELLXN     TELAPSE       37.21 TCPU      885.94
 TTTTTTTTTTTTTTTTTTTTTTTTTTTTTT MONMO3      TELAPSE       37.35 TCPU      890.27
 NUMERICALLY INTEGRATED DENSITY    197.9999500347
 TTTTTTTTTTTTTTTTTTTTTTTTTTTTTT NUMDFT      TELAPSE       37.84 TCPU      906.03
 CYC   3 ETOT(AU) -1.289100037133E+03 DETOT -9.97E-02 tst  7.38E-04 PX  6.05E-02
 TTTTTTTTTTTTTTTTTTTTTTTTTTTTTT DIIS        TELAPSE       37.90 TCPU      907.76
 DIIS TEST: 0.10980E-01 AT SCF   CYCLE   3 - DIIS ACTIVE - HISTORY:     3 CYCLES
 TTTTTTTTTTTTTTTTTTTTTTTTTTTTTT FDIK        TELAPSE       38.38 TCPU      923.30
 INSULATING STATE
 TOP OF VALENCE BANDS -    BAND     99; K    1; EIG -2.4205654E-01 AU
 BOTTOM OF VIRTUAL BANDS - BAND    100; K   17; EIG -8.9645556E-02 AU
 INDIRECT ENERGY BAND GAP:   4.1473 eV
 BOTTOM OF VIRTUAL BANDS - BAND    100; K    1; EIG -7.2188701E-02 AU
 TTTTTTTTTTTTTTTTTTTTTTTTTTTTTT PDIG        TELAPSE       38.66 TCPU      929.44
 CHARGE NORMALIZATION FACTOR   1.00000000
 TOTAL ATOMIC CHARGES:
   4.5112549   4.5110880   4.5112114   4.5114225   4.5112608   4.5113423
   0.8743793   0.8744164   0.8743517   0.8743629   0.8743744   0.8744224
   0.8743924   0.8743747   0.8743547   0.8744169   0.8743718   0.8743912
   5.9382492   6.1606809   6.1618451   6.1605466   6.1618053   5.9422515
   5.9379921   6.1604743   6.1619335   6.1604854   6.1618780   5.9425159
   5.9382386   6.1605116   6.1618920   6.1605502   6.1618404   5.9423079
   8.4770540   8.4773552   8.4773130   8.4772024   8.4773343   8.4775539
 TTTTTTTTTTTTTTTTTTTTTTTTTTTTTT MOQGAD      TELAPSE       38.71 TCPU      929.48
 TTTTTTTTTTTTTTTTTTTTTTTTTTTTTT SHELLXN     TELAPSE       44.56 TCPU     1116.04
 TTTTTTTTTTTTTTTTTTTTTTTTTTTTTT MONMO3      TELAPSE       44.70 TCPU     1120.38
 NUMERICALLY INTEGRATED DENSITY    197.9999511551
 TTTTTTTTTTTTTTTTTTTTTTTTTTTTTT NUMDFT      TELAPSE       45.19 TCPU     1136.09
 CYC   4 ETOT(AU) -1.289102274226E+03 DETOT -2.24E-03 tst  2.84E-05 PX  1.19E-02
 TTTTTTTTTTTTTTTTTTTTTTTTTTTTTT DIIS        TELAPSE       45.24 TCPU     1137.88
 DIIS TEST: 0.39140E-02 AT SCF   CYCLE   4 - DIIS ACTIVE - HISTORY:     4 CYCLES
 TTTTTTTTTTTTTTTTTTTTTTTTTTTTTT FDIK        TELAPSE       45.73 TCPU     1153.50
 INSULATING STATE
 TOP OF VALENCE BANDS -    BAND     99; K    1; EIG -2.4021900E-01 AU
 BOTTOM OF VIRTUAL BANDS - BAND    100; K   17; EIG -8.8780950E-02 AU
 INDIRECT ENERGY BAND GAP:   4.1208 eV
 BOTTOM OF VIRTUAL BANDS - BAND    100; K    1; EIG -7.1132872E-02 AU
 TTTTTTTTTTTTTTTTTTTTTTTTTTTTTT PDIG        TELAPSE       46.01 TCPU     1159.63
 CHARGE NORMALIZATION FACTOR   1.00000000
 TOTAL ATOMIC CHARGES:
   4.5130359   4.5128513   4.5129792   4.5125822   4.5124225   4.5124871
   0.8777911   0.8779709   0.8777555   0.8779289   0.8777532   0.8780064
   0.8777780   0.8779529   0.8777496   0.8779882   0.8777740   0.8779558
   5.9187657   6.1637700   6.1627068   6.1636620   6.1626062   5.9165968
   5.9188594   6.1637105   6.1626671   6.1637620   6.1625580   5.9164593
   5.9189955   6.1636545   6.1627010   6.1637385   6.1625919   5.9163915
   8.4873711   8.4875841   8.4875501   8.4873955   8.4875058   8.4876340
 TTTTTTTTTTTTTTTTTTTTTTTTTTTTTT MOQGAD      TELAPSE       46.06 TCPU     1159.68
 TTTTTTTTTTTTTTTTTTTTTTTTTTTTTT SHELLXN     TELAPSE       51.91 TCPU     1346.29
 TTTTTTTTTTTTTTTTTTTTTTTTTTTTTT MONMO3      TELAPSE       52.05 TCPU     1350.62
 NUMERICALLY INTEGRATED DENSITY    197.9999509939
 TTTTTTTTTTTTTTTTTTTTTTTTTTTTTT NUMDFT      TELAPSE       52.54 TCPU     1366.38
 CYC   5 ETOT(AU) -1.289103155861E+03 DETOT -8.82E-04 tst  5.90E-06 PX  7.05E-03
 TTTTTTTTTTTTTTTTTTTTTTTTTTTTTT DIIS        TELAPSE       52.61 TCPU     1368.51
 DIIS TEST: 0.10018E-03 AT SCF   CYCLE   5 - DIIS ACTIVE - HISTORY:     5 CYCLES
 TTTTTTTTTTTTTTTTTTTTTTTTTTTTTT FDIK        TELAPSE       53.10 TCPU     1384.14
 INSULATING STATE
 TOP OF VALENCE BANDS -    BAND     99; K    1; EIG -2.4000249E-01 AU
 BOTTOM OF VIRTUAL BANDS - BAND    100; K   17; EIG -8.8176146E-02 AU
 INDIRECT ENERGY BAND GAP:   4.1314 eV
 BOTTOM OF VIRTUAL BANDS - BAND    100; K    1; EIG -7.0522338E-02 AU
 TTTTTTTTTTTTTTTTTTTTTTTTTTTTTT PDIG        TELAPSE       53.39 TCPU     1390.28
 CHARGE NORMALIZATION FACTOR   1.00000000
 TOTAL ATOMIC CHARGES:
   4.5123559   4.5121797   4.5123046   4.5125385   4.5123783   4.5124516
   0.8788572   0.8788352   0.8788290   0.8787858   0.8788410   0.8788489
   0.8788703   0.8787925   0.8788307   0.8788382   0.8788583   0.8788040
   5.9155299   6.1615739   6.1634139   6.1614433   6.1633390   5.9211828
   5.9153223   6.1614159   6.1634744   6.1613747   6.1634533   5.9213474
   5.9155696   6.1614087   6.1634599   6.1613901   6.1634463   5.9211699
   8.4864449   8.4867241   8.4866945   8.4867318   8.4868412   8.4870483
 TTTTTTTTTTTTTTTTTTTTTTTTTTTTTT MOQGAD      TELAPSE       53.43 TCPU     1390.32
 TTTTTTTTTTTTTTTTTTTTTTTTTTTTTT SHELLXN     TELAPSE       59.28 TCPU     1576.85
 TTTTTTTTTTTTTTTTTTTTTTTTTTTTTT MONMO3      TELAPSE       59.42 TCPU     1581.18
 NUMERICALLY INTEGRATED DENSITY    197.9999509495
 TTTTTTTTTTTTTTTTTTTTTTTTTTTTTT NUMDFT      TELAPSE       59.91 TCPU     1596.99
 CYC   6 ETOT(AU) -1.289103160222E+03 DETOT -4.36E-06 tst  9.29E-07 PX  1.11E-03
 TTTTTTTTTTTTTTTTTTTTTTTTTTTTTT DIIS        TELAPSE       59.98 TCPU     1599.09
 DIIS TEST: 0.77648E-04 AT SCF   CYCLE   6 - DIIS ACTIVE - HISTORY:     6 CYCLES
 TTTTTTTTTTTTTTTTTTTTTTTTTTTTTT FDIK        TELAPSE       60.46 TCPU     1614.65
 INSULATING STATE
 TOP OF VALENCE BANDS -    BAND     99; K    1; EIG -2.3999695E-01 AU
 BOTTOM OF VIRTUAL BANDS - BAND    100; K   17; EIG -8.8214024E-02 AU
 INDIRECT ENERGY BAND GAP:   4.1302 eV
 BOTTOM OF VIRTUAL BANDS - BAND    100; K    1; EIG -7.0559431E-02 AU
 TTTTTTTTTTTTTTTTTTTTTTTTTTTTTT PDIG        TELAPSE       60.74 TCPU     1620.78
 CHARGE NORMALIZATION FACTOR   1.00000000
 TOTAL ATOMIC CHARGES:
   4.5127170   4.5125355   4.5126626   4.5124191   4.5122581   4.5123272
   0.8787687   0.8788992   0.8787371   0.8788529   0.8787420   0.8789235
   0.8787675   0.8788702   0.8787355   0.8789082   0.8787596   0.8788771
   5.9186482   6.1625205   6.1621805   6.1623985   6.1620978   5.9184994
   5.9186124   6.1624084   6.1621936   6.1624381   6.1621059   5.9184929
   5.9187996   6.1623732   6.1622079   6.1624341   6.1621194   5.9183742
   8.4865407   8.4867793   8.4867447   8.4866279   8.4867416   8.4869001
 TTTTTTTTTTTTTTTTTTTTTTTTTTTTTT MOQGAD      TELAPSE       60.78 TCPU     1620.82
 TTTTTTTTTTTTTTTTTTTTTTTTTTTTTT SHELLXN     TELAPSE       66.64 TCPU     1807.34
 TTTTTTTTTTTTTTTTTTTTTTTTTTTTTT MONMO3      TELAPSE       66.77 TCPU     1811.67
 NUMERICALLY INTEGRATED DENSITY    197.9999509468
 TTTTTTTTTTTTTTTTTTTTTTTTTTTTTT NUMDFT      TELAPSE       67.27 TCPU     1827.41
 CYC   7 ETOT(AU) -1.289103180387E+03 DETOT -2.02E-05 tst  5.04E-07 PX  8.00E-04
 TTTTTTTTTTTTTTTTTTTTTTTTTTTTTT DIIS        TELAPSE       67.35 TCPU     1829.87
 DIIS TEST: 0.28178E-05 AT SCF   CYCLE   7 - DIIS ACTIVE - HISTORY:     7 CYCLES
 TTTTTTTTTTTTTTTTTTTTTTTTTTTTTT FDIK        TELAPSE       67.83 TCPU     1845.43
 INSULATING STATE
 TOP OF VALENCE BANDS -    BAND     99; K    1; EIG -2.4000166E-01 AU
 BOTTOM OF VIRTUAL BANDS - BAND    100; K   17; EIG -8.8275210E-02 AU
 INDIRECT ENERGY BAND GAP:   4.1287 eV
 BOTTOM OF VIRTUAL BANDS - BAND    100; K    1; EIG -7.0618452E-02 AU
 TTTTTTTTTTTTTTTTTTTTTTTTTTTTTT PDIG        TELAPSE       68.11 TCPU     1851.57
 CHARGE NORMALIZATION FACTOR   1.00000000
 TOTAL ATOMIC CHARGES:
   4.5128248   4.5126424   4.5127696   4.5126033   4.5124428   4.5125104
   0.8787238   0.8788268   0.8786909   0.8787819   0.8786934   0.8788549
   0.8787204   0.8788000   0.8786876   0.8788390   0.8787137   0.8788058
   5.9181449   6.1623201   6.1623346   6.1622051   6.1622441   5.9188921
   5.9181348   6.1622271   6.1623287   6.1622477   6.1622493   5.9188606
   5.9183091   6.1621889   6.1623456   6.1622384   6.1622686   5.9187542
   8.4866003   8.4868375   8.4868043   8.4867179   8.4868293   8.4869853
 TTTTTTTTTTTTTTTTTTTTTTTTTTTTTT MOQGAD      TELAPSE       68.15 TCPU     1851.61
 TTTTTTTTTTTTTTTTTTTTTTTTTTTTTT SHELLXN     TELAPSE       74.01 TCPU     2038.21
 TTTTTTTTTTTTTTTTTTTTTTTTTTTTTT MONMO3      TELAPSE       74.14 TCPU     2042.54
 NUMERICALLY INTEGRATED DENSITY    197.9999509448
 TTTTTTTTTTTTTTTTTTTTTTTTTTTTTT NUMDFT      TELAPSE       74.64 TCPU     2058.30
 CYC   8 ETOT(AU) -1.289103180911E+03 DETOT -5.24E-07 tst  1.10E-08 PX  1.36E-04
 TTTTTTTTTTTTTTTTTTTTTTTTTTTTTT DIIS        TELAPSE       74.71 TCPU     2060.79
 DIIS TEST: 0.49686E-07 AT SCF   CYCLE   8 - DIIS ACTIVE - HISTORY:     8 CYCLES
 TTTTTTTTTTTTTTTTTTTTTTTTTTTTTT FDIK        TELAPSE       75.20 TCPU     2076.40
 INSULATING STATE
 TOP OF VALENCE BANDS -    BAND     99; K    1; EIG -2.4001399E-01 AU
 BOTTOM OF VIRTUAL BANDS - BAND    100; K   17; EIG -8.8264901E-02 AU
 INDIRECT ENERGY BAND GAP:   4.1293 eV
 BOTTOM OF VIRTUAL BANDS - BAND    100; K    1; EIG -7.0608151E-02 AU
 TTTTTTTTTTTTTTTTTTTTTTTTTTTTTT PDIG        TELAPSE       75.48 TCPU     2082.53
 CHARGE NORMALIZATION FACTOR   1.00000000
 TOTAL ATOMIC CHARGES:
   4.5128013   4.5126217   4.5127478   4.5125763   4.5124161   4.5124858
   0.8787038   0.8788139   0.8786728   0.8787670   0.8786790   0.8788362
   0.8787051   0.8787823   0.8786717   0.8788219   0.8786964   0.8787901
   5.9181244   6.1624181   6.1623830   6.1622947   6.1623014   5.9187799
   5.9180557   6.1622976   6.1624046   6.1623125   6.1623313   5.9188065
   5.9182534   6.1622682   6.1624129   6.1623126   6.1623406   5.9186771
   8.4865723   8.4868187   8.4867855   8.4866892   8.4868013   8.4869691
 TTTTTTTTTTTTTTTTTTTTTTTTTTTTTT MOQGAD      TELAPSE       75.52 TCPU     2082.58
 TTTTTTTTTTTTTTTTTTTTTTTTTTTTTT SHELLXN     TELAPSE       81.46 TCPU     2271.82
 +++ ENERGIES IN A.U. +++
 ::: EXT EL-POLE                                  -1.1234680132057E+03
 ::: EXT EL-SPHEROPOLE                             1.2985711282133E+01
 ::: BIELET ZONE E-E                               2.0377151975663E+03
 ::: TOTAL E-E                                     9.2723289564267E+02
 ::: TOTAL E-N + N-E                              -3.6863552118178E+03
 ::: TOTAL N-N                                     3.2379312511741E+02
 ::: KINETIC ENERGY                                1.2799425562453E+03
 ::: PSEUDO TOTAL   ENERGY                        -1.1553866348124E+03
 ::: VIRIAL COEFFICIENT                            1.0511454147104E+00
 TTTTTTTTTTTTTTTTTTTTTTTTTTTTTT MONMO3      TELAPSE       81.61 TCPU     2276.38
 NUMERICALLY INTEGRATED DENSITY    197.9999509446
 EXCHANGE ENERGY: -0.126027452561E+03  CORRELATION ENERGY: -0.768909362656E+01
 TTTTTTTTTTTTTTTTTTTTTTTTTTTTTT NUMDFT      TELAPSE       82.12 TCPU     2292.80
 CYC   9 ETOT(AU) -1.289103181000E+03 DETOT -8.93E-08 tst  3.16E-10 PX  1.36E-04

 == SCF ENDED - CONVERGENCE ON ENERGY      E(AU) -1.2891031810003E+03 CYCLES   9


 ENERGY EXPRESSION=HARTREE+FOCK EXCH*0.00000+(HSESOL     EXCH)*1.00000+PBESOL     CORR


 TOTAL ENERGY(DFT)(AU)(  9) -1.2891031810003E+03 DE-8.9E-08 tester 3.2E-10
 TTTTTTTTTTTTTTTTTTTTTTTTTTTTTT EDFT        TELAPSE       82.12 TCPU     2292.81
 
 INFORMATION **** DFTD3 ENERGY **** CALCULATE DFTD3 ENERGY

           DFT-D V3(BJ)
 DF                                         hsesol3c  
 parameters
 s6       :    1.0000
 s8       :    0.0000
 a1       :    0.5196
 a2       :    4.9385
 k1 k3    :   16.0000   -4.0000
 Cutoff   :   50.2022
 CN-Cutoff:   21.1671
 ABC-Cutoff:   21.1671
 
 Edisp /kcal,au:   -23.4545 -0.03737706

 E6    /kcal :   -24.9224
 E8    /kcal :     0.0000
 E6(ABC) "   :   1.467910
 
 INFORMATION **** DFTD3 ENERGY **** NORMAL TERMINATION OF DFTD3 MODULE

 GCP ENERGY CALCULATION
  level        hsesol3c            basis:hsesol3c
  Nbf            474
  Atoms           42

  Parameters: 
  sigma     1.0000
  eta       1.4281
  alpha     0.2936
  beta      1.9467

  dmp_scal      4.0000
  dmp_exp       6.0000
 cutoffs: 
   distance [bohr] 60.0
   noise    [a.u.] 2.2E-16
 SR-damping   T
 ** gCP correction **
  Egcp:        0.0829258846 / (a.u.) ||      52.0368 / (kcal/mol)
 INFORMATION **** GCP **** NORMAL TERMINATION OF GCP MODULE

 *******************************************************************************

 DFT-D3-GCP DISPERSION AND COUNTERPOISE CORRECTION

 D3 DISPERSION ENERGY (AU)      -3.7377055053652E-02
 GCP ENERGY (AU)                 8.2925884554229E-02
 TOTAL ENERGY + DISP + GCP (AU) -1.2890576321708E+03

 *******************************************************************************

 EIGENVECTORS IN FORTRAN UNIT 10
 TTTTTTTTTTTTTTTTTTTTTTTTTTTTTT END         TELAPSE       83.11 TCPU     2299.77
 EEEEEEEEEE TERMINATION  DATE 19 02 2026 TIME 19:18:57.5
