 Default number of threads is:           32

         
 *******************************************************************************
 *                                                                             *
 *                               CRYSTAL23                                     *
 *                      public : 1.0.1 - October 2022                          *
 *                       HTTP://WWW.CRYSTAL.UNITO.IT                           *
 *                                                                             *
 *                              MAIN AUTHORS                                   *
 *                                                                             *
 *  R. DOVESI(1,11), V.R. SAUNDERS(2), C. ROETTI(1,11), R. ORLANDO(1,11),      *
 *  C.M. ZICOVICH-WILSON(1,3), F. PASCALE(4), B. CIVALLERI(1,11),              *
 *  K. DOLL(5), N.M. HARRISON(6), I.J. BUSH(7), Ph. D'ARCO(8),                 *
 *  M. LLUNELL(9), M. CAUSA'(10), Y. NOEL(8), L. MASCHIO(1,11), A. ERBA(1,11)  *
 *  M. RE'RAT(14), S. CASASSA(1,11), B.G. SEARLE(2), J.K. DESMARAIS(1)         *
 *                                                                             *
 *        CONTRIBUTIONS TO THE CODE HAVE ALSO BEEN GIVEN BY                    *
 *                                                                             *
 *  M. FERRABONE(1,11), M. DE LA PIERRE(1,11), M. FERRERO(1,11),               *
 *  J. BAIMA(1,11), E. ALBANESE(1,11), M.F. PEINTINGER(12), R. BAST(13),       *
 *  B. KIRTMAN(15), V. LACIVITA(1,11), R. DEMICHELIS(1,16)                     *
 *  G. BRANDEBURG(17), S. SALUSTRO(1,11), G. SANSONE(1,11)                     *
 *  M.T. RUGGIERO(18), L.E. DAGA(1), L. DONA'(1), A. COSSARD(1)                *
 *                                                                             *
 * (1) THEORETICAL CHEMISTRY GROUP - UNIVERSITA' DI TORINO - TORINO (ITALY)    *
 * (2) SCIENTIFIC COMPUTING DEPARTMENT - STFC DARESBURY (UK)                   *
 * (3) UNIVERSIDAD AUTONOMA DEL ESTADO DE MORELOS - CUERNAVACA (MEXICO)        *
 * (4) UNIVERSITE' DE LORRAINE - NANCY (FRANCE)                                *
 * (5) UNIVERSITAET STUTTGART- STUTTGART (GERMANY)                             *
 * (6) IMPERIAL COLLEGE - LONDON (UK)                                          *
 * (7) SCIENTIFIC COMPUTING DEPARTMENT - STFC RAL (UK)                         *
 * (8) UPMC - SORBONNE UNIVERSITES - PARIS (FRANCE)                            *
 * (9) UNIVERSIDAD DE BARCELONA - BARCELONA (SPAIN)                            *
 *(10) UNIVERSITA' DI NAPOLI "FEDERICO II" - NAPOLI (ITALY)                    *
 *(11) NIS - NANOSTRUCTURED INTERFACES AND SURFACES - TORINO (ITALY)           *
 *(12) MPI FUER CHEMISCHE ENERGIEKONVERSION - MUELHEIM AN DER RUHR (GERMANY)   *
 *(13) UNIVERSITY OF TROMSO - TROMSO (NORWAY)                                  *
 *(14) UNIVERSITE' DE PAU ET DES PAYS DE L'ADOUR - PAU (FRANCE)                *
 *(15) UNIVERSITY OF CALIFORNIA SANTA BARBARA - SANTA BARBARA (USA)            *
 *(16) CURTIN UNIVERSITY - PERTH (AUSTRALIA)                                   *
 *(17) UNIVERSITY COLLEGE LONDON - LONDON (UK)                                 *
 *(18) UNIVERSITY OF VERMONT - BURLINGTON (USA)                                *
 *                                                                             *
 *******************************************************************************
 EEEEEEEEEE STARTING  DATE 19 02 2026 TIME 20:03:20.6
 cof-1_z34_L010_serr                                                             

 CRYSTAL CALCULATION
 (INPUT ACCORDING TO THE INTERNATIONAL TABLES FOR X-RAY CRYSTALLOGRAPHY)
 CRYSTAL FAMILY                       :  TRICLINIC   
 CRYSTAL CLASS  (GROTH - 1921)        :  TRICLINIC PEDIAL                     

 SPACE GROUP (NONCENTROSYMMETRIC)     :  P 1             

 LATTICE PARAMETERS  (ANGSTROMS AND DEGREES) - CONVENTIONAL CELL
        A           B           C        ALPHA        BETA       GAMMA
    15.02361    15.02392     6.80000    90.00032    89.99994   119.99596


 NUMBER OF IRREDUCIBLE ATOMS IN THE CONVENTIONAL CELL:   84

 INPUT COORDINATES

 ATOM AT. N.              COORDINATES
   1   5     6.136805400000E-01  2.273182200000E-01  2.507024600000E-01
   2   5     6.521038200000E-01  3.041725900000E-01  7.507024600000E-01
   3   5     7.727362000000E-01  3.863778800000E-01  2.507024700000E-01
   4   5     8.111594800000E-01  4.632322500000E-01  7.507024700000E-01
   5   5     6.136762700000E-01  3.863606700000E-01  2.492255300000E-01
   6   5     6.520995500000E-01  4.632150400000E-01  7.492255200000E-01
   7   5     2.272552500000E-01  6.136332200000E-01  2.507024600000E-01
   8   5     2.656785300000E-01  6.904875900000E-01  7.507024600000E-01
   9   5     3.863632200000E-01  6.136124500000E-01  2.507024600000E-01
  10   5     4.247865000000E-01  6.904668200000E-01  7.507024600000E-01
  11   5     3.863435000000E-01  7.727516500000E-01  2.492255300000E-01
  12   5     4.247667800000E-01  8.496060200000E-01  7.492255300000E-01
  13   1     9.030436200000E-01  3.089300500000E-01  2.476404700000E-01
  14   1     9.414669000000E-01  3.857844200000E-01  7.476404800000E-01
  15   1     9.663453000000E-02  6.910534400000E-01  2.471722500000E-01
  16   1     1.350578100000E-01  7.679078100000E-01  7.471722500000E-01
  17   1     9.029714200000E-01  5.940724300000E-01  2.471001800000E-01
  18   1     9.413947000000E-01  6.709268000000E-01  7.471001800000E-01
  19   1     9.673618000000E-02  4.056849400000E-01  2.471181600000E-01
  20   1     1.351594600000E-01  4.825393100000E-01  7.471181600000E-01
  21   1     6.910324000000E-01  9.700412000000E-02  2.523595500000E-01
  22   1     7.294556800000E-01  1.738584900000E-01  7.523595500000E-01
  23   1     3.089297200000E-01  9.034373100000E-01  2.528278100000E-01
  24   1     3.473530000000E-01  9.802916800000E-01  7.528278100000E-01
  25   1     4.058699900000E-01  9.704998000000E-02  2.528999100000E-01
  26   1     4.442932700000E-01  1.739043500000E-01  7.528999100000E-01
  27   1     5.943122100000E-01  9.033473200000E-01  2.528818200000E-01
  28   1     6.327354900000E-01  9.802016900000E-01  7.528818200000E-01
  29   1     6.910727400000E-01  5.940542100000E-01  2.476405000000E-01
  30   1     7.294960200000E-01  6.709085800000E-01  7.476405000000E-01
  31   1     3.089618300000E-01  4.056093300000E-01  2.471722200000E-01
  32   1     3.473851100000E-01  4.824637000000E-01  7.471722100000E-01
  33   1     4.058405700000E-01  3.088232500000E-01  2.471001300000E-01
  34   1     4.442638500000E-01  3.856776200000E-01  7.471001300000E-01
  35   1     5.942908800000E-01  6.909579300000E-01  2.471182100000E-01
  36   1     6.327141600000E-01  7.678123000000E-01  7.471182100000E-01
  37   6     8.918903100000E-01  4.459436900000E-01  2.491714900000E-01
  38   6     9.303135900000E-01  5.227980600000E-01  7.491714900000E-01
  39   6     9.464891100000E-01  3.927856300000E-01  2.477125300000E-01
  40   6     9.849123900000E-01  4.696400000000E-01  7.477125300000E-01
  41   6     5.338812000000E-02  6.071853000000E-01  2.475864900000E-01
  42   6     9.181140000000E-02  6.840396700000E-01  7.475864900000E-01
  43   6     9.464521100000E-01  5.536921900000E-01  2.479647300000E-01
  44   6     9.848753900000E-01  6.305465600000E-01  7.479647300000E-01
  45   6     5.342634000000E-02  4.462499700000E-01  2.469920800000E-01
  46   6     9.184962000000E-02  5.231043400000E-01  7.469920700000E-01
  47   6     1.080358900000E-01  5.540356300000E-01  2.479827300000E-01
  48   6     1.464591700000E-01  6.308900000000E-01  7.479827300000E-01
  49   6     5.540394200000E-01  1.081684600000E-01  2.508285600000E-01
  50   6     5.924627000000E-01  1.850228300000E-01  7.508285600000E-01
  51   6     6.071778500000E-01  5.355594000000E-02  2.522874800000E-01
  52   6     6.456011300000E-01  1.304103100000E-01  7.522874800000E-01
  53   6     3.927986700000E-01  9.466631600000E-01  2.524135600000E-01
  54   6     4.312219500000E-01  2.351753000000E-02  7.524135600000E-01
  55   6     4.462875800000E-01  5.360286000000E-02  2.520353400000E-01
  56   6     4.847108600000E-01  1.304572300000E-01  7.520353300000E-01
  57   6     5.537168500000E-01  9.466235600000E-01  2.530079300000E-01
  58   6     5.921401300000E-01  2.347793000000E-02  7.530079300000E-01
  59   6     4.459279100000E-01  8.919920600000E-01  2.520173100000E-01
  60   6     4.843511900000E-01  9.688464300000E-01  7.520173000000E-01
  61   6     5.540448700000E-01  4.458745500000E-01  2.491714900000E-01
  62   6     5.924681500000E-01  5.227289200000E-01  7.491714800000E-01
  63   6     6.072102200000E-01  5.536257800000E-01  2.477125600000E-01
  64   6     6.456335000000E-01  6.304801500000E-01  7.477125600000E-01
  65   6     3.928233700000E-01  4.461720300000E-01  2.475864700000E-01
  66   6     4.312466500000E-01  5.230264000000E-01  7.475864700000E-01
  67   6     4.462872600000E-01  3.926899900000E-01  2.479647000000E-01
  68   6     4.847105400000E-01  4.695443600000E-01  7.479647000000E-01
  69   6     5.537429600000E-01  6.070980000000E-01  2.469921100000E-01
  70   6     5.921662400000E-01  6.839523700000E-01  7.469921100000E-01
  71   6     4.459599800000E-01  5.539582300000E-01  2.479827300000E-01
  72   6     4.843832600000E-01  6.308126000000E-01  7.479827300000E-01
  73   8     5.607366800000E-01  2.803706300000E-01  2.496217700000E-01
  74   8     5.991599600000E-01  3.572250000000E-01  7.496217700000E-01
  75   8     7.196817000000E-01  2.803783300000E-01  2.527377600000E-01
  76   8     7.581049800000E-01  3.572327000000E-01  7.527377600000E-01
  77   8     7.196794200000E-01  4.393234600000E-01  2.480367700000E-01
  78   8     7.581027000000E-01  5.161778300000E-01  7.480367700000E-01
  79   8     2.803245100000E-01  7.196511100000E-01  2.496217900000E-01
  80   8     3.187477900000E-01  7.965054800000E-01  7.496217900000E-01
  81   8     2.803439700000E-01  5.606956100000E-01  2.527377600000E-01
  82   8     3.187672500000E-01  6.375499800000E-01  7.527377600000E-01
  83   8     4.392638400000E-01  7.196354200000E-01  2.480367600000E-01
  84   8     4.776871200000E-01  7.964897900000E-01  7.480367600000E-01

 *******************************************************************************

 << INFORMATION >>: FROM NOW ON, ALL COORDINATES REFER TO THE PRIMITIVE CELL

 *******************************************************************************

 LATTICE PARAMETERS  (ANGSTROMS AND DEGREES) - PRIMITIVE CELL
       A          B          C        ALPHA      BETA     GAMMA        VOLUME
   15.02361   15.02392    6.80000    90.00032  89.99994 119.99596   1329.274527

 COORDINATES OF THE EQUIVALENT ATOMS (FRACTIONAL UNITS)

 N. ATOM EQUIV AT. N.          X                  Y                  Z

   1   1   1    5 B    -3.86319460000E-01  2.27318220000E-01  2.50702460000E-01

   2   2   1    5 B    -3.47896180000E-01  3.04172590000E-01 -2.49297540000E-01

   3   3   1    5 B    -2.27263800000E-01  3.86377880000E-01  2.50702470000E-01

   4   4   1    5 B    -1.88840520000E-01  4.63232250000E-01 -2.49297530000E-01

   5   5   1    5 B    -3.86323730000E-01  3.86360670000E-01  2.49225530000E-01

   6   6   1    5 B    -3.47900450000E-01  4.63215040000E-01 -2.50774480000E-01

   7   7   1    5 B     2.27255250000E-01 -3.86366780000E-01  2.50702460000E-01

   8   8   1    5 B     2.65678530000E-01 -3.09512410000E-01 -2.49297540000E-01

   9   9   1    5 B     3.86363220000E-01 -3.86387550000E-01  2.50702460000E-01

  10  10   1    5 B     4.24786500000E-01 -3.09533180000E-01 -2.49297540000E-01

  11  11   1    5 B     3.86343500000E-01 -2.27248350000E-01  2.49225530000E-01

  12  12   1    5 B     4.24766780000E-01 -1.50393980000E-01 -2.50774470000E-01

  13  13   1    1 H    -9.69563800000E-02  3.08930050000E-01  2.47640470000E-01

  14  14   1    1 H    -5.85331000000E-02  3.85784420000E-01 -2.52359520000E-01

  15  15   1    1 H     9.66345300000E-02 -3.08946560000E-01  2.47172250000E-01

  16  16   1    1 H     1.35057810000E-01 -2.32092190000E-01 -2.52827750000E-01

  17  17   1    1 H    -9.70285800000E-02 -4.05927570000E-01  2.47100180000E-01

  18  18   1    1 H    -5.86053000000E-02 -3.29073200000E-01 -2.52899820000E-01

  19  19   1    1 H     9.67361800000E-02  4.05684940000E-01  2.47118160000E-01

  20  20   1    1 H     1.35159460000E-01  4.82539310000E-01 -2.52881840000E-01

  21  21   1    1 H    -3.08967600000E-01  9.70041200000E-02  2.52359550000E-01

  22  22   1    1 H    -2.70544320000E-01  1.73858490000E-01 -2.47640450000E-01

  23  23   1    1 H     3.08929720000E-01 -9.65626900000E-02  2.52827810000E-01

  24  24   1    1 H     3.47353000000E-01 -1.97083200000E-02 -2.47172190000E-01

  25  25   1    1 H     4.05869990000E-01  9.70499800000E-02  2.52899910000E-01

  26  26   1    1 H     4.44293270000E-01  1.73904350000E-01 -2.47100090000E-01

  27  27   1    1 H    -4.05687790000E-01 -9.66526800000E-02  2.52881820000E-01

  28  28   1    1 H    -3.67264510000E-01 -1.97983100000E-02 -2.47118180000E-01

  29  29   1    1 H    -3.08927260000E-01 -4.05945790000E-01  2.47640500000E-01

  30  30   1    1 H    -2.70503980000E-01 -3.29091420000E-01 -2.52359500000E-01

  31  31   1    1 H     3.08961830000E-01  4.05609330000E-01  2.47172220000E-01

  32  32   1    1 H     3.47385110000E-01  4.82463700000E-01 -2.52827790000E-01

  33  33   1    1 H     4.05840570000E-01  3.08823250000E-01  2.47100130000E-01

  34  34   1    1 H     4.44263850000E-01  3.85677620000E-01 -2.52899870000E-01

  35  35   1    1 H    -4.05709120000E-01 -3.09042070000E-01  2.47118210000E-01

  36  36   1    1 H    -3.67285840000E-01 -2.32187700000E-01 -2.52881790000E-01

  37  37   1    6 C    -1.08109690000E-01  4.45943690000E-01  2.49171490000E-01

  38  38   1    6 C    -6.96864100000E-02 -4.77201940000E-01 -2.50828510000E-01

  39  39   1    6 C    -5.35108900000E-02  3.92785630000E-01  2.47712530000E-01

  40  40   1    6 C    -1.50876100000E-02  4.69640000000E-01 -2.52287470000E-01

  41  41   1    6 C     5.33881200000E-02 -3.92814700000E-01  2.47586490000E-01

  42  42   1    6 C     9.18114000000E-02 -3.15960330000E-01 -2.52413510000E-01

  43  43   1    6 C    -5.35478900000E-02 -4.46307810000E-01  2.47964730000E-01

  44  44   1    6 C    -1.51246100000E-02 -3.69453440000E-01 -2.52035270000E-01

  45  45   1    6 C     5.34263400000E-02  4.46249970000E-01  2.46992080000E-01

  46  46   1    6 C     9.18496200000E-02 -4.76895660000E-01 -2.53007930000E-01

  47  47   1    6 C     1.08035890000E-01 -4.45964370000E-01  2.47982730000E-01

  48  48   1    6 C     1.46459170000E-01 -3.69110000000E-01 -2.52017270000E-01

  49  49   1    6 C    -4.45960580000E-01  1.08168460000E-01  2.50828560000E-01

  50  50   1    6 C    -4.07537300000E-01  1.85022830000E-01 -2.49171440000E-01

  51  51   1    6 C    -3.92822150000E-01  5.35559400000E-02  2.52287480000E-01

  52  52   1    6 C    -3.54398870000E-01  1.30410310000E-01 -2.47712520000E-01

  53  53   1    6 C     3.92798670000E-01 -5.33368400000E-02  2.52413560000E-01

  54  54   1    6 C     4.31221950000E-01  2.35175300000E-02 -2.47586440000E-01

  55  55   1    6 C     4.46287580000E-01  5.36028600000E-02  2.52035340000E-01

  56  56   1    6 C     4.84710860000E-01  1.30457230000E-01 -2.47964670000E-01

  57  57   1    6 C    -4.46283150000E-01 -5.33764400000E-02  2.53007930000E-01

  58  58   1    6 C    -4.07859870000E-01  2.34779300000E-02 -2.46992070000E-01

  59  59   1    6 C     4.45927910000E-01 -1.08007940000E-01  2.52017310000E-01

  60  60   1    6 C     4.84351190000E-01 -3.11535700000E-02 -2.47982700000E-01

  61  61   1    6 C    -4.45955130000E-01  4.45874550000E-01  2.49171490000E-01

  62  62   1    6 C    -4.07531850000E-01 -4.77271080000E-01 -2.50828520000E-01

  63  63   1    6 C    -3.92789780000E-01 -4.46374220000E-01  2.47712560000E-01

  64  64   1    6 C    -3.54366500000E-01 -3.69519850000E-01 -2.52287440000E-01

  65  65   1    6 C     3.92823370000E-01  4.46172030000E-01  2.47586470000E-01

  66  66   1    6 C     4.31246650000E-01 -4.76973600000E-01 -2.52413530000E-01

  67  67   1    6 C     4.46287260000E-01  3.92689990000E-01  2.47964700000E-01

  68  68   1    6 C     4.84710540000E-01  4.69544360000E-01 -2.52035300000E-01

  69  69   1    6 C    -4.46257040000E-01 -3.92902000000E-01  2.46992110000E-01

  70  70   1    6 C    -4.07833760000E-01 -3.16047630000E-01 -2.53007890000E-01

  71  71   1    6 C     4.45959980000E-01 -4.46041770000E-01  2.47982730000E-01

  72  72   1    6 C     4.84383260000E-01 -3.69187400000E-01 -2.52017270000E-01

  73  73   1    8 O    -4.39263320000E-01  2.80370630000E-01  2.49621770000E-01

  74  74   1    8 O    -4.00840040000E-01  3.57225000000E-01 -2.50378230000E-01

  75  75   1    8 O    -2.80318300000E-01  2.80378330000E-01  2.52737760000E-01

  76  76   1    8 O    -2.41895020000E-01  3.57232700000E-01 -2.47262240000E-01

  77  77   1    8 O    -2.80320580000E-01  4.39323460000E-01  2.48036770000E-01

  78  78   1    8 O    -2.41897300000E-01 -4.83822170000E-01 -2.51963230000E-01

  79  79   1    8 O     2.80324510000E-01 -2.80348890000E-01  2.49621790000E-01

  80  80   1    8 O     3.18747790000E-01 -2.03494520000E-01 -2.50378210000E-01

  81  81   1    8 O     2.80343970000E-01 -4.39304390000E-01  2.52737760000E-01

  82  82   1    8 O     3.18767250000E-01 -3.62450020000E-01 -2.47262240000E-01

  83  83   1    8 O     4.39263840000E-01 -2.80364580000E-01  2.48036760000E-01

  84  84   1    8 O     4.77687120000E-01 -2.03510210000E-01 -2.51963240000E-01

 NUMBER OF SYMMETRY OPERATORS         :    1
 *******************************************************************************
 * GEOMETRY EDITING - INPUT COORDINATES ARE GIVEN IN ANGSTROM         
 *******************************************************************************

 GCALCO - MAX INDICES DIRECT LATTICE VECTOR    11    11    22
 NO.OF VECTORS CREATED 6999 STARS 3500 RMAX   247.51041 BOHR

 GEOMETRY FOR WAVE FUNCTION - DIMENSIONALITY OF THE SYSTEM    3
 (NON PERIODIC DIRECTION: LATTICE PARAMETER FORMALLY SET TO 500)
 *******************************************************************************
 LATTICE PARAMETERS (ANGSTROMS AND DEGREES) - BOHR = 0.5291772083 ANGSTROM
 PRIMITIVE CELL - CENTRING CODE 1/0 VOLUME=  1329.274527 - DENSITY  0.975 g/cm^3
         A              B              C           ALPHA      BETA       GAMMA 
    15.02361100    15.02391600     6.80000000    90.000323  89.999944 119.995964
 *******************************************************************************
 ATOMS IN THE ASYMMETRIC UNIT   84 - ATOMS IN THE UNIT CELL:   84
     ATOM                 X/A                 Y/B                 Z/C    
 *******************************************************************************
      1 T   5 B    -3.863194600000E-01  2.273182200000E-01  2.507024600000E-01
      2 T   5 B    -3.478961800000E-01  3.041725900000E-01 -2.492975400000E-01
      3 T   5 B    -2.272638000000E-01  3.863778800000E-01  2.507024700000E-01
      4 T   5 B    -1.888405200000E-01  4.632322500000E-01 -2.492975300000E-01
      5 T   5 B    -3.863237300000E-01  3.863606700000E-01  2.492255300000E-01
      6 T   5 B    -3.479004500000E-01  4.632150400000E-01 -2.507744800000E-01
      7 T   5 B     2.272552500000E-01 -3.863667800000E-01  2.507024600000E-01
      8 T   5 B     2.656785300000E-01 -3.095124100000E-01 -2.492975400000E-01
      9 T   5 B     3.863632200000E-01 -3.863875500000E-01  2.507024600000E-01
     10 T   5 B     4.247865000000E-01 -3.095331800000E-01 -2.492975400000E-01
     11 T   5 B     3.863435000000E-01 -2.272483500000E-01  2.492255300000E-01
     12 T   5 B     4.247667800000E-01 -1.503939800000E-01 -2.507744700000E-01
     13 T   1 H    -9.695638000000E-02  3.089300500000E-01  2.476404700000E-01
     14 T   1 H    -5.853310000000E-02  3.857844200000E-01 -2.523595200000E-01
     15 T   1 H     9.663453000000E-02 -3.089465600000E-01  2.471722500000E-01
     16 T   1 H     1.350578100000E-01 -2.320921900000E-01 -2.528277500000E-01
     17 T   1 H    -9.702858000000E-02 -4.059275700000E-01  2.471001800000E-01
     18 T   1 H    -5.860530000000E-02 -3.290732000000E-01 -2.528998200000E-01
     19 T   1 H     9.673618000000E-02  4.056849400000E-01  2.471181600000E-01
     20 T   1 H     1.351594600000E-01  4.825393100000E-01 -2.528818400000E-01
     21 T   1 H    -3.089676000000E-01  9.700412000000E-02  2.523595500000E-01
     22 T   1 H    -2.705443200000E-01  1.738584900000E-01 -2.476404500000E-01
     23 T   1 H     3.089297200000E-01 -9.656269000000E-02  2.528278100000E-01
     24 T   1 H     3.473530000000E-01 -1.970832000000E-02 -2.471721900000E-01
     25 T   1 H     4.058699900000E-01  9.704998000000E-02  2.528999100000E-01
     26 T   1 H     4.442932700000E-01  1.739043500000E-01 -2.471000900000E-01
     27 T   1 H    -4.056877900000E-01 -9.665268000000E-02  2.528818200000E-01
     28 T   1 H    -3.672645100000E-01 -1.979831000000E-02 -2.471181800000E-01
     29 T   1 H    -3.089272600000E-01 -4.059457900000E-01  2.476405000000E-01
     30 T   1 H    -2.705039800000E-01 -3.290914200000E-01 -2.523595000000E-01
     31 T   1 H     3.089618300000E-01  4.056093300000E-01  2.471722200000E-01
     32 T   1 H     3.473851100000E-01  4.824637000000E-01 -2.528277900000E-01
     33 T   1 H     4.058405700000E-01  3.088232500000E-01  2.471001300000E-01
     34 T   1 H     4.442638500000E-01  3.856776200000E-01 -2.528998700000E-01
     35 T   1 H    -4.057091200000E-01 -3.090420700000E-01  2.471182100000E-01
     36 T   1 H    -3.672858400000E-01 -2.321877000000E-01 -2.528817900000E-01
     37 T   6 C    -1.081096900000E-01  4.459436900000E-01  2.491714900000E-01
     38 T   6 C    -6.968641000000E-02 -4.772019400000E-01 -2.508285100000E-01
     39 T   6 C    -5.351089000000E-02  3.927856300000E-01  2.477125300000E-01
     40 T   6 C    -1.508761000000E-02  4.696400000000E-01 -2.522874700000E-01
     41 T   6 C     5.338812000000E-02 -3.928147000000E-01  2.475864900000E-01
     42 T   6 C     9.181140000000E-02 -3.159603300000E-01 -2.524135100000E-01
     43 T   6 C    -5.354789000000E-02 -4.463078100000E-01  2.479647300000E-01
     44 T   6 C    -1.512461000000E-02 -3.694534400000E-01 -2.520352700000E-01
     45 T   6 C     5.342634000000E-02  4.462499700000E-01  2.469920800000E-01
     46 T   6 C     9.184962000000E-02 -4.768956600000E-01 -2.530079300000E-01
     47 T   6 C     1.080358900000E-01 -4.459643700000E-01  2.479827300000E-01
     48 T   6 C     1.464591700000E-01 -3.691100000000E-01 -2.520172700000E-01
     49 T   6 C    -4.459605800000E-01  1.081684600000E-01  2.508285600000E-01
     50 T   6 C    -4.075373000000E-01  1.850228300000E-01 -2.491714400000E-01
     51 T   6 C    -3.928221500000E-01  5.355594000000E-02  2.522874800000E-01
     52 T   6 C    -3.543988700000E-01  1.304103100000E-01 -2.477125200000E-01
     53 T   6 C     3.927986700000E-01 -5.333684000000E-02  2.524135600000E-01
     54 T   6 C     4.312219500000E-01  2.351753000000E-02 -2.475864400000E-01
     55 T   6 C     4.462875800000E-01  5.360286000000E-02  2.520353400000E-01
     56 T   6 C     4.847108600000E-01  1.304572300000E-01 -2.479646700000E-01
     57 T   6 C    -4.462831500000E-01 -5.337644000000E-02  2.530079300000E-01
     58 T   6 C    -4.078598700000E-01  2.347793000000E-02 -2.469920700000E-01
     59 T   6 C     4.459279100000E-01 -1.080079400000E-01  2.520173100000E-01
     60 T   6 C     4.843511900000E-01 -3.115357000000E-02 -2.479827000000E-01
     61 T   6 C    -4.459551300000E-01  4.458745500000E-01  2.491714900000E-01
     62 T   6 C    -4.075318500000E-01 -4.772710800000E-01 -2.508285200000E-01
     63 T   6 C    -3.927897800000E-01 -4.463742200000E-01  2.477125600000E-01
     64 T   6 C    -3.543665000000E-01 -3.695198500000E-01 -2.522874400000E-01
     65 T   6 C     3.928233700000E-01  4.461720300000E-01  2.475864700000E-01
     66 T   6 C     4.312466500000E-01 -4.769736000000E-01 -2.524135300000E-01
     67 T   6 C     4.462872600000E-01  3.926899900000E-01  2.479647000000E-01
     68 T   6 C     4.847105400000E-01  4.695443600000E-01 -2.520353000000E-01
     69 T   6 C    -4.462570400000E-01 -3.929020000000E-01  2.469921100000E-01
     70 T   6 C    -4.078337600000E-01 -3.160476300000E-01 -2.530078900000E-01
     71 T   6 C     4.459599800000E-01 -4.460417700000E-01  2.479827300000E-01
     72 T   6 C     4.843832600000E-01 -3.691874000000E-01 -2.520172700000E-01
     73 T   8 O    -4.392633200000E-01  2.803706300000E-01  2.496217700000E-01
     74 T   8 O    -4.008400400000E-01  3.572250000000E-01 -2.503782300000E-01
     75 T   8 O    -2.803183000000E-01  2.803783300000E-01  2.527377600000E-01
     76 T   8 O    -2.418950200000E-01  3.572327000000E-01 -2.472622400000E-01
     77 T   8 O    -2.803205800000E-01  4.393234600000E-01  2.480367700000E-01
     78 T   8 O    -2.418973000000E-01 -4.838221700000E-01 -2.519632300000E-01
     79 T   8 O     2.803245100000E-01 -2.803488900000E-01  2.496217900000E-01
     80 T   8 O     3.187477900000E-01 -2.034945200000E-01 -2.503782100000E-01
     81 T   8 O     2.803439700000E-01 -4.393043900000E-01  2.527377600000E-01
     82 T   8 O     3.187672500000E-01 -3.624500200000E-01 -2.472622400000E-01
     83 T   8 O     4.392638400000E-01 -2.803645800000E-01  2.480367600000E-01
     84 T   8 O     4.776871200000E-01 -2.035102100000E-01 -2.519632400000E-01

 T = ATOM BELONGING TO THE ASYMMETRIC UNIT

 ****    1 SYMMOPS - TRANSLATORS IN FRACTIONAL UNITS
 **** MATRICES AND TRANSLATORS IN THE CRYSTALLOGRAPHIC REFERENCE FRAME
   V INV                    ROTATION MATRICES                   TRANSLATORS
   1   1  1.00  0.00  0.00  0.00  1.00  0.00  0.00 -0.00  1.00  0.00  0.00  0.00

 DIRECT LATTICE VECTORS CARTESIAN COMPONENTS (ANGSTROM)
          X                    Y                    Z
   0.130113578931E+02  -0.751088897922E+01   0.000000000000E+00
   0.000000000000E+00   0.150239160000E+02   0.000000000000E+00
  -0.144547080487E-04  -0.383344116893E-04   0.679999999988E+01


 CARTESIAN COORDINATES - PRIMITIVE CELL
 *******************************************************************************
 *      ATOM          X(ANGSTROM)         Y(ANGSTROM)         Z(ANGSTROM)
 *******************************************************************************
    1     5 B    -5.026544378943E+00  6.316802806589E+00  1.704776727969E+00
    2     5 B    -4.526598104084E+00  7.182882582610E+00 -1.695223271969E+00
    3     5 B    -2.957014261767E+00  7.511852373641E+00  1.704776795969E+00
    4     5 B    -2.457067986908E+00 -6.645983850337E+00 -1.695223203969E+00
    5     5 B    -5.026599916093E+00 -6.317640656064E+00  1.694733603969E+00
    6     5 B    -4.526653641234E+00 -5.451560880042E+00 -1.705266463969E+00
    7     5 B     2.956895766995E+00 -7.511640611136E+00  1.704776727969E+00
    8     5 B     3.456842041854E+00 -6.645560835114E+00 -1.695223271969E+00
    9     5 B     5.027106508303E+00  6.316921043750E+00  1.704776727969E+00
   10     5 B    -7.484305109895E+00 -3.300262010118E-01 -1.695223271969E+00
   11     5 B     5.026849945674E+00 -6.315952811795E+00  1.694733603969E+00
   12     5 B     5.526796220533E+00 -5.449873035773E+00 -1.705266395969E+00
   13     1 H    -1.261537739766E+00  5.369558233931E+00  1.683955195969E+00
   14     1 H    -7.615914649069E-01  6.235638009952E+00 -1.716044735969E+00
   15     1 H     1.257342881855E+00 -5.367407867521E+00  1.680771299969E+00
   16     1 H     1.757289156714E+00 -4.501328091499E+00 -1.719228699969E+00
   17     1 H    -1.262477151996E+00 -5.369860294013E+00  1.680281223970E+00
   18     1 H    -7.625308771369E-01 -4.503780517992E+00 -1.719718775969E+00
   19     1 H     1.258665487166E+00  5.368392279642E+00  1.680403487970E+00
   20     1 H     1.758611762025E+00  6.234472055664E+00 -1.719596511969E+00
   21     1 H    -4.020091668742E+00  3.777993418254E+00  1.716044939969E+00
   22     1 H    -3.520145393883E+00  4.644073194275E+00 -1.683955059969E+00
   23     1 H     4.019591496170E+00 -3.771096264600E+00  1.719229107969E+00
   24     1 H     4.519537771029E+00 -2.905016488578E+00 -1.680770891969E+00
   25     1 H     5.280916042347E+00 -1.590383382333E+00  1.719719387969E+00
   26     1 H     5.780862317206E+00 -7.243036063119E-01 -1.680280611970E+00
   27     1 H    -5.278552683866E+00  1.594964511343E+00  1.719596375969E+00
   28     1 H    -4.778606409007E+00  2.461044287364E+00 -1.680403623970E+00
   29     1 H    -4.019566722352E+00 -3.778586590153E+00  1.683955399969E+00
   30     1 H    -3.519620447493E+00 -2.912506814132E+00 -1.716044599969E+00
   31     1 H     4.020009372621E+00  3.773253023589E+00  1.680771095969E+00
   32     1 H     4.519955647481E+00  4.639332799611E+00 -1.719228971969E+00
   33     1 H     5.280533332032E+00  1.591501629877E+00  1.680280883970E+00
   34     1 H     5.780479606891E+00  2.457581405898E+00 -1.719719115969E+00
   35     1 H    -5.278830132819E+00 -1.595795415102E+00  1.680403827970E+00
   36     1 H    -4.778883857959E+00 -7.297156390803E-01 -1.719596171969E+00
   37     6 C    -1.406657469999E+00  7.511810866615E+00  1.694366131969E+00
   38     6 C    -9.067111951394E-01 -6.646025357364E+00 -1.705633867969E+00
   39     6 C    -6.962529215783E-01  6.303083169182E+00  1.684445203969E+00
   40     6 C    -1.963066467191E-01  7.169162945203E+00 -1.715554795969E+00
   41     6 C     6.946483577670E-01 -6.302616789577E+00  1.683588131969E+00
   42     6 C     1.194594632626E+00 -5.436537013555E+00 -1.716411867969E+00
   43     6 C    -6.967343454658E-01 -6.303108296305E+00  1.686160163969E+00
   44     6 C    -1.967880706067E-01 -5.437028520283E+00 -1.713839835969E+00
   45     6 C     6.951456604577E-01  6.303133287681E+00  1.679546143970E+00
   46     6 C     1.195091935317E+00  7.169213063702E+00 -1.720453923969E+00
   47     6 C     1.405690045567E+00 -7.511586315706E+00  1.686282563969E+00
   48     6 C     1.905636320426E+00 -6.645506539684E+00 -1.713717435969E+00
   49     6 C     7.208801554828E+00 -2.536224332205E+00  1.705634207969E+00
   50     6 C     7.708747829687E+00 -1.670144556184E+00 -1.694365791969E+00
   51     6 C    -5.111153228712E+00  3.755053829796E+00  1.715554863969E+00
   52     6 C    -4.611206953853E+00  4.621133605817E+00 -1.684445135969E+00
   53     6 C     5.110840426722E+00 -3.751605081545E+00  1.716412207969E+00
   54     6 C     5.610786701581E+00 -2.885525305523E+00 -1.683587791969E+00
   55     6 C     5.806803783509E+00 -2.546701261810E+00  1.713840311969E+00
   56     6 C     6.306750058368E+00 -1.680621485788E+00 -1.686159755969E+00
   57     6 C    -5.806753443446E+00  2.550050343096E+00  1.720453923969E+00
   58     6 C    -5.306807168587E+00  3.416130119117E+00 -1.679546075970E+00
   59     6 C     5.802123988676E+00 -4.972026903572E+00  1.713717707969E+00
   60     6 C     6.302070263535E+00 -4.105947127551E+00 -1.686282359969E+00
   61     6 C     7.208872490681E+00  2.537402725821E+00  1.694366131969E+00
   62     6 C    -5.302539127516E+00 -4.109544518941E+00 -1.705633935969E+00
   63     6 C    -5.110731984928E+00 -3.756097852010E+00  1.684445407969E+00
   64     6 C    -4.610785710069E+00 -2.890018075989E+00 -1.715554591969E+00
   65     6 C     5.111161877036E+00  3.752788888676E+00  1.683587995969E+00
   66     6 C     5.611108151896E+00  4.618868664698E+00 -1.716412003969E+00
   67     6 C     5.806799678714E+00  2.547717855521E+00  1.686159959969E+00
   68     6 C     6.306745953573E+00  3.413797631543E+00 -1.713840039969E+00
   69     6 C    -5.806413629935E+00 -2.551149028895E+00  1.679546347970E+00
   70     6 C    -5.306467355076E+00 -1.685069252874E+00 -1.720453651969E+00
   71     6 C     5.802541321242E+00  4.973056509803E+00  1.686282563969E+00
   72     6 C    -6.708870296955E+00 -1.673890734959E+00 -1.713717435969E+00
   73     8 O     7.295942019035E+00  6.242748289573E-04  1.697428035969E+00
   74     8 O     7.795888293894E+00  8.667040508504E-01 -1.702571963969E+00
   75     8 O    -3.647325378524E+00  6.317810419730E+00  1.718616767969E+00
   76     8 O    -3.147379103665E+00  7.183890195751E+00 -1.681383231969E+00
   77     8 O    -3.647354976468E+00 -6.318109993505E+00  1.686650035969E+00
   78     8 O    -3.147408701609E+00 -5.452030217483E+00 -1.713349963969E+00
   79     8 O     3.647398917596E+00 -6.317434015921E+00  1.697428171969E+00
   80     8 O     4.147345192455E+00 -5.451354239900E+00 -1.702571827969E+00
   81     8 O     3.647652073580E+00  6.318201622993E+00  1.718616767969E+00
   82     8 O     4.147598348439E+00  7.184281399014E+00 -1.681383231969E+00
   83     8 O    -7.295942446637E+00 -5.563632463949E-04  1.686649967969E+00
   84     8 O    -6.795996171778E+00  8.655234127750E-01 -1.713350031969E+00

 *******************************************************************************
 STARTING BASIS SET HANDLING 
 *******************************************************************************

 Loading internal basis set: SOLDEF2MSVP         

 Please cite in your publication:
 L. Dona', J. G. Brandenburg and B. Civalleri, J. Chem. Phys., 151, 121101 (2019
 )                                                                              
                                                                                
                    

 *******************************************************************************
 LOCAL ATOMIC FUNCTIONS BASIS SET
 *******************************************************************************
   ATOM   X(AU)   Y(AU)   Z(AU)  N. TYPE  EXPONENT  S COEF   P COEF   D/F/G COEF
 *******************************************************************************
   1 B   -9.499  11.937   3.222
                                  1 S  
                                         2.410E+03 1.755E-03 0.000E+00 0.000E+00
                                         3.619E+02 1.344E-02 0.000E+00 0.000E+00
                                         8.231E+01 6.637E-02 0.000E+00 0.000E+00
                                         2.311E+01 2.303E-01 0.000E+00 0.000E+00
                                         7.252E+00 5.150E-01 0.000E+00 0.000E+00
                                  2 S  
                                         2.367E+00 1.000E+00 0.000E+00 0.000E+00
                                  3 S  
                                         5.533E-01 1.000E+00 0.000E+00 0.000E+00
                                  4 S  
                                         1.716E-01 1.000E+00 0.000E+00 0.000E+00
                           5-     7 P  
                                         6.002E+00 0.000E+00-3.555E-02 0.000E+00
                                         1.240E+00 0.000E+00-1.983E-01 0.000E+00
                                         3.367E-01 0.000E+00-5.048E-01 0.000E+00
                           8-    10 P  
                                         1.256E-01 0.000E+00 1.000E+00 0.000E+00
                          11-    15 D  
                                         8.880E-01 0.000E+00 0.000E+00 1.000E+00
   2 B   -8.554  13.574  -3.204
   3 B   -5.588  14.195   3.222
   4 B   -4.643 -12.559  -3.204
   5 B   -9.499 -11.939   3.203
   6 B   -8.554 -10.302  -3.222
   7 B    5.588 -14.195   3.222
   8 B    6.532 -12.558  -3.204
   9 B    9.500  11.937   3.222
  10 B  -14.143  -0.624  -3.204
  11 B    9.499 -11.935   3.203
  12 B   10.444 -10.299  -3.222
  13 H   -2.384  10.147   3.182
                                181 S  
                                         1.874E+01 1.968E-02 0.000E+00 0.000E+00
                                         2.826E+00 1.380E-01 0.000E+00 0.000E+00
                                         6.401E-01 4.783E-01 0.000E+00 0.000E+00
                                182 S  
                                         1.756E-01 1.000E+00 0.000E+00 0.000E+00
  14 H   -1.439  11.784  -3.243
  15 H    2.376 -10.143   3.176
  16 H    3.321  -8.506  -3.249
  17 H   -2.386 -10.148   3.175
  18 H   -1.441  -8.511  -3.250
  19 H    2.379  10.145   3.176
  20 H    3.323  11.781  -3.250
  21 H   -7.597   7.139   3.243
  22 H   -6.652   8.776  -3.182
  23 H    7.596  -7.126   3.249
  24 H    8.541  -5.490  -3.176
  25 H    9.979  -3.005   3.250
  26 H   10.924  -1.369  -3.175
  27 H   -9.975   3.014   3.250
  28 H   -9.030   4.651  -3.176
  29 H   -7.596  -7.140   3.182
  30 H   -6.651  -5.504  -3.243
  31 H    7.597   7.130   3.176
  32 H    8.541   8.767  -3.249
  33 H    9.979   3.008   3.175
  34 H   10.924   4.644  -3.250
  35 H   -9.976  -3.016   3.176
  36 H   -9.031  -1.379  -3.250
  37 C   -2.658  14.195   3.202
                                229 S  
                                         3.624E+03 1.634E-03 0.000E+00 0.000E+00
                                         5.440E+02 1.252E-02 0.000E+00 0.000E+00
                                         1.237E+02 6.211E-02 0.000E+00 0.000E+00
                                         3.476E+01 2.182E-01 0.000E+00 0.000E+00
                                         1.093E+01 4.980E-01 0.000E+00 0.000E+00
                                230 S  
                                         3.574E+00 1.000E+00 0.000E+00 0.000E+00
                                231 S  
                                         7.742E-01 1.000E+00 0.000E+00 0.000E+00
                                232 S  
                                         2.330E-01 1.000E+00 0.000E+00 0.000E+00
                         233-   235 P  
                                         9.443E+00 0.000E+00 3.790E-02 0.000E+00
                                         2.002E+00 0.000E+00 2.082E-01 0.000E+00
                                         5.463E-01 0.000E+00 5.047E-01 0.000E+00
                         236-   238 P  
                                         1.820E-01 0.000E+00 1.000E+00 0.000E+00
                         239-   243 D  
                                         8.880E-01 0.000E+00 0.000E+00 1.000E+00
  38 C   -1.713 -12.559  -3.223
  39 C   -1.316  11.911   3.183
  40 C   -0.371  13.548  -3.242
  41 C    1.313 -11.910   3.182
  42 C    2.257 -10.274  -3.244
  43 C   -1.317 -11.911   3.186
  44 C   -0.372 -10.274  -3.239
  45 C    1.314  11.911   3.174
  46 C    2.258  13.548  -3.251
  47 C    2.656 -14.195   3.187
  48 C    3.601 -12.558  -3.238
  49 C   13.623  -4.793   3.223
  50 C   14.567  -3.156  -3.202
  51 C   -9.659   7.096   3.242
  52 C   -8.714   8.733  -3.183
  53 C    9.658  -7.090   3.244
  54 C   10.603  -5.453  -3.182
  55 C   10.973  -4.813   3.239
  56 C   11.918  -3.176  -3.186
  57 C  -10.973   4.819   3.251
  58 C  -10.028   6.456  -3.174
  59 C   10.964  -9.396   3.238
  60 C   11.909  -7.759  -3.187
  61 C   13.623   4.795   3.202
  62 C  -10.020  -7.766  -3.223
  63 C   -9.658  -7.098   3.183
  64 C   -8.713  -5.461  -3.242
  65 C    9.659   7.092   3.182
  66 C   10.603   8.728  -3.244
  67 C   10.973   4.814   3.186
  68 C   11.918   6.451  -3.239
  69 C  -10.973  -4.821   3.174
  70 C  -10.028  -3.184  -3.251
  71 C   10.965   9.398   3.187
  72 C  -12.678  -3.163  -3.238
  73 O   13.787   0.001   3.208
                                769 S  
                                         6.773E+03 1.727E-03 0.000E+00 0.000E+00
                                         1.017E+03 1.325E-02 0.000E+00 0.000E+00
                                         2.313E+02 6.603E-02 0.000E+00 0.000E+00
                                         6.501E+01 2.353E-01 0.000E+00 0.000E+00
                                         2.050E+01 5.498E-01 0.000E+00 0.000E+00
                                770 S  
                                         6.716E+00 1.000E+00 0.000E+00 0.000E+00
                                771 S  
                                         1.147E+00 1.000E+00 0.000E+00 0.000E+00
                                772 S  
                                         3.342E-01 1.000E+00 0.000E+00 0.000E+00
                         773-   775 P  
                                         1.769E+01 0.000E+00 4.359E-02 0.000E+00
                                         3.854E+00 0.000E+00 2.318E-01 0.000E+00
                                         1.047E+00 0.000E+00 5.146E-01 0.000E+00
                         776-   778 P  
                                         2.759E-01 0.000E+00 1.000E+00 0.000E+00
                         779-   783 D  
                                         8.000E-01 0.000E+00 0.000E+00 1.000E+00
  74 O   14.732   1.638  -3.217
  75 O   -6.892  11.939   3.248
  76 O   -5.948  13.576  -3.177
  77 O   -6.893 -11.939   3.187
  78 O   -5.948 -10.303  -3.238
  79 O    6.893 -11.938   3.208
  80 O    7.837 -10.302  -3.217
  81 O    6.893  11.940   3.248
  82 O    7.838  13.576  -3.177
  83 O  -13.787  -0.001   3.187
  84 O  -12.843   1.636  -3.238

 *******************************************************************************
 FINISHED BASIS SET HANDLING 
 *******************************************************************************

 INFORMATION **** SET_MPP **** PCRYSTAL CALCULATION
 INFORMATION **** READM2 **** NEW DEFAULT: FOCK/KS MATRIX MIXING SET TO 30 %
 INFORMATION **** READM2 **** NEW DEFAULT: FULL DIRECT SCF MODE
 INFORMATION **** READM2 **** NEW DEFAULT: COULOMB BIPOLAR BUFFER SET TO 32 Mb
 INFORMATION **** READM2 **** NEW DEFAULT: EXCHANGE BIPOLAR BUFFER SET TO 32 Mb

 *******************************************************************************
 NEW DEFAULT: DFT INTEGRATION GRID INCREASED TO XLGRID
 NEW DEFAULT: DIIS ACCELERATOR ACTIVE
 USE KEYWORD NODIIS TO TURN IT OFF
 *******************************************************************************

 WARNING **** RDDFTP **** HSEsol-HJS ACTIVE
 RANGE SEPARATION - OMEGA:   0.110000000000000     
 WARNING **** RDDFTP **** HSEsol-3c has to be combined with sol-def2-mSVP basis set
 *******************************************************************************
 N. OF ATOMS PER CELL        84  COULOMB OVERLAP TOL         (T1) 10**   -6
 NUMBER OF SHELLS           468  COULOMB PENETRATION TOL     (T2) 10**   -6
 NUMBER OF AO               948  EXCHANGE OVERLAP TOL        (T3) 10**   -6
 N. OF ELECTRONS PER CELL   396  EXCHANGE PSEUDO OVP (F(G))  (T4) 10**   -6
 CORE ELECTRONS PER CELL    120  EXCHANGE PSEUDO OVP (P(G))  (T5) 10**  -12
 N. OF SYMMETRY OPERATORS     1  POLE ORDER IN MONO ZONE                  4
 *******************************************************************************
 TYPE OF CALCULATION :  RESTRICTED CLOSED SHELL
 KOHN-SHAM HAMILTONIAN

 (EXCHANGE)[CORRELATION] FUNCTIONAL:(HSEsol GGA)[PBEsol]

 RANGE-SEPARATED HYBRID FUNCTIONAL 
 OMEGA (SHORT-RANGE)[LONG-RANGE]:(    0.1100)[    0.0000]

 HYBRID EXCHANGE - PERCENTAGE OF FOCK EXCHANGE    25.0000

 CAPPA:IS1  2;IS2  2;IS3  8; K PTS MONK NET  20; SYMMOPS:K SPACE   2;G SPACE   1

 *******************************************************************************
 MAX NUMBER OF SCF CYCLES      50  CONVERGENCE ON DELTAP        10**-16
 WEIGHT OF F(I) IN F(I+1)      30% CONVERGENCE ON ENERGY        10**- 6
 SHRINK. FACT.(MONKH.)    2  2  8  NUMBER OF K POINTS IN THE IBZ     20
 SHRINKING FACTOR(GILAT NET)    8  NUMBER OF K POINTS(GILAT NET)   1028
 *******************************************************************************
 *** K POINTS COORDINATES (OBLIQUE COORDINATES IN UNITS OF IS =  2)
   1-R(  0  0  0)   2-R(  1  0  0)   3-R(  0  1  0)   4-R(  1  1  0)
   5-C(  0  0  1)   6-C(  1  0  1)   7-C(  0  1  1)   8-C(  1  1  1)
   9-C(  0  0  2)  10-C(  1  0  2)  11-C(  0  1  2)  12-C(  1  1  2)
  13-C(  0  0  3)  14-C(  1  0  3)  15-C(  0  1  3)  16-C(  1  1  3)
  17-R(  0  0  4)  18-R(  1  0  4)  19-R(  0  1  4)  20-R(  1  1  4)

 DIRECT LATTICE VECTORS COMPON. (A.U.)     RECIP. LATTICE VECTORS COMPON. (A.U.) 
        X            Y            Z              X            Y            Z
   24.5879030  -14.1935232    0.0000000      0.2555397    0.0000000    0.0000005
    0.0000000   28.3910867    0.0000000      0.1277517    0.2213084    0.0000015
   -0.0000273   -0.0000724   12.8501377      0.0000000    0.0000000    0.4889586

 DISK SPACE FOR EIGENVECTORS (FTN 10)    28758528 REALS

 SYMMETRY ADAPTION OF THE BLOCH FUNCTIONS DISABLED
 TTTTTTTTTTTTTTTTTTTTTTTTTTTTTT gordsh1     TELAPSE        0.05 TCPU        0.05

 MATRIX SIZE: P(G)  795310, F(G)  161502, P(G) IRR  399713, F(G) IRR  162534
 MAX G-VECTOR INDEX FOR 1- AND 2-ELECTRON INTEGRALS  59

 TTTTTTTTTTTTTTTTTTTTTTTTTTTTTT INPUT       TELAPSE        2.99 TCPU        2.98

 NEIGHBORS OF THE NON-EQUIVALENT ATOMS

 N = NUMBER OF NEIGHBORS AT DISTANCE R
    ATOM  N     R/ANG      R/AU   NEIGHBORS (ATOM LABELS AND CELL INDICES)
   1 B    1     1.3791     2.6061   73 O   -1 0 0
   1 B    1     1.3793     2.6065   75 O    0 0 0
   1 B    1     1.5503     2.9297   49 C   -1 0 0
   1 B    1     2.3895     4.5155    5 B    0 1 0
   1 B    1     2.3898     4.5160    3 B    0 0 0
   1 B    1     2.5632     4.8437   51 C    0 0 0

   2 B    1     1.3791     2.6061   74 O   -1 0 0
   2 B    1     1.3793     2.6065   76 O    0 0 0
   2 B    1     1.5503     2.9297   50 C   -1 0 0
   2 B    1     2.3895     4.5155    6 B    0 1 0
   2 B    1     2.3898     4.5160    4 B    0 1 0
   2 B    1     2.5632     4.8437   52 C    0 0 0

   3 B    1     1.3793     2.6065   77 O    0 1 0
   3 B    1     1.3793     2.6065   75 O    0 0 0
   3 B    1     1.5504     2.9298   37 C    0 0 0
   3 B    1     2.3895     4.5156    5 B    0 1 0
   3 B    1     2.3898     4.5160    1 B    0 0 0
   3 B    1     2.5634     4.8440   43 C    0 1 0

   4 B    1     1.3793     2.6065   78 O    0 0 0
   4 B    1     1.3793     2.6065   76 O    0-1 0
   4 B    1     1.5504     2.9298   38 C    0 0 0
   4 B    1     2.3895     4.5156    6 B    0 0 0
   4 B    1     2.3898     4.5160    2 B    0-1 0
   4 B    1     2.5634     4.8440   44 C    0 0 0

   5 B    1     1.3791     2.6061   73 O   -1-1 0
   5 B    1     1.3793     2.6064   77 O    0 0 0
   5 B    1     1.5502     2.9294   61 C   -1-1 0
   5 B    1     2.3895     4.5155    1 B    0-1 0
   5 B    1     2.3895     4.5156    3 B    0-1 0
   5 B    1     2.5629     4.8433   63 C    0 0 0

   6 B    1     1.3791     2.6061   74 O   -1-1 0
   6 B    1     1.3793     2.6064   78 O    0 0 0
   6 B    1     1.5502     2.9294   62 C    0 0 0
   6 B    1     2.3895     4.5155    2 B    0-1 0
   6 B    1     2.3895     4.5156    4 B    0 0 0
   6 B    1     2.5629     4.8433   64 C    0 0 0

   7 B    1     1.3795     2.6068   79 O    0 0 0
   7 B    1     1.3795     2.6070   81 O    0-1 0
   7 B    1     1.5513     2.9316   47 C    0 0 0
   7 B    1     2.3905     4.5174   11 B    0 0 0
   7 B    1     2.3905     4.5175    9 B    0-1 0
   7 B    1     2.5648     4.8468   45 C    0-1 0

   8 B    1     1.3795     2.6068   80 O    0 0 0
   8 B    1     1.3795     2.6070   82 O    0-1 0
   8 B    1     1.5513     2.9316   48 C    0 0 0
   8 B    1     2.3905     4.5174   12 B    0 0 0
   8 B    1     2.3905     4.5175   10 B    1 0 0
   8 B    1     2.5648     4.8468   46 C    0-1 0

   9 B    1     1.3795     2.6069   81 O    0 0 0
   9 B    1     1.3797     2.6072   83 O    1 1 0
   9 B    1     1.5516     2.9322   71 C    0 0 0
   9 B    1     2.3905     4.5175    7 B    0 1 0
   9 B    1     2.3911     4.5185   11 B    0 1 0
   9 B    1     2.5651     4.8473   69 C    1 1 0

  10 B    1     1.3795     2.6069   82 O   -1-1 0
  10 B    1     1.3797     2.6072   84 O    0 0 0
  10 B    1     1.5516     2.9322   72 C    0 0 0
  10 B    1     2.3905     4.5175    8 B   -1 0 0
  10 B    1     2.3911     4.5185   12 B   -1 0 0
  10 B    1     2.5651     4.8473   70 C    0 0 0

  11 B    1     1.3795     2.6068   79 O    0 0 0
  11 B    1     1.3796     2.6071   83 O    1 0 0
  11 B    1     1.5516     2.9322   59 C    0 0 0
  11 B    1     2.3905     4.5174    7 B    0 0 0
  11 B    1     2.3911     4.5185    9 B    0-1 0
  11 B    1     2.5651     4.8473   57 C    1 0 0

  12 B    1     1.3795     2.6068   80 O    0 0 0
  12 B    1     1.3796     2.6071   84 O    1 0 0
  12 B    1     1.5516     2.9322   60 C    0 0 0
  12 B    1     2.3905     4.5174    8 B    0 0 0
  12 B    1     2.3911     4.5185   10 B    1 0 0
  12 B    1     2.5651     4.8473   58 C    1 0 0

  13 H    1     1.0913     2.0623   39 C    0 0 0
  13 H    1     2.1472     4.0576   37 C    0 0 0
  13 H    1     2.1680     4.0969   45 C    0 0 0
  13 H    1     2.5202     4.7625   19 H    0 0 0
  13 H    1     2.5676     4.8520   75 O    0 0 0
  13 H    1     2.7321     5.1630    3 B    0 0 0

  14 H    1     1.0913     2.0623   40 C    0 0 0
  14 H    1     2.1472     4.0576   38 C    0 1 0
  14 H    1     2.1680     4.0969   46 C    0 0 0
  14 H    1     2.5202     4.7625   20 H    0 0 0
  14 H    1     2.5676     4.8520   76 O    0 0 0
  14 H    1     2.7321     5.1630    4 B    0 1 0

  15 H    1     1.0914     2.0625   41 C    0 0 0
  15 H    1     2.1493     4.0616   47 C    0 0 0
  15 H    1     2.1666     4.0942   43 C    0 0 0
  15 H    1     2.5198     4.7618   17 H    0 0 0
  15 H    1     2.5720     4.8604   79 O    0 0 0
  15 H    1     2.7362     5.1707    7 B    0 0 0

  16 H    1     1.0914     2.0625   42 C    0 0 0
  16 H    1     2.1493     4.0616   48 C    0 0 0
  16 H    1     2.1666     4.0942   44 C    0 0 0
  16 H    1     2.5198     4.7618   18 H    0 0 0
  16 H    1     2.5720     4.8604   80 O    0 0 0
  16 H    1     2.7362     5.1707    8 B    0 0 0

  17 H    1     1.0914     2.0624   43 C    0 0 0
  17 H    1     2.1471     4.0575   37 C    0-1 0
  17 H    1     2.1680     4.0970   41 C    0 0 0
  17 H    1     2.5198     4.7618   15 H    0 0 0
  17 H    1     2.5665     4.8500   77 O    0 0 0
  17 H    1     2.7315     5.1618    3 B    0-1 0

  18 H    1     1.0914     2.0624   44 C    0 0 0
  18 H    1     2.1471     4.0575   38 C    0 0 0
  18 H    1     2.1680     4.0970   42 C    0 0 0
  18 H    1     2.5198     4.7618   16 H    0 0 0
  18 H    1     2.5665     4.8500   78 O    0 0 0
  18 H    1     2.7315     5.1618    4 B    0 0 0

  19 H    1     1.0915     2.0626   45 C    0 0 0
  19 H    1     2.1490     4.0610   47 C    0 1 0
  19 H    1     2.1669     4.0948   39 C    0 0 0
  19 H    1     2.5202     4.7625   13 H    0 0 0
  19 H    1     2.5712     4.8588   81 O    0 0 0
  19 H    1     2.7351     5.1686    7 B    0 1 0

  20 H    1     1.0915     2.0626   46 C    0 0 0
  20 H    1     2.1490     4.0610   48 C    0 1 0
  20 H    1     2.1669     4.0948   40 C    0 0 0
  20 H    1     2.5202     4.7625   14 H    0 0 0
  20 H    1     2.5712     4.8588   82 O    0 0 0
  20 H    1     2.7351     5.1686    8 B    0 1 0

  21 H    1     1.0913     2.0623   51 C    0 0 0
  21 H    1     2.1469     4.0571   49 C   -1 0 0
  21 H    1     2.1680     4.0968   57 C    0 0 0
  21 H    1     2.5198     4.7617   27 H    0 0 0
  21 H    1     2.5670     4.8510   75 O    0 0 0
  21 H    1     2.7310     5.1609    1 B    0 0 0

  22 H    1     1.0913     2.0623   52 C    0 0 0
  22 H    1     2.1469     4.0571   50 C   -1 0 0
  22 H    1     2.1680     4.0968   58 C    0 0 0
  22 H    1     2.5198     4.7617   28 H    0 0 0
  22 H    1     2.5670     4.8510   76 O    0 0 0
  22 H    1     2.7310     5.1609    2 B    0 0 0

  23 H    1     1.0914     2.0625   53 C    0 0 0
  23 H    1     2.1493     4.0617   59 C    0 0 0
  23 H    1     2.1664     4.0939   55 C    0 0 0
  23 H    1     2.5192     4.7606   25 H    0 0 0
  23 H    1     2.5735     4.8632   79 O    0 0 0
  23 H    1     2.7371     5.1723   11 B    0 0 0

  24 H    1     1.0914     2.0625   54 C    0 0 0
  24 H    1     2.1493     4.0617   60 C    0 0 0
  24 H    1     2.1664     4.0939   56 C    0 0 0
  24 H    1     2.5192     4.7606   26 H    0 0 0
  24 H    1     2.5735     4.8632   80 O    0 0 0
  24 H    1     2.7371     5.1723   12 B    0 0 0

  25 H    1     1.0914     2.0624   55 C    0 0 0
  25 H    1     2.1475     4.0581   49 C    0 0 0
  25 H    1     2.1679     4.0967   53 C    0 0 0
  25 H    1     2.5192     4.7606   23 H    0 0 0
  25 H    1     2.5675     4.8519   73 O    0 0 0
  25 H    1     2.7328     5.1643    1 B    1 0 0

  26 H    1     1.0914     2.0624   56 C    0 0 0
  26 H    1     2.1475     4.0581   50 C    0 0 0
  26 H    1     2.1679     4.0967   54 C    0 0 0
  26 H    1     2.5192     4.7606   24 H    0 0 0
  26 H    1     2.5675     4.8519   74 O    0 0 0
  26 H    1     2.7328     5.1643    2 B    1 0 0

  27 H    1     1.0914     2.0625   57 C    0 0 0
  27 H    1     2.1491     4.0612   59 C   -1 0 0
  27 H    1     2.1666     4.0942   51 C    0 0 0
  27 H    1     2.5198     4.7617   21 H    0 0 0
  27 H    1     2.5723     4.8609   83 O    0 0 0
  27 H    1     2.7355     5.1693   11 B   -1 0 0

  28 H    1     1.0914     2.0625   58 C    0 0 0
  28 H    1     2.1491     4.0612   60 C   -1 0 0
  28 H    1     2.1666     4.0942   52 C    0 0 0
  28 H    1     2.5198     4.7617   22 H    0 0 0
  28 H    1     2.5723     4.8609   84 O    0 0 0
  28 H    1     2.7355     5.1693   12 B   -1 0 0

  29 H    1     1.0914     2.0624   63 C    0 0 0
  29 H    1     2.1475     4.0582   61 C   -1-1 0
  29 H    1     2.1678     4.0966   69 C    0 0 0
  29 H    1     2.5200     4.7621   35 H    0 0 0
  29 H    1     2.5667     4.8503   77 O    0 0 0
  29 H    1     2.7315     5.1618    5 B    0 0 0

  30 H    1     1.0914     2.0624   64 C    0 0 0
  30 H    1     2.1475     4.0582   62 C    0 0 0
  30 H    1     2.1678     4.0966   70 C    0 0 0
  30 H    1     2.5200     4.7621   36 H    0 0 0
  30 H    1     2.5667     4.8503   78 O    0 0 0
  30 H    1     2.7315     5.1618    6 B    0 0 0

  31 H    1     1.0913     2.0623   65 C    0 0 0
  31 H    1     2.1487     4.0605   71 C    0 0 0
  31 H    1     2.1667     4.0945   67 C    0 0 0
  31 H    1     2.5197     4.7616   33 H    0 0 0
  31 H    1     2.5723     4.8610   81 O    0 0 0
  31 H    1     2.7359     5.1701    9 B    0 0 0

  32 H    1     1.0913     2.0623   66 C    0 0 0
  32 H    1     2.1487     4.0605   72 C    1 1 0
  32 H    1     2.1667     4.0945   68 C    0 0 0
  32 H    1     2.5197     4.7616   34 H    0 0 0
  32 H    1     2.5723     4.8610   82 O    0 0 0
  32 H    1     2.7359     5.1701   10 B    1 1 0

  33 H    1     1.0915     2.0626   67 C    0 0 0
  33 H    1     2.1479     4.0589   61 C    0 0 0
  33 H    1     2.1679     4.0968   65 C    0 0 0
  33 H    1     2.5197     4.7616   31 H    0 0 0
  33 H    1     2.5677     4.8522   73 O    0 0 0
  33 H    1     2.7331     5.1648    5 B    1 1 0

  34 H    1     1.0915     2.0626   68 C    0 0 0
  34 H    1     2.1479     4.0589   62 C    1 1 0
  34 H    1     2.1679     4.0968   66 C    0 0 0
  34 H    1     2.5197     4.7616   32 H    0 0 0
  34 H    1     2.5677     4.8522   74 O    0 0 0
  34 H    1     2.7331     5.1648    6 B    1 1 0

  35 H    1     1.0914     2.0624   69 C    0 0 0
  35 H    1     2.1486     4.0602   71 C   -1-1 0
  35 H    1     2.1668     4.0947   63 C    0 0 0
  35 H    1     2.5200     4.7621   29 H    0 0 0
  35 H    1     2.5717     4.8598   83 O    0 0 0
  35 H    1     2.7349     5.1682    9 B   -1-1 0

  36 H    1     1.0914     2.0624   70 C    0 0 0
  36 H    1     2.1486     4.0602   72 C    0 0 0
  36 H    1     2.1668     4.0947   64 C    0 0 0
  36 H    1     2.5200     4.7621   30 H    0 0 0
  36 H    1     2.5717     4.8598   84 O    0 0 0
  36 H    1     2.7349     5.1682   10 B    0 0 0

  37 C    1     1.4020     2.6495   43 C    0 1 0
  37 C    1     1.4021     2.6495   39 C    0 0 0
  37 C    1     1.5504     2.9298    3 B    0 0 0
  37 C    1     2.1471     4.0575   17 H    0 1 0
  37 C    1     2.1472     4.0576   13 H    0 0 0
  37 C    1     2.4246     4.5817   41 C    0 1 0

  38 C    1     1.4020     2.6495   44 C    0 0 0
  38 C    1     1.4021     2.6495   40 C    0-1 0
  38 C    1     1.5504     2.9298    4 B    0 0 0
  38 C    1     2.1471     4.0575   18 H    0 0 0
  38 C    1     2.1472     4.0576   14 H    0-1 0
  38 C    1     2.4246     4.5817   42 C    0 0 0

  39 C    1     1.0913     2.0623   13 H    0 0 0
  39 C    1     1.3914     2.6294   45 C    0 0 0
  39 C    1     1.4021     2.6495   37 C    0 0 0
  39 C    1     2.1669     4.0948   19 H    0 0 0
  39 C    1     2.4177     4.5688   43 C    0 1 0
  39 C    1     2.4250     4.5825   47 C    0 1 0

  40 C    1     1.0913     2.0623   14 H    0 0 0
  40 C    1     1.3914     2.6294   46 C    0 0 0
  40 C    1     1.4021     2.6495   38 C    0 1 0
  40 C    1     2.1669     4.0948   20 H    0 0 0
  40 C    1     2.4177     4.5688   44 C    0 1 0
  40 C    1     2.4250     4.5825   48 C    0 1 0

  41 C    1     1.0914     2.0625   15 H    0 0 0
  41 C    1     1.3914     2.6293   43 C    0 0 0
  41 C    1     1.4026     2.6505   47 C    0 0 0
  41 C    1     2.1680     4.0970   17 H    0 0 0
  41 C    1     2.4182     4.5697   45 C    0-1 0
  41 C    1     2.4246     4.5817   37 C    0-1 0

  42 C    1     1.0914     2.0625   16 H    0 0 0
  42 C    1     1.3914     2.6293   44 C    0 0 0
  42 C    1     1.4026     2.6505   48 C    0 0 0
  42 C    1     2.1680     4.0970   18 H    0 0 0
  42 C    1     2.4182     4.5697   46 C    0-1 0
  42 C    1     2.4246     4.5817   38 C    0 0 0

  43 C    1     1.0914     2.0624   17 H    0 0 0
  43 C    1     1.3914     2.6293   41 C    0 0 0
  43 C    1     1.4020     2.6495   37 C    0-1 0
  43 C    1     2.1666     4.0942   15 H    0 0 0
  43 C    1     2.4177     4.5688   39 C    0-1 0
  43 C    1     2.4250     4.5826   47 C    0 0 0

  44 C    1     1.0914     2.0624   18 H    0 0 0
  44 C    1     1.3914     2.6293   42 C    0 0 0
  44 C    1     1.4020     2.6495   38 C    0 0 0
  44 C    1     2.1666     4.0942   16 H    0 0 0
  44 C    1     2.4177     4.5688   40 C    0-1 0
  44 C    1     2.4250     4.5826   48 C    0 0 0

  45 C    1     1.0915     2.0626   19 H    0 0 0
  45 C    1     1.3914     2.6294   39 C    0 0 0
  45 C    1     1.4025     2.6504   47 C    0 1 0
  45 C    1     2.1680     4.0969   13 H    0 0 0
  45 C    1     2.4182     4.5697   41 C    0 1 0
  45 C    1     2.4246     4.5818   37 C    0 0 0

  46 C    1     1.0915     2.0626   20 H    0 0 0
  46 C    1     1.3914     2.6294   40 C    0 0 0
  46 C    1     1.4025     2.6504   48 C    0 1 0
  46 C    1     2.1680     4.0969   14 H    0 0 0
  46 C    1     2.4182     4.5697   42 C    0 1 0
  46 C    1     2.4246     4.5818   38 C    0 1 0

  47 C    1     1.4025     2.6504   45 C    0-1 0
  47 C    1     1.4026     2.6505   41 C    0 0 0
  47 C    1     1.5513     2.9316    7 B    0 0 0
  47 C    1     2.1490     4.0610   19 H    0-1 0
  47 C    1     2.1493     4.0616   15 H    0 0 0
  47 C    1     2.4250     4.5825   39 C    0-1 0

  48 C    1     1.4025     2.6504   46 C    0-1 0
  48 C    1     1.4026     2.6505   42 C    0 0 0
  48 C    1     1.5513     2.9316    8 B    0 0 0
  48 C    1     2.1490     4.0610   20 H    0-1 0
  48 C    1     2.1493     4.0616   16 H    0 0 0
  48 C    1     2.4250     4.5825   40 C    0-1 0

  49 C    1     1.4020     2.6494   51 C    1 0 0
  49 C    1     1.4021     2.6495   55 C    0 0 0
  49 C    1     1.5503     2.9297    1 B    1 0 0
  49 C    1     2.1469     4.0571   21 H    1 0 0
  49 C    1     2.1475     4.0581   25 H    0 0 0
  49 C    1     2.4246     4.5818   53 C    0 0 0

  50 C    1     1.4020     2.6494   52 C    1 0 0
  50 C    1     1.4021     2.6495   56 C    0 0 0
  50 C    1     1.5503     2.9297    2 B    1 0 0
  50 C    1     2.1469     4.0571   22 H    1 0 0
  50 C    1     2.1475     4.0581   26 H    0 0 0
  50 C    1     2.4246     4.5818   54 C    0 0 0

  51 C    1     1.0913     2.0623   21 H    0 0 0
  51 C    1     1.3914     2.6293   57 C    0 0 0
  51 C    1     1.4020     2.6494   49 C   -1 0 0
  51 C    1     2.1666     4.0942   27 H    0 0 0
  51 C    1     2.4175     4.5684   55 C   -1 0 0
  51 C    1     2.4251     4.5828   59 C   -1 0 0

  52 C    1     1.0913     2.0623   22 H    0 0 0
  52 C    1     1.3914     2.6293   58 C    0 0 0
  52 C    1     1.4020     2.6494   50 C   -1 0 0
  52 C    1     2.1666     4.0942   28 H    0 0 0
  52 C    1     2.4175     4.5684   56 C   -1 0 0
  52 C    1     2.4251     4.5828   60 C   -1 0 0

  53 C    1     1.0914     2.0625   23 H    0 0 0
  53 C    1     1.3915     2.6295   55 C    0 0 0
  53 C    1     1.4026     2.6505   59 C    0 0 0
  53 C    1     2.1679     4.0967   25 H    0 0 0
  53 C    1     2.4179     4.5691   57 C    1 0 0
  53 C    1     2.4246     4.5818   49 C    0 0 0

  54 C    1     1.0914     2.0625   24 H    0 0 0
  54 C    1     1.3915     2.6295   56 C    0 0 0
  54 C    1     1.4026     2.6505   60 C    0 0 0
  54 C    1     2.1679     4.0967   26 H    0 0 0
  54 C    1     2.4179     4.5691   58 C    1 0 0
  54 C    1     2.4246     4.5818   50 C    0 0 0

  55 C    1     1.0914     2.0624   25 H    0 0 0
  55 C    1     1.3915     2.6295   53 C    0 0 0
  55 C    1     1.4021     2.6495   49 C    0 0 0
  55 C    1     2.1664     4.0939   23 H    0 0 0
  55 C    1     2.4175     4.5684   51 C    1 0 0
  55 C    1     2.4253     4.5832   59 C    0 0 0

  56 C    1     1.0914     2.0624   26 H    0 0 0
  56 C    1     1.3915     2.6295   54 C    0 0 0
  56 C    1     1.4021     2.6495   50 C    0 0 0
  56 C    1     2.1664     4.0939   24 H    0 0 0
  56 C    1     2.4175     4.5684   52 C    1 0 0
  56 C    1     2.4253     4.5832   60 C    0 0 0

  57 C    1     1.0914     2.0625   27 H    0 0 0
  57 C    1     1.3914     2.6293   51 C    0 0 0
  57 C    1     1.4025     2.6504   59 C   -1 0 0
  57 C    1     2.1680     4.0968   21 H    0 0 0
  57 C    1     2.4179     4.5691   53 C   -1 0 0
  57 C    1     2.4247     4.5819   49 C   -1 0 0

  58 C    1     1.0914     2.0625   28 H    0 0 0
  58 C    1     1.3914     2.6293   52 C    0 0 0
  58 C    1     1.4025     2.6504   60 C   -1 0 0
  58 C    1     2.1680     4.0968   22 H    0 0 0
  58 C    1     2.4179     4.5691   54 C   -1 0 0
  58 C    1     2.4247     4.5819   50 C   -1 0 0

  59 C    1     1.4025     2.6504   57 C    1 0 0
  59 C    1     1.4026     2.6505   53 C    0 0 0
  59 C    1     1.5516     2.9322   11 B    0 0 0
  59 C    1     2.1491     4.0612   27 H    1 0 0
  59 C    1     2.1493     4.0617   23 H    0 0 0
  59 C    1     2.4251     4.5828   51 C    1 0 0

  60 C    1     1.4025     2.6504   58 C    1 0 0
  60 C    1     1.4026     2.6505   54 C    0 0 0
  60 C    1     1.5516     2.9322   12 B    0 0 0
  60 C    1     2.1491     4.0612   28 H    1 0 0
  60 C    1     2.1493     4.0617   24 H    0 0 0
  60 C    1     2.4251     4.5828   52 C    1 0 0

  61 C    1     1.4021     2.6496   63 C    1 1 0
  61 C    1     1.4021     2.6497   67 C    0 0 0
  61 C    1     1.5502     2.9294    5 B    1 1 0
  61 C    1     2.1475     4.0582   29 H    1 1 0
  61 C    1     2.1479     4.0589   33 H    0 0 0
  61 C    1     2.4244     4.5814   65 C    0 0 0

  62 C    1     1.4021     2.6496   64 C    0 0 0
  62 C    1     1.4021     2.6497   68 C   -1-1 0
  62 C    1     1.5502     2.9294    6 B    0 0 0
  62 C    1     2.1475     4.0582   30 H    0 0 0
  62 C    1     2.1479     4.0589   34 H   -1-1 0
  62 C    1     2.4244     4.5814   66 C   -1-1 0

  63 C    1     1.0914     2.0624   29 H    0 0 0
  63 C    1     1.3914     2.6293   69 C    0 0 0
  63 C    1     1.4021     2.6496   61 C   -1-1 0
  63 C    1     2.1668     4.0947   35 H    0 0 0
  63 C    1     2.4179     4.5692   67 C   -1-1 0
  63 C    1     2.4251     4.5827   71 C   -1-1 0

  64 C    1     1.0914     2.0624   30 H    0 0 0
  64 C    1     1.3914     2.6293   70 C    0 0 0
  64 C    1     1.4021     2.6496   62 C    0 0 0
  64 C    1     2.1668     4.0947   36 H    0 0 0
  64 C    1     2.4179     4.5692   68 C   -1-1 0
  64 C    1     2.4251     4.5827   72 C    0 0 0

  65 C    1     1.0913     2.0623   31 H    0 0 0
  65 C    1     1.3914     2.6294   67 C    0 0 0
  65 C    1     1.4025     2.6504   71 C    0 0 0
  65 C    1     2.1679     4.0968   33 H    0 0 0
  65 C    1     2.4178     4.5690   69 C    1 1 0
  65 C    1     2.4244     4.5814   61 C    0 0 0

  66 C    1     1.0913     2.0623   32 H    0 0 0
  66 C    1     1.3914     2.6294   68 C    0 0 0
  66 C    1     1.4025     2.6504   72 C    1 1 0
  66 C    1     2.1679     4.0968   34 H    0 0 0
  66 C    1     2.4178     4.5690   70 C    1 1 0
  66 C    1     2.4244     4.5814   62 C    1 1 0

  67 C    1     1.0915     2.0626   33 H    0 0 0
  67 C    1     1.3914     2.6294   65 C    0 0 0
  67 C    1     1.4021     2.6497   61 C    0 0 0
  67 C    1     2.1667     4.0945   31 H    0 0 0
  67 C    1     2.4179     4.5692   63 C    1 1 0
  67 C    1     2.4253     4.5832   71 C    0 0 0

  68 C    1     1.0915     2.0626   34 H    0 0 0
  68 C    1     1.3914     2.6294   66 C    0 0 0
  68 C    1     1.4021     2.6497   62 C    1 1 0
  68 C    1     2.1667     4.0945   32 H    0 0 0
  68 C    1     2.4179     4.5692   64 C    1 1 0
  68 C    1     2.4253     4.5832   72 C    1 1 0

  69 C    1     1.0914     2.0624   35 H    0 0 0
  69 C    1     1.3914     2.6293   63 C    0 0 0
  69 C    1     1.4025     2.6503   71 C   -1-1 0
  69 C    1     2.1678     4.0966   29 H    0 0 0
  69 C    1     2.4178     4.5690   65 C   -1-1 0
  69 C    1     2.4245     4.5817   61 C   -1-1 0

  70 C    1     1.0914     2.0624   36 H    0 0 0
  70 C    1     1.3914     2.6293   64 C    0 0 0
  70 C    1     1.4025     2.6503   72 C    0 0 0
  70 C    1     2.1678     4.0966   30 H    0 0 0
  70 C    1     2.4178     4.5690   66 C   -1-1 0
  70 C    1     2.4245     4.5817   62 C    0 0 0

  71 C    1     1.4025     2.6503   69 C    1 1 0
  71 C    1     1.4025     2.6504   65 C    0 0 0
  71 C    1     1.5516     2.9322    9 B    0 0 0
  71 C    1     2.1486     4.0602   35 H    1 1 0
  71 C    1     2.1487     4.0605   31 H    0 0 0
  71 C    1     2.4251     4.5827   63 C    1 1 0

  72 C    1     1.4025     2.6503   70 C    0 0 0
  72 C    1     1.4025     2.6504   66 C   -1-1 0
  72 C    1     1.5516     2.9322   10 B    0 0 0
  72 C    1     2.1486     4.0602   36 H    0 0 0
  72 C    1     2.1487     4.0605   32 H   -1-1 0
  72 C    1     2.4251     4.5827   64 C    0 0 0

  73 O    1     1.3791     2.6061    1 B    1 0 0
  73 O    1     1.3791     2.6061    5 B    1 1 0
  73 O    1     2.3880     4.5126   75 O    1 0 0
  73 O    1     2.3882     4.5130   77 O    1 1 0
  73 O    1     2.5383     4.7966   61 C    0 0 0
  73 O    1     2.5384     4.7968   49 C    0 0 0

  74 O    1     1.3791     2.6061    2 B    1 0 0
  74 O    1     1.3791     2.6061    6 B    1 1 0
  74 O    1     2.3880     4.5126   76 O    1 0 0
  74 O    1     2.3882     4.5130   78 O    1 1 0
  74 O    1     2.5383     4.7966   62 C    1 1 0
  74 O    1     2.5384     4.7968   50 C    0 0 0

  75 O    1     1.3793     2.6065    1 B    0 0 0
  75 O    1     1.3793     2.6065    3 B    0 0 0
  75 O    1     2.3880     4.5126   73 O   -1 0 0
  75 O    1     2.3882     4.5131   77 O    0 1 0
  75 O    1     2.5391     4.7981   37 C    0 0 0
  75 O    1     2.5395     4.7990   49 C   -1 0 0

  76 O    1     1.3793     2.6065    2 B    0 0 0
  76 O    1     1.3793     2.6065    4 B    0 1 0
  76 O    1     2.3880     4.5126   74 O   -1 0 0
  76 O    1     2.3882     4.5131   78 O    0 1 0
  76 O    1     2.5391     4.7981   38 C    0 1 0
  76 O    1     2.5395     4.7990   50 C   -1 0 0

  77 O    1     1.3793     2.6064    5 B    0 0 0
  77 O    1     1.3793     2.6065    3 B    0-1 0
  77 O    1     2.3882     4.5130   73 O   -1-1 0
  77 O    1     2.3882     4.5131   75 O    0-1 0
  77 O    1     2.5390     4.7980   37 C    0-1 0
  77 O    1     2.5391     4.7982   61 C   -1-1 0

  78 O    1     1.3793     2.6064    6 B    0 0 0
  78 O    1     1.3793     2.6065    4 B    0 0 0
  78 O    1     2.3882     4.5130   74 O   -1-1 0
  78 O    1     2.3882     4.5131   76 O    0-1 0
  78 O    1     2.5390     4.7980   38 C    0 0 0
  78 O    1     2.5391     4.7982   62 C    0 0 0

  79 O    1     1.3795     2.6068   11 B    0 0 0
  79 O    1     1.3795     2.6068    7 B    0 0 0
  79 O    1     2.3880     4.5126   83 O    1 0 0
  79 O    1     2.3884     4.5134   81 O    0-1 0
  79 O    1     2.5400     4.7998   47 C    0 0 0
  79 O    1     2.5403     4.8005   59 C    0 0 0

  80 O    1     1.3795     2.6068   12 B    0 0 0
  80 O    1     1.3795     2.6068    8 B    0 0 0
  80 O    1     2.3880     4.5126   84 O    1 0 0
  80 O    1     2.3884     4.5134   82 O    0-1 0
  80 O    1     2.5400     4.7998   48 C    0 0 0
  80 O    1     2.5403     4.8005   60 C    0 0 0

  81 O    1     1.3795     2.6069    9 B    0 0 0
  81 O    1     1.3795     2.6070    7 B    0 1 0
  81 O    1     2.3881     4.5128   83 O    1 1 0
  81 O    1     2.3884     4.5134   79 O    0 1 0
  81 O    1     2.5404     4.8006   47 C    0 1 0
  81 O    1     2.5405     4.8008   71 C    0 0 0

  82 O    1     1.3795     2.6069   10 B    1 1 0
  82 O    1     1.3795     2.6070    8 B    0 1 0
  82 O    1     2.3881     4.5128   84 O    1 1 0
  82 O    1     2.3884     4.5134   80 O    0 1 0
  82 O    1     2.5404     4.8006   48 C    0 1 0
  82 O    1     2.5405     4.8008   72 C    1 1 0

  83 O    1     1.3796     2.6071   11 B   -1 0 0
  83 O    1     1.3797     2.6072    9 B   -1-1 0
  83 O    1     2.3880     4.5126   79 O   -1 0 0
  83 O    1     2.3881     4.5128   81 O   -1-1 0
  83 O    1     2.5409     4.8016   71 C   -1-1 0
  83 O    1     2.5410     4.8019   59 C   -1 0 0

  84 O    1     1.3796     2.6071   12 B   -1 0 0
  84 O    1     1.3797     2.6072   10 B    0 0 0
  84 O    1     2.3880     4.5126   80 O   -1 0 0
  84 O    1     2.3881     4.5128   82 O   -1-1 0
  84 O    1     2.5409     4.8016   72 C    0 0 0
  84 O    1     2.5410     4.8019   60 C   -1 0 0


 SYMMETRY ALLOWED INTERNAL DEGREE(S) OF FREEDOM: 249
 TTTTTTTTTTTTTTTTTTTTTTTTTTTTTT SYMM        TELAPSE        2.99 TCPU        2.99
 TTTTTTTTTTTTTTTTTTTTTTTTTTTTTT INT_SCREEN  TELAPSE        3.20 TCPU        3.20

 DFT PARAMETERS

     ATOM       ELECTRONS   NET CHARGE   R(ANGSTROM)
   1   5  B       5.0000      0.0000     0.89000000
  13   1  H       1.0000      0.0000     1.11000000
  37   6  C       6.0000      0.0000     0.77000000
  73   8  O       8.0000      0.0000     0.74000000

 SIZE OF GRID=    2497079
 TTTTTTTTTTTTTTTTTTTTTTTTTTTTTT MAKE_GRID2  TELAPSE       28.01 TCPU       27.98
 BECKE WEIGHT FUNCTION
 RADSAFE =     2.00
 TOLERANCES - DENSITY:10**- 6; POTENTIAL:10**- 9; GRID WGT:10**-14

 RADIAL INTEGRATION  - INTERVALS (POINTS,UPPER LIMIT):            1( 75,  4.0*R)

 ANGULAR INTEGRATION - INTERVALS (ACCURACY LEVEL [N. POINTS] UPPER LIMIT):
  1(  4[  86]   0.2)  2(  8[ 194]   0.5)  3( 12[ 350]   0.9)  4( 16[ 974]   3.5)
  5( 12[ 350]9999.0)
 TTTTTTTTTTTTTTTTTTTTTTTTTTTTTT INT_CALC    TELAPSE       28.33 TCPU       28.30
 EEEEEEEEEE INT_CALC TERMINATION  DATE 19 02 2026 TIME 20:03:48.9

 *******************************************************************************
 cof-1_z34_L010_serr                                                             
 CRYSTAL - SCF - TYPE OF CALCULATION :  RESTRICTED CLOSED SHELL
 *******************************************************************************

 CAPPA:IS1  2;IS2  2;IS3  8; K PTS MONK NET  20; SYMMOPS:K SPACE   2;G SPACE   1

 TTTTTTTTTTTTTTTTTTTTTTTTTTTTTT SDIK        TELAPSE       30.23 TCPU       55.58

 AAAAAAAAAAAAAAAAAAAAAAAAAAAAAAAAAAAAAAAAAAAAAAAAAAAAAAAAAAAAAAAAAAAAAAAAAAAAAAA
         ATOMIC WAVEFUNCTION(S)


 NUCLEAR CHARGE  5.0  SYMMETRY SPECIES            S    P
 N. ELECTRONS    5.0  NUMBER OF PRIMITIVE GTOS    8    4
                      NUMBER OF CONTRACTED GTOS   4    2
                      NUMBER OF CLOSED SHELLS     2    0
                      OPEN SHELL OCCUPATION       0    1

  ZNUC  SCFIT    TOTAL HF ENERGY   KINETIC ENERGY   VIRIAL THEOREM ACCURACY
   5.0    11    -2.451164084E+01  2.462155050E+01 -1.995536038E+00  1.5E-06

 NUCLEAR CHARGE  1.0  SYMMETRY SPECIES            S
 N. ELECTRONS    1.0  NUMBER OF PRIMITIVE GTOS    4
                      NUMBER OF CONTRACTED GTOS   2
                      NUMBER OF CLOSED SHELLS     0
                      OPEN SHELL OCCUPATION       1

  ZNUC  SCFIT    TOTAL HF ENERGY   KINETIC ENERGY   VIRIAL THEOREM ACCURACY
   1.0     1    -4.977266687E-01  5.190767460E-01 -1.958869132E+00  0.0E+00

 NUCLEAR CHARGE  6.0  SYMMETRY SPECIES            S    P
 N. ELECTRONS    6.0  NUMBER OF PRIMITIVE GTOS    8    4
                      NUMBER OF CONTRACTED GTOS   4    2
                      NUMBER OF CLOSED SHELLS     2    0
                      OPEN SHELL OCCUPATION       0    2

  ZNUC  SCFIT    TOTAL HF ENERGY   KINETIC ENERGY   VIRIAL THEOREM ACCURACY
   6.0     9    -3.766704647E+01  3.775180683E+01 -1.997754800E+00  1.1E-06

 NUCLEAR CHARGE  8.0  SYMMETRY SPECIES            S    P
 N. ELECTRONS    8.0  NUMBER OF PRIMITIVE GTOS    8    4
                      NUMBER OF CONTRACTED GTOS   4    2
                      NUMBER OF CLOSED SHELLS     2    0
                      OPEN SHELL OCCUPATION       0    4

  ZNUC  SCFIT    TOTAL HF ENERGY   KINETIC ENERGY   VIRIAL THEOREM ACCURACY
   8.0    12    -7.477373220E+01  7.477365593E+01 -2.000001020E+00  3.8E-06

 AAAAAAAAAAAAAAAAAAAAAAAAAAAAAAAAAAAAAAAAAAAAAAAAAAAAAAAAAAAAAAAAAAAAAAAAAAAAAAA

 CHARGE NORMALIZATION FACTOR   1.00000000
 TOTAL ATOMIC CHARGES:
   5.0000000   5.0000000   5.0000000   5.0000000   5.0000000   5.0000000
   5.0000000   5.0000000   5.0000000   5.0000000   5.0000000   5.0000000
   1.0000000   1.0000000   1.0000000   1.0000000   1.0000000   1.0000000
   1.0000000   1.0000000   1.0000000   1.0000000   1.0000000   1.0000000
   1.0000000   1.0000000   1.0000000   1.0000000   1.0000000   1.0000000
   1.0000000   1.0000000   1.0000000   1.0000000   1.0000000   1.0000000
   6.0000000   6.0000000   6.0000000   6.0000000   6.0000000   6.0000000
   6.0000000   6.0000000   6.0000000   6.0000000   6.0000000   6.0000000
   6.0000000   6.0000000   6.0000000   6.0000000   6.0000000   6.0000000
   6.0000000   6.0000000   6.0000000   6.0000000   6.0000000   6.0000000
   6.0000000   6.0000000   6.0000000   6.0000000   6.0000000   6.0000000
   6.0000000   6.0000000   6.0000000   6.0000000   6.0000000   6.0000000
   8.0000000   8.0000000   8.0000000   8.0000000   8.0000000   8.0000000
   8.0000000   8.0000000   8.0000000   8.0000000   8.0000000   8.0000000
 TTTTTTTTTTTTTTTTTTTTTTTTTTTTTT MOQGAD      TELAPSE       30.34 TCPU       59.11
 TTTTTTTTTTTTTTTTTTTTTTTTTTTTTT SHELLXN     TELAPSE       56.95 TCPU      909.66
 TTTTTTTTTTTTTTTTTTTTTTTTTTTTTT MONMO3      TELAPSE       57.64 TCPU      931.77
 NUMERICALLY INTEGRATED DENSITY    395.9997897618
 TTTTTTTTTTTTTTTTTTTTTTTTTTTTTT NUMDFT      TELAPSE       59.27 TCPU      983.68
 CYC   0 ETOT(AU) -2.591991486097E+03 DETOT -2.59E+03 tst  0.00E+00 PX  1.00E+00
 TTTTTTTTTTTTTTTTTTTTTTTTTTTTTT DIIS        TELAPSE       59.38 TCPU      987.31
 TTTTTTTTTTTTTTTTTTTTTTTTTTTTTT FDIK        TELAPSE       61.18 TCPU     1044.83
 INSULATING STATE
 TOP OF VALENCE BANDS -    BAND    198; K    3; EIG -2.9278999E-01 AU
 TOP OF VALENCE BANDS -    BAND    198; K    1; EIG -2.9279761E-01 AU
 BOTTOM OF VIRTUAL BANDS - BAND    199; K    1; EIG -1.7266347E-01 AU
 INDIRECT ENERGY BAND GAP:   3.2688 eV
 TTTTTTTTTTTTTTTTTTTTTTTTTTTTTT PDIG        TELAPSE       62.85 TCPU     1051.88
 CHARGE NORMALIZATION FACTOR   1.00000000
 TOTAL ATOMIC CHARGES:
   4.1366469   4.1159171   4.1190395   4.1270706   4.1192210   4.1273303
   4.1270373   4.1190510   4.1268480   4.1188717   4.1157445   4.1364006
   0.7860694   0.7869535   0.7870638   0.7861836   0.7863411   0.7860990
   0.7862137   0.7864582   0.7862405   0.7860598   0.7862296   0.7864012
   0.7862290   0.7860504   0.7861858   0.7863645   0.7863436   0.7861004
   0.7862803   0.7865258   0.7860199   0.7869034   0.7870568   0.7861759
   6.0623747   6.0502753   6.2761228   6.2681013   6.2680738   6.2760699
   6.2642978   6.2762852   6.2762172   6.2642045   6.0495023   6.0615609
   6.0460317   6.0630977   6.2688546   6.2713186   6.2713994   6.2688873
   6.2687395   6.2712740   6.2713838   6.2689138   6.0618009   6.0448040
   6.0627724   6.0506214   6.2640553   6.2760583   6.2766084   6.2645843
   6.2757419   6.2677404   6.2683438   6.2763396   6.0489817   6.0610675
   8.7065931   8.7074197   8.7066763   8.7075250   8.7084920   8.6999650
   8.7077984   8.7069844   8.7003419   8.7088674   8.7079361   8.7071668
 TTTTTTTTTTTTTTTTTTTTTTTTTTTTTT MOQGAD      TELAPSE       62.96 TCPU     1051.99
 TTTTTTTTTTTTTTTTTTTTTTTTTTTTTT SHELLXN     TELAPSE       90.65 TCPU     1935.51
 TTTTTTTTTTTTTTTTTTTTTTTTTTTTTT MONMO3      TELAPSE       91.34 TCPU     1957.59
 NUMERICALLY INTEGRATED DENSITY    395.9998164107
 TTTTTTTTTTTTTTTTTTTTTTTTTTTTTT NUMDFT      TELAPSE       92.99 TCPU     2010.44
 CYC   1 ETOT(AU) -2.577625651199E+03 DETOT  1.44E+01 tst  0.00E+00 PX  1.00E+00
 TTTTTTTTTTTTTTTTTTTTTTTTTTTTTT DIIS        TELAPSE       93.13 TCPU     2014.88
 DIIS TEST: 0.23063E+01 AT SCF   CYCLE   1 - MIX   30 %
 TTTTTTTTTTTTTTTTTTTTTTTTTTTTTT FDIK        TELAPSE       94.96 TCPU     2073.34
 INSULATING STATE
 TOP OF VALENCE BANDS -    BAND    198; K    3; EIG -1.9306139E-01 AU
 TOP OF VALENCE BANDS -    BAND    198; K    1; EIG -1.9309825E-01 AU
 BOTTOM OF VIRTUAL BANDS - BAND    199; K    1; EIG -9.3781973E-02 AU
 INDIRECT ENERGY BAND GAP:   2.7015 eV
 TTTTTTTTTTTTTTTTTTTTTTTTTTTTTT PDIG        TELAPSE       96.63 TCPU     2080.40
 CHARGE NORMALIZATION FACTOR   1.00000000
 TOTAL ATOMIC CHARGES:
   4.6747245   4.7048464   4.6910523   4.6750187   4.6909732   4.6750656
   4.6755845   4.6916440   4.6756145   4.6916584   4.7053953   4.6754059
   0.9222250   0.9249198   0.9250302   0.9222935   0.9222070   0.9252298
   0.9252842   0.9222246   0.9249250   0.9185363   0.9185715   0.9250779
   0.9249093   0.9185234   0.9185535   0.9250444   0.9221926   0.9252185
   0.9253577   0.9222969   0.9221633   0.9248551   0.9250356   0.9222595
   5.8864153   5.8470494   6.1452987   6.0878038   6.0884041   6.1458407
   6.1161060   6.1404951   6.1411576   6.1169341   5.8500004   5.8893138
   5.8208505   5.9124285   6.1100657   6.1358364   6.1367558   6.1108207
   6.1102853   6.1360536   6.1366042   6.1106948   5.9159529   5.8243382
   5.8863790   5.8469862   6.1161551   6.1405972   6.1410084   6.1167813
   6.1455429   6.0879761   6.0881742   6.1455519   5.8501519   5.8896019
   8.3461161   8.3596437   8.3465016   8.3600485   8.3745157   8.3385404
   8.3595290   8.3459602   8.3381983   8.3742740   8.3599604   8.3463831
 TTTTTTTTTTTTTTTTTTTTTTTTTTTTTT MOQGAD      TELAPSE       96.74 TCPU     2080.51
 TTTTTTTTTTTTTTTTTTTTTTTTTTTTTT SHELLXN     TELAPSE      124.43 TCPU     2963.95
 TTTTTTTTTTTTTTTTTTTTTTTTTTTTTT MONMO3      TELAPSE      125.12 TCPU     2986.06
 NUMERICALLY INTEGRATED DENSITY    395.9997817591
 TTTTTTTTTTTTTTTTTTTTTTTTTTTTTT NUMDFT      TELAPSE      126.77 TCPU     3038.79
 CYC   2 ETOT(AU) -2.578005205175E+03 DETOT -3.80E-01 tst  4.36E-03 PX  1.57E-01
 TTTTTTTTTTTTTTTTTTTTTTTTTTTTTT DIIS        TELAPSE      126.93 TCPU     3043.96
 DIIS TEST: 0.10249E+01 AT SCF   CYCLE   2 - DIIS ACTIVE - HISTORY:     2 CYCLES
 TTTTTTTTTTTTTTTTTTTTTTTTTTTTTT FDIK        TELAPSE      128.77 TCPU     3102.78
 INSULATING STATE
 TOP OF VALENCE BANDS -    BAND    198; K    3; EIG -2.1134774E-01 AU
 TOP OF VALENCE BANDS -    BAND    198; K    1; EIG -2.1139118E-01 AU
 BOTTOM OF VIRTUAL BANDS - BAND    199; K    1; EIG -8.9510988E-02 AU
 INDIRECT ENERGY BAND GAP:   3.3153 eV
 TTTTTTTTTTTTTTTTTTTTTTTTTTTTTT PDIG        TELAPSE      130.51 TCPU     3109.91
 CHARGE NORMALIZATION FACTOR   1.00000000
 TOTAL ATOMIC CHARGES:
   4.4664258   4.4648949   4.4616206   4.4606838   4.4616711   4.4608758
   4.4599712   4.4609935   4.4598341   4.4608175   4.4639955   4.4653978
   0.8973053   0.8877318   0.8877662   0.8975197   0.8893010   0.8967539
   0.8968517   0.8894021   0.8905680   0.8916429   0.8919633   0.8907010
   0.8906080   0.8917009   0.8918880   0.8906073   0.8892943   0.8967593
   0.8969075   0.8894683   0.8973064   0.8877303   0.8877156   0.8974280
   5.8952289   5.9058817   6.1617583   6.1732872   6.1724026   6.1608649
   6.1677856   6.1683017   6.1673886   6.1665230   5.9037964   5.8930934
   5.9143613   5.8943729   6.1735606   6.1597768   6.1586225   6.1727235
   6.1735900   6.1597780   6.1584902   6.1727052   5.8917355   5.9117471
   5.8956326   5.9062120   6.1677382   6.1682810   6.1675567   6.1666445
   6.1616668   6.1731836   6.1723952   6.1608296   5.9033912   5.8927593
   8.5185910   8.5203428   8.5187052   8.5205177   8.5219365   8.5115981
   8.5203779   8.5187347   8.5117723   8.5218250   8.5205065   8.5189232
 TTTTTTTTTTTTTTTTTTTTTTTTTTTTTT MOQGAD      TELAPSE      130.62 TCPU     3110.02
 TTTTTTTTTTTTTTTTTTTTTTTTTTTTTT SHELLXN     TELAPSE      158.29 TCPU     3993.04
 TTTTTTTTTTTTTTTTTTTTTTTTTTTTTT MONMO3      TELAPSE      158.98 TCPU     4015.13
 NUMERICALLY INTEGRATED DENSITY    395.9997829491
 TTTTTTTTTTTTTTTTTTTTTTTTTTTTTT NUMDFT      TELAPSE      160.64 TCPU     4067.99
 CYC   3 ETOT(AU) -2.578214545499E+03 DETOT -2.09E-01 tst  6.20E-04 PX  6.05E-02
 TTTTTTTTTTTTTTTTTTTTTTTTTTTTTT DIIS        TELAPSE      160.82 TCPU     4073.98
 DIIS TEST: 0.27976E-01 AT SCF   CYCLE   3 - DIIS ACTIVE - HISTORY:     3 CYCLES
 TTTTTTTTTTTTTTTTTTTTTTTTTTTTTT FDIK        TELAPSE      162.66 TCPU     4132.72
 INSULATING STATE
 TOP OF VALENCE BANDS -    BAND    198; K    3; EIG -2.1872938E-01 AU
 TOP OF VALENCE BANDS -    BAND    198; K    1; EIG -2.1875184E-01 AU
 BOTTOM OF VIRTUAL BANDS - BAND    199; K    1; EIG -9.9158328E-02 AU
 INDIRECT ENERGY BAND GAP:   3.2537 eV
 TTTTTTTTTTTTTTTTTTTTTTTTTTTTTT PDIG        TELAPSE      164.40 TCPU     4139.84
 CHARGE NORMALIZATION FACTOR   1.00000000
 TOTAL ATOMIC CHARGES:
   4.4768743   4.4779731   4.4708524   4.4683314   4.4708585   4.4684715
   4.4693920   4.4718386   4.4693079   4.4717141   4.4787589   4.4779420
   0.8773950   0.8812362   0.8814256   0.8773793   0.8775625   0.8802188
   0.8802725   0.8775528   0.8814919   0.8745752   0.8744765   0.8817452
   0.8815072   0.8745933   0.8744307   0.8816838   0.8775774   0.8802275
   0.8803309   0.8776002   0.8773783   0.8812102   0.8813948   0.8772905
   5.9698331   5.9269134   6.1794084   6.1339100   6.1356522   6.1809896
   6.1539579   6.1692858   6.1711075   6.1564538   5.9327144   5.9755092
   5.9037882   5.9948790   6.1431806   6.1721883   6.1745643   6.1448842
   6.1431393   6.1721625   6.1745540   6.1449381   6.0009695   5.9100535
   5.9698230   5.9268386   6.1538142   6.1692484   6.1711906   6.1565698
   6.1792705   6.1337089   6.1357782   6.1810569   5.9327610   5.9756859
   8.4921394   8.5044085   8.4924235   8.5047565   8.5156802   8.4832288
   8.5047090   8.4922312   8.4830991   8.5159716   8.5050901   8.4926080
 TTTTTTTTTTTTTTTTTTTTTTTTTTTTTT MOQGAD      TELAPSE      164.52 TCPU     4139.95
 TTTTTTTTTTTTTTTTTTTTTTTTTTTTTT SHELLXN     TELAPSE      192.19 TCPU     5023.27
 TTTTTTTTTTTTTTTTTTTTTTTTTTTTTT MONMO3      TELAPSE      192.88 TCPU     5045.35
 NUMERICALLY INTEGRATED DENSITY    395.9997856147
 TTTTTTTTTTTTTTTTTTTTTTTTTTTTTT NUMDFT      TELAPSE      194.53 TCPU     5098.04
 CYC   4 ETOT(AU) -2.578219283382E+03 DETOT -4.74E-03 tst  7.46E-05 PX  2.50E-02
 TTTTTTTTTTTTTTTTTTTTTTTTTTTTTT DIIS        TELAPSE      194.74 TCPU     5104.56
 DIIS TEST: 0.11072E-01 AT SCF   CYCLE   4 - DIIS ACTIVE - HISTORY:     4 CYCLES
 TTTTTTTTTTTTTTTTTTTTTTTTTTTTTT FDIK        TELAPSE      196.57 TCPU     5163.09
 INSULATING STATE
 TOP OF VALENCE BANDS -    BAND    198; K    3; EIG -2.1890788E-01 AU
 TOP OF VALENCE BANDS -    BAND    198; K    1; EIG -2.1892918E-01 AU
 BOTTOM OF VIRTUAL BANDS - BAND    199; K    1; EIG -9.8369384E-02 AU
 INDIRECT ENERGY BAND GAP:   3.2800 eV
 TTTTTTTTTTTTTTTTTTTTTTTTTTTTTT PDIG        TELAPSE      198.23 TCPU     5170.13
 CHARGE NORMALIZATION FACTOR   1.00000000
 TOTAL ATOMIC CHARGES:
   4.4740808   4.4818908   4.4749988   4.4697541   4.4750264   4.4699357
   4.4688590   4.4742609   4.4687437   4.4741183   4.4809644   4.4729038
   0.8818198   0.8787943   0.8788399   0.8821291   0.8782066   0.8822901
   0.8824529   0.8783982   0.8793634   0.8776400   0.8780540   0.8794824
   0.8793773   0.8776686   0.8780041   0.8794152   0.8781962   0.8822925
   0.8825139   0.8784693   0.8817895   0.8787645   0.8788110   0.8820571
   5.9371238   5.9268479   6.1734704   6.1568247   6.1551132   6.1718041
   6.1651728   6.1774106   6.1755886   6.1626352   5.9222878   5.9326098
   5.9207841   5.9460282   6.1678782   6.1683309   6.1662425   6.1663954
   6.1680118   6.1684228   6.1660530   6.1662852   5.9413445   5.9159462
   5.9374736   5.9271287   6.1651328   6.1774032   6.1756888   6.1626919
   6.1735027   6.1568296   6.1550243   6.1716755   5.9219691   5.9323790
   8.4992587   8.5047337   8.4994112   8.5049453   8.5113839   8.4926839
   8.5045284   8.4992788   8.4927251   8.5109470   8.5047203   8.4995062
 TTTTTTTTTTTTTTTTTTTTTTTTTTTTTT MOQGAD      TELAPSE      198.34 TCPU     5170.24
 TTTTTTTTTTTTTTTTTTTTTTTTTTTTTT SHELLXN     TELAPSE      226.01 TCPU     6053.33
 TTTTTTTTTTTTTTTTTTTTTTTTTTTTTT MONMO3      TELAPSE      226.70 TCPU     6075.41
 NUMERICALLY INTEGRATED DENSITY    395.9997856462
 TTTTTTTTTTTTTTTTTTTTTTTTTTTTTT NUMDFT      TELAPSE      228.35 TCPU     6128.08
 CYC   5 ETOT(AU) -2.578221878652E+03 DETOT -2.60E-03 tst  3.12E-05 PX  1.31E-02
 TTTTTTTTTTTTTTTTTTTTTTTTTTTTTT DIIS        TELAPSE      228.58 TCPU     6134.93
 DIIS TEST: 0.70357E-03 AT SCF   CYCLE   5 - DIIS ACTIVE - HISTORY:     5 CYCLES
 TTTTTTTTTTTTTTTTTTTTTTTTTTTTTT FDIK        TELAPSE      230.41 TCPU     6193.37
 INSULATING STATE
 TOP OF VALENCE BANDS -    BAND    198; K    3; EIG -2.1794483E-01 AU
 TOP OF VALENCE BANDS -    BAND    198; K    1; EIG -2.1796649E-01 AU
 BOTTOM OF VIRTUAL BANDS - BAND    199; K    1; EIG -9.7715502E-02 AU
 INDIRECT ENERGY BAND GAP:   3.2716 eV
 TTTTTTTTTTTTTTTTTTTTTTTTTTTTTT PDIG        TELAPSE      232.09 TCPU     6200.42
 CHARGE NORMALIZATION FACTOR   1.00000000
 TOTAL ATOMIC CHARGES:
   4.4748686   4.4791099   4.4727893   4.4690049   4.4728004   4.4691559
   4.4703806   4.4740095   4.4702925   4.4738814   4.4800765   4.4762098
   0.8831712   0.8807822   0.8809794   0.8830726   0.8796657   0.8844792
   0.8844814   0.8795885   0.8823167   0.8791273   0.8789640   0.8825995
   0.8823442   0.8791629   0.8789048   0.8825234   0.8796742   0.8844839
   0.8845418   0.8796417   0.8831635   0.8807634   0.8809442   0.8829800
   5.9327850   5.9139668   6.1739499   6.1525918   6.1551237   6.1762628
   6.1608561   6.1711562   6.1739090   6.1646517   5.9221900   5.9407918
   5.9047378   5.9459108   6.1587652   6.1683553   6.1715436   6.1610643
   6.1586685   6.1682611   6.1715592   6.1611675   5.9538216   5.9129476
   5.9328736   5.9139952   6.1607516   6.1711364   6.1740209   6.1647744
   6.1737666   6.1523650   6.1552534   6.1763486   5.9221158   5.9408308
   8.5003179   8.5073310   8.5005627   8.5076420   8.5138105   8.4922557
   8.5078184   8.5004791   8.4922398   8.5144090   8.5081243   8.5008052
 TTTTTTTTTTTTTTTTTTTTTTTTTTTTTT MOQGAD      TELAPSE      232.20 TCPU     6200.54
 TTTTTTTTTTTTTTTTTTTTTTTTTTTTTT SHELLXN     TELAPSE      259.87 TCPU     7083.66
 TTTTTTTTTTTTTTTTTTTTTTTTTTTTTT MONMO3      TELAPSE      260.56 TCPU     7105.74
 NUMERICALLY INTEGRATED DENSITY    395.9997855135
 TTTTTTTTTTTTTTTTTTTTTTTTTTTTTT NUMDFT      TELAPSE      262.21 TCPU     7158.45
 CYC   6 ETOT(AU) -2.578221922572E+03 DETOT -4.39E-05 tst  6.36E-06 PX  3.97E-03
 TTTTTTTTTTTTTTTTTTTTTTTTTTTTTT DIIS        TELAPSE      262.46 TCPU     7165.27
 DIIS TEST: 0.57530E-03 AT SCF   CYCLE   6 - DIIS ACTIVE - HISTORY:     6 CYCLES
 TTTTTTTTTTTTTTTTTTTTTTTTTTTTTT FDIK        TELAPSE      264.29 TCPU     7223.58
 INSULATING STATE
 TOP OF VALENCE BANDS -    BAND    198; K    3; EIG -2.1804885E-01 AU
 TOP OF VALENCE BANDS -    BAND    198; K    1; EIG -2.1807050E-01 AU
 BOTTOM OF VIRTUAL BANDS - BAND    199; K    1; EIG -9.7698873E-02 AU
 INDIRECT ENERGY BAND GAP:   3.2749 eV
 TTTTTTTTTTTTTTTTTTTTTTTTTTTTTT PDIG        TELAPSE      265.97 TCPU     7230.64
 CHARGE NORMALIZATION FACTOR   1.00000000
 TOTAL ATOMIC CHARGES:
   4.4757895   4.4799999   4.4736222   4.4699361   4.4736437   4.4701027
   4.4695069   4.4732886   4.4694039   4.4731514   4.4794693   4.4751730
   0.8830392   0.8809211   0.8810023   0.8832586   0.8796579   0.8842940
   0.8844252   0.8797943   0.8821812   0.8789332   0.8792006   0.8823311
   0.8821995   0.8789617   0.8791491   0.8822627   0.8796584   0.8843004
   0.8844831   0.8798547   0.8830200   0.8808983   0.8809688   0.8831759
   5.9388029   5.9209025   6.1746798   6.1532870   6.1525099   6.1738949
   6.1628633   6.1733797   6.1724967   6.1616123   5.9190933   5.9370119
   5.9117711   5.9514460   6.1607200   6.1694500   6.1685947   6.1601120
   6.1607796   6.1694944   6.1684718   6.1600689   5.9497643   5.9100160
   5.9390316   5.9210606   6.1627755   6.1733522   6.1726126   6.1617143
   6.1746258   6.1531947   6.1525139   6.1738554   5.9188920   5.9369096
   8.4995629   8.5066706   8.4997524   8.5069236   8.5137745   8.4919550
   8.5066345   8.4996352   8.4919508   8.5135321   8.5068824   8.4999067
 TTTTTTTTTTTTTTTTTTTTTTTTTTTTTT MOQGAD      TELAPSE      266.08 TCPU     7230.75
 TTTTTTTTTTTTTTTTTTTTTTTTTTTTTT SHELLXN     TELAPSE      293.75 TCPU     8114.05
 TTTTTTTTTTTTTTTTTTTTTTTTTTTTTT MONMO3      TELAPSE      294.44 TCPU     8136.14
 NUMERICALLY INTEGRATED DENSITY    395.9997854476
 TTTTTTTTTTTTTTTTTTTTTTTTTTTTTT NUMDFT      TELAPSE      296.10 TCPU     8189.01
 CYC   7 ETOT(AU) -2.578222048252E+03 DETOT -1.26E-04 tst  1.76E-06 PX  1.68E-03
 TTTTTTTTTTTTTTTTTTTTTTTTTTTTTT DIIS        TELAPSE      296.37 TCPU     8195.89
 DIIS TEST: 0.63282E-04 AT SCF   CYCLE   7 - DIIS ACTIVE - HISTORY:     7 CYCLES
 TTTTTTTTTTTTTTTTTTTTTTTTTTTTTT FDIK        TELAPSE      298.21 TCPU     8254.22
 INSULATING STATE
 TOP OF VALENCE BANDS -    BAND    198; K    3; EIG -2.1817359E-01 AU
 TOP OF VALENCE BANDS -    BAND    198; K    1; EIG -2.1819519E-01 AU
 BOTTOM OF VIRTUAL BANDS - BAND    199; K    1; EIG -9.7761156E-02 AU
 INDIRECT ENERGY BAND GAP:   3.2766 eV
 TTTTTTTTTTTTTTTTTTTTTTTTTTTTTT PDIG        TELAPSE      299.97 TCPU     8261.37
 CHARGE NORMALIZATION FACTOR   1.00000000
 TOTAL ATOMIC CHARGES:
   4.4752653   4.4801639   4.4736792   4.4696909   4.4737004   4.4698584
   4.4697493   4.4737623   4.4696456   4.4736251   4.4800301   4.4751495
   0.8830132   0.8807082   0.8808183   0.8831495   0.8795943   0.8840860
   0.8841787   0.8796700   0.8817948   0.8789077   0.8790705   0.8819808
   0.8818145   0.8789386   0.8790172   0.8819105   0.8795933   0.8840905
   0.8842386   0.8797322   0.8829937   0.8806845   0.8807855   0.8830675
   5.9373279   5.9206854   6.1737131   6.1529888   6.1530647   6.1737275
   6.1621811   6.1733865   6.1735095   6.1623232   5.9215593   5.9381422
   5.9120714   5.9494250   6.1613651   6.1683390   6.1685021   6.1614995
   6.1614070   6.1683617   6.1683947   6.1614737   5.9501400   5.9128085
   5.9375592   5.9208498   6.1621060   6.1733691   6.1736162   6.1624129
   6.1736547   6.1528936   6.1530710   6.1736908   5.9213537   5.9380367
   8.4992977   8.5060670   8.4994918   8.5063234   8.5131085   8.4919198
   8.5061521   8.4993759   8.4919348   8.5131103   8.5063997   8.4996496
 TTTTTTTTTTTTTTTTTTTTTTTTTTTTTT MOQGAD      TELAPSE      300.08 TCPU     8261.48
 TTTTTTTTTTTTTTTTTTTTTTTTTTTTTT SHELLXN     TELAPSE      327.76 TCPU     9144.82
 TTTTTTTTTTTTTTTTTTTTTTTTTTTTTT MONMO3      TELAPSE      328.45 TCPU     9166.92
 NUMERICALLY INTEGRATED DENSITY    395.9997854374
 TTTTTTTTTTTTTTTTTTTTTTTTTTTTTT NUMDFT      TELAPSE      330.11 TCPU     9219.83
 CYC   8 ETOT(AU) -2.578222064343E+03 DETOT -1.61E-05 tst  1.78E-07 PX  6.59E-04
 TTTTTTTTTTTTTTTTTTTTTTTTTTTTTT DIIS        TELAPSE      330.40 TCPU     9226.68
 DIIS TEST: 0.14596E-05 AT SCF   CYCLE   8 - DIIS ACTIVE - HISTORY:     8 CYCLES
 TTTTTTTTTTTTTTTTTTTTTTTTTTTTTT FDIK        TELAPSE      332.23 TCPU     9284.79
 INSULATING STATE
 TOP OF VALENCE BANDS -    BAND    198; K    3; EIG -2.1817179E-01 AU
 TOP OF VALENCE BANDS -    BAND    198; K    1; EIG -2.1819339E-01 AU
 BOTTOM OF VIRTUAL BANDS - BAND    199; K    1; EIG -9.7792378E-02 AU
 INDIRECT ENERGY BAND GAP:   3.2757 eV
 TTTTTTTTTTTTTTTTTTTTTTTTTTTTTT PDIG        TELAPSE      333.98 TCPU     9291.91
 CHARGE NORMALIZATION FACTOR   1.00000000
 TOTAL ATOMIC CHARGES:
   4.4752736   4.4803288   4.4738245   4.4697478   4.4738433   4.4699122
   4.4697650   4.4738767   4.4696645   4.4737418   4.4801710   4.4751319
   0.8829603   0.8806717   0.8807801   0.8831021   0.8795488   0.8840533
   0.8841537   0.8796331   0.8817946   0.8788695   0.8790378   0.8819791
   0.8818151   0.8789008   0.8789839   0.8819083   0.8795495   0.8840581
   0.8842133   0.8796936   0.8829425   0.8806486   0.8807470   0.8830183
   5.9373288   5.9205349   6.1738706   6.1531498   6.1531754   6.1738349
   6.1623287   6.1733772   6.1733744   6.1623069   5.9211491   5.9379007
   5.9117865   5.9494465   6.1612917   6.1685168   6.1686146   6.1613689
   6.1613134   6.1685220   6.1685268   6.1613628   5.9500298   5.9123901
   5.9375343   5.9206745   6.1622473   6.1733581   6.1734828   6.1624029
   6.1737927   6.1530343   6.1532019   6.1738183   5.9209676   5.9378212
   8.4994088   8.5061993   8.4996108   8.5064646   8.5131281   8.4919094
   8.5062858   8.4994976   8.4919027   8.5130888   8.5065429   8.4997796
 TTTTTTTTTTTTTTTTTTTTTTTTTTTTTT MOQGAD      TELAPSE      334.09 TCPU     9292.03
 TTTTTTTTTTTTTTTTTTTTTTTTTTTTTT SHELLXN     TELAPSE      361.76 TCPU    10175.12
 TTTTTTTTTTTTTTTTTTTTTTTTTTTTTT MONMO3      TELAPSE      362.45 TCPU    10197.21
 NUMERICALLY INTEGRATED DENSITY    395.9997854348
 TTTTTTTTTTTTTTTTTTTTTTTTTTTTTT NUMDFT      TELAPSE      364.10 TCPU    10249.91
 CYC   9 ETOT(AU) -2.578222064396E+03 DETOT -5.26E-08 tst  1.79E-09 PX  1.03E-04
 TTTTTTTTTTTTTTTTTTTTTTTTTTTTTT DIIS        TELAPSE      364.42 TCPU    10256.85
 DIIS TEST: 0.69675E-07 AT SCF   CYCLE   9 - DIIS ACTIVE - HISTORY:     9 CYCLES
 TTTTTTTTTTTTTTTTTTTTTTTTTTTTTT FDIK        TELAPSE      366.25 TCPU    10315.11
 INSULATING STATE
 TOP OF VALENCE BANDS -    BAND    198; K    3; EIG -2.1817369E-01 AU
 TOP OF VALENCE BANDS -    BAND    198; K    1; EIG -2.1819529E-01 AU
 BOTTOM OF VIRTUAL BANDS - BAND    199; K    1; EIG -9.7787107E-02 AU
 INDIRECT ENERGY BAND GAP:   3.2759 eV
 TTTTTTTTTTTTTTTTTTTTTTTTTTTTTT PDIG        TELAPSE      367.91 TCPU    10322.15
 CHARGE NORMALIZATION FACTOR   1.00000000
 TOTAL ATOMIC CHARGES:
   4.4753021   4.4802730   4.4737684   4.4697344   4.4737898   4.4699023
   4.4697606   4.4738232   4.4696565   4.4736859   4.4801121   4.4751501
   0.8829576   0.8806793   0.8807882   0.8831013   0.8795576   0.8840568
   0.8841514   0.8796372   0.8817939   0.8788654   0.8790354   0.8819765
   0.8818127   0.8788952   0.8789831   0.8819072   0.8795567   0.8840620
   0.8842107   0.8796992   0.8829377   0.8806556   0.8807555   0.8830197
   5.9373110   5.9205263   6.1738898   6.1531073   6.1531140   6.1738409
   6.1622866   6.1733648   6.1734322   6.1623468   5.9212171   5.9379438
   5.9118873   5.9494823   6.1612800   6.1685291   6.1686229   6.1613672
   6.1613329   6.1685634   6.1685051   6.1613302   5.9500102   5.9124300
   5.9375477   5.9206945   6.1622089   6.1733444   6.1735418   6.1624391
   6.1738376   6.1530182   6.1531141   6.1737981   5.9210071   5.9378330
   8.4993866   8.5061910   8.4995770   8.5064439   8.5131897   8.4919431
   8.5062633   8.4994611   8.4919640   8.5131810   8.5065080   8.4997314
 TTTTTTTTTTTTTTTTTTTTTTTTTTTTTT MOQGAD      TELAPSE      368.02 TCPU    10322.26
 TTTTTTTTTTTTTTTTTTTTTTTTTTTTTT SHELLXN     TELAPSE      395.70 TCPU    11205.57
 +++ ENERGIES IN A.U. +++
 ::: EXT EL-POLE                                  -2.9578353935150E+03
 ::: EXT EL-SPHEROPOLE                             3.3692891954472E+01
 ::: BIELET ZONE E-E                               4.8755107182220E+03
 ::: TOTAL E-E                                     1.9513682166615E+03
 ::: TOTAL E-N + N-E                              -7.5509451436748E+03
 ::: TOTAL N-N                                     7.2888425051172E+02
 ::: KINETIC ENERGY                                2.5599242328431E+03
 ::: PSEUDO TOTAL   ENERGY                        -2.3107684436585E+03
 ::: VIRIAL COEFFICIENT                            1.0511540771986E+00
 TTTTTTTTTTTTTTTTTTTTTTTTTTTTTT MONMO3      TELAPSE      396.39 TCPU    11227.67
 NUMERICALLY INTEGRATED DENSITY    395.9997854337
 EXCHANGE ENERGY: -0.252035824160E+03  CORRELATION ENERGY: -0.154177966292E+02
 TTTTTTTTTTTTTTTTTTTTTTTTTTTTTT NUMDFT      TELAPSE      398.04 TCPU    11280.39
 CYC  10 ETOT(AU) -2.578222064447E+03 DETOT -5.13E-08 tst  6.31E-11 PX  1.03E-04

 == SCF ENDED - CONVERGENCE ON ENERGY      E(AU) -2.5782220644474E+03 CYCLES  10


 ENERGY EXPRESSION=HARTREE+FOCK EXCH*0.00000+(HSESOL     EXCH)*1.00000+PBESOL     CORR


 TOTAL ENERGY(DFT)(AU)( 10) -2.5782220644474E+03 DE-5.1E-08 tester 6.3E-11
 TTTTTTTTTTTTTTTTTTTTTTTTTTTTTT EDFT        TELAPSE      398.04 TCPU    11280.40
 
 INFORMATION **** DFTD3 ENERGY **** CALCULATE DFTD3 ENERGY

           DFT-D V3(BJ)
 DF                                         hsesol3c  
 parameters
 s6       :    1.0000
 s8       :    0.0000
 a1       :    0.5196
 a2       :    4.9385
 k1 k3    :   16.0000   -4.0000
 Cutoff   :   50.2022
 CN-Cutoff:   21.1671
 ABC-Cutoff:   21.1671
 
 Edisp /kcal,au:   -62.9439 -0.10030752

 E6    /kcal :   -67.5104
 E8    /kcal :     0.0000
 E6(ABC) "   :   4.566517
 
 INFORMATION **** DFTD3 ENERGY **** NORMAL TERMINATION OF DFTD3 MODULE

 GCP ENERGY CALCULATION
  level        hsesol3c            basis:hsesol3c
  Nbf            948
  Atoms           84

  Parameters: 
  sigma     1.0000
  eta       1.4281
  alpha     0.2936
  beta      1.9467

  dmp_scal      4.0000
  dmp_exp       6.0000
 cutoffs: 
   distance [bohr] 60.0
   noise    [a.u.] 2.2E-16
 SR-damping   T
 ** gCP correction **
  Egcp:        0.1680638810 / (a.u.) ||     105.4617 / (kcal/mol)
 INFORMATION **** GCP **** NORMAL TERMINATION OF GCP MODULE

 *******************************************************************************

 DFT-D3-GCP DISPERSION AND COUNTERPOISE CORRECTION

 D3 DISPERSION ENERGY (AU)      -1.0030752169996E-01
 GCP ENERGY (AU)                 1.6806388097597E-01
 TOTAL ENERGY + DISP + GCP (AU) -2.5781543080881E+03

 *******************************************************************************

 EIGENVECTORS IN FORTRAN UNIT  8
 TTTTTTTTTTTTTTTTTTTTTTTTTTTTTT END         TELAPSE      401.51 TCPU    11289.79
 EEEEEEEEEE TERMINATION  DATE 19 02 2026 TIME 20:10:02.1
