 Default number of threads is:           32

         
 *******************************************************************************
 *                                                                             *
 *                               CRYSTAL23                                     *
 *                      public : 1.0.1 - October 2022                          *
 *                       HTTP://WWW.CRYSTAL.UNITO.IT                           *
 *                                                                             *
 *                              MAIN AUTHORS                                   *
 *                                                                             *
 *  R. DOVESI(1,11), V.R. SAUNDERS(2), C. ROETTI(1,11), R. ORLANDO(1,11),      *
 *  C.M. ZICOVICH-WILSON(1,3), F. PASCALE(4), B. CIVALLERI(1,11),              *
 *  K. DOLL(5), N.M. HARRISON(6), I.J. BUSH(7), Ph. D'ARCO(8),                 *
 *  M. LLUNELL(9), M. CAUSA'(10), Y. NOEL(8), L. MASCHIO(1,11), A. ERBA(1,11)  *
 *  M. RE'RAT(14), S. CASASSA(1,11), B.G. SEARLE(2), J.K. DESMARAIS(1)         *
 *                                                                             *
 *        CONTRIBUTIONS TO THE CODE HAVE ALSO BEEN GIVEN BY                    *
 *                                                                             *
 *  M. FERRABONE(1,11), M. DE LA PIERRE(1,11), M. FERRERO(1,11),               *
 *  J. BAIMA(1,11), E. ALBANESE(1,11), M.F. PEINTINGER(12), R. BAST(13),       *
 *  B. KIRTMAN(15), V. LACIVITA(1,11), R. DEMICHELIS(1,16)                     *
 *  G. BRANDEBURG(17), S. SALUSTRO(1,11), G. SANSONE(1,11)                     *
 *  M.T. RUGGIERO(18), L.E. DAGA(1), L. DONA'(1), A. COSSARD(1)                *
 *                                                                             *
 * (1) THEORETICAL CHEMISTRY GROUP - UNIVERSITA' DI TORINO - TORINO (ITALY)    *
 * (2) SCIENTIFIC COMPUTING DEPARTMENT - STFC DARESBURY (UK)                   *
 * (3) UNIVERSIDAD AUTONOMA DEL ESTADO DE MORELOS - CUERNAVACA (MEXICO)        *
 * (4) UNIVERSITE' DE LORRAINE - NANCY (FRANCE)                                *
 * (5) UNIVERSITAET STUTTGART- STUTTGART (GERMANY)                             *
 * (6) IMPERIAL COLLEGE - LONDON (UK)                                          *
 * (7) SCIENTIFIC COMPUTING DEPARTMENT - STFC RAL (UK)                         *
 * (8) UPMC - SORBONNE UNIVERSITES - PARIS (FRANCE)                            *
 * (9) UNIVERSIDAD DE BARCELONA - BARCELONA (SPAIN)                            *
 *(10) UNIVERSITA' DI NAPOLI "FEDERICO II" - NAPOLI (ITALY)                    *
 *(11) NIS - NANOSTRUCTURED INTERFACES AND SURFACES - TORINO (ITALY)           *
 *(12) MPI FUER CHEMISCHE ENERGIEKONVERSION - MUELHEIM AN DER RUHR (GERMANY)   *
 *(13) UNIVERSITY OF TROMSO - TROMSO (NORWAY)                                  *
 *(14) UNIVERSITE' DE PAU ET DES PAYS DE L'ADOUR - PAU (FRANCE)                *
 *(15) UNIVERSITY OF CALIFORNIA SANTA BARBARA - SANTA BARBARA (USA)            *
 *(16) CURTIN UNIVERSITY - PERTH (AUSTRALIA)                                   *
 *(17) UNIVERSITY COLLEGE LONDON - LONDON (UK)                                 *
 *(18) UNIVERSITY OF VERMONT - BURLINGTON (USA)                                *
 *                                                                             *
 *******************************************************************************
 EEEEEEEEEE STARTING  DATE 19 02 2026 TIME 20:22:23.1
 cof-1_z39_L080_serr                                                             

 CRYSTAL CALCULATION
 (INPUT ACCORDING TO THE INTERNATIONAL TABLES FOR X-RAY CRYSTALLOGRAPHY)
 CRYSTAL FAMILY                       :  TRICLINIC   
 CRYSTAL CLASS  (GROTH - 1921)        :  TRICLINIC PEDIAL                     

 SPACE GROUP (NONCENTROSYMMETRIC)     :  P 1             

 LATTICE PARAMETERS  (ANGSTROMS AND DEGREES) - CONVENTIONAL CELL
        A           B           C        ALPHA        BETA       GAMMA
    15.02361    15.02392     7.80000    90.00032    89.99994   119.99596


 NUMBER OF IRREDUCIBLE ATOMS IN THE CONVENTIONAL CELL:   84

 INPUT COORDINATES

 ATOM AT. N.              COORDINATES
   1   5     6.136805400000E-01  2.273182200000E-01  2.506124000000E-01
   2   5     9.210667600000E-01  8.421531600000E-01  7.506124000000E-01
   3   5     7.727362000000E-01  3.863778800000E-01  2.506124100000E-01
   4   5     8.012242000000E-02  1.212820000000E-03  7.506124100000E-01
   5   5     6.136762700000E-01  3.863606700000E-01  2.493248200000E-01
   6   5     9.210624900000E-01  1.195610000000E-03  7.493248200000E-01
   7   5     2.272552500000E-01  6.136332200000E-01  2.506124100000E-01
   8   5     5.346414700000E-01  2.284681600000E-01  7.506124100000E-01
   9   5     3.863632200000E-01  6.136124500000E-01  2.506124100000E-01
  10   5     6.937494400000E-01  2.284473900000E-01  7.506124100000E-01
  11   5     3.863435000000E-01  7.727516500000E-01  2.493248200000E-01
  12   5     6.937297200000E-01  3.875865900000E-01  7.493248200000E-01
  13   1     9.030436200000E-01  3.089300500000E-01  2.479429800000E-01
  14   1     2.104298400000E-01  9.237649900000E-01  7.479429800000E-01
  15   1     9.663453000000E-02  6.910534400000E-01  2.475347800000E-01
  16   1     4.040207500000E-01  3.058883800000E-01  7.475347800000E-01
  17   1     9.029714200000E-01  5.940724300000E-01  2.474719500000E-01
  18   1     2.103576400000E-01  2.089073700000E-01  7.474719500000E-01
  19   1     9.673618000000E-02  4.056849400000E-01  2.474876200000E-01
  20   1     4.041224000000E-01  2.051988000000E-02  7.474876200000E-01
  21   1     6.910324000000E-01  9.700412000000E-02  2.520570400000E-01
  22   1     9.984186200000E-01  7.118390600000E-01  7.520570400000E-01
  23   1     3.089297200000E-01  9.034373100000E-01  2.524652700000E-01
  24   1     6.163159400000E-01  5.182722500000E-01  7.524652700000E-01
  25   1     4.058699900000E-01  9.704998000000E-02  2.525281300000E-01
  26   1     7.132562100000E-01  7.118849200000E-01  7.525281300000E-01
  27   1     5.943122100000E-01  9.033473200000E-01  2.525123600000E-01
  28   1     9.016984300000E-01  5.181822600000E-01  7.525123600000E-01
  29   1     6.910727400000E-01  5.940542100000E-01  2.479430000000E-01
  30   1     9.984589600000E-01  2.088891500000E-01  7.479430000000E-01
  31   1     3.089618300000E-01  4.056093300000E-01  2.475347500000E-01
  32   1     6.163480500000E-01  2.044427000000E-02  7.475347500000E-01
  33   1     4.058405700000E-01  3.088232500000E-01  2.474719000000E-01
  34   1     7.132267900000E-01  9.236581900000E-01  7.474719000000E-01
  35   1     5.942908800000E-01  6.909579300000E-01  2.474876700000E-01
  36   1     9.016771000000E-01  3.057928700000E-01  7.474876700000E-01
  37   6     8.918903100000E-01  4.459436900000E-01  2.492777100000E-01
  38   6     1.992765300000E-01  6.077863000000E-02  7.492777100000E-01
  39   6     9.464891100000E-01  3.927856300000E-01  2.480058000000E-01
  40   6     2.538753300000E-01  7.620570000000E-03  7.480058000000E-01
  41   6     5.338812000000E-02  6.071853000000E-01  2.478959200000E-01
  42   6     3.607743400000E-01  2.220202400000E-01  7.478959200000E-01
  43   6     9.464521100000E-01  5.536921900000E-01  2.482256700000E-01
  44   6     2.538383300000E-01  1.685271300000E-01  7.482256700000E-01
  45   6     5.342634000000E-02  4.462499700000E-01  2.473777100000E-01
  46   6     3.608125600000E-01  6.108491000000E-02  7.473777100000E-01
  47   6     1.080358900000E-01  5.540356300000E-01  2.482413600000E-01
  48   6     4.154221100000E-01  1.688705700000E-01  7.482413600000E-01
  49   6     5.540394200000E-01  1.081684600000E-01  2.507223300000E-01
  50   6     8.614256400000E-01  7.230034000000E-01  7.507223300000E-01
  51   6     6.071778500000E-01  5.355594000000E-02  2.519942200000E-01
  52   6     9.145640700000E-01  6.683908800000E-01  7.519942200000E-01
  53   6     3.927986700000E-01  9.466631600000E-01  2.521041300000E-01
  54   6     7.001848900000E-01  5.614981000000E-01  7.521041300000E-01
  55   6     4.462875800000E-01  5.360286000000E-02  2.517744000000E-01
  56   6     7.536738000000E-01  6.684378000000E-01  7.517744000000E-01
  57   6     5.537168500000E-01  9.466235600000E-01  2.526223000000E-01
  58   6     8.611030700000E-01  5.614585000000E-01  7.526223000000E-01
  59   6     4.459279100000E-01  8.919920600000E-01  2.517586700000E-01
  60   6     7.533141300000E-01  5.068270000000E-01  7.517586800000E-01
  61   6     5.540448700000E-01  4.458745500000E-01  2.492777100000E-01
  62   6     8.614310900000E-01  6.070949000000E-02  7.492777100000E-01
  63   6     6.072102200000E-01  5.536257800000E-01  2.480058200000E-01
  64   6     9.145964400000E-01  1.684607200000E-01  7.480058200000E-01
  65   6     3.928233700000E-01  4.461720300000E-01  2.478959000000E-01
  66   6     7.002095900000E-01  6.100697000000E-02  7.478959000000E-01
  67   6     4.462872600000E-01  3.926899900000E-01  2.482256300000E-01
  68   6     7.536734800000E-01  7.524930000000E-03  7.482256300000E-01
  69   6     5.537429600000E-01  6.070980000000E-01  2.473777400000E-01
  70   6     8.611291800000E-01  2.219329400000E-01  7.473777400000E-01
  71   6     4.459599800000E-01  5.539582300000E-01  2.482413600000E-01
  72   6     7.533462000000E-01  1.687931700000E-01  7.482413600000E-01
  73   8     5.607366800000E-01  2.803706300000E-01  2.496702700000E-01
  74   8     8.681229000000E-01  8.952055700000E-01  7.496702700000E-01
  75   8     7.196817000000E-01  2.803783300000E-01  2.523867700000E-01
  76   8     2.706792000000E-02  8.952132700000E-01  7.523867700000E-01
  77   8     7.196794200000E-01  4.393234600000E-01  2.482884700000E-01
  78   8     2.706564000000E-02  5.415840000000E-02  7.482884700000E-01
  79   8     2.803245100000E-01  7.196511100000E-01  2.496702800000E-01
  80   8     5.877107300000E-01  3.344860500000E-01  7.496702800000E-01
  81   8     2.803439700000E-01  5.606956100000E-01  2.523867600000E-01
  82   8     5.877301900000E-01  1.755305500000E-01  7.523867600000E-01
  83   8     4.392638400000E-01  7.196354200000E-01  2.482884600000E-01
  84   8     7.466500600000E-01  3.344703600000E-01  7.482884600000E-01

 *******************************************************************************

 << INFORMATION >>: FROM NOW ON, ALL COORDINATES REFER TO THE PRIMITIVE CELL

 *******************************************************************************

 LATTICE PARAMETERS  (ANGSTROMS AND DEGREES) - PRIMITIVE CELL
       A          B          C        ALPHA      BETA     GAMMA        VOLUME
   15.02361   15.02392    7.80000    90.00032  89.99994 119.99596   1524.756075

 COORDINATES OF THE EQUIVALENT ATOMS (FRACTIONAL UNITS)

 N. ATOM EQUIV AT. N.          X                  Y                  Z

   1   1   1    5 B    -3.86319460000E-01  2.27318220000E-01  2.50612400000E-01

   2   2   1    5 B    -7.89332400000E-02 -1.57846840000E-01 -2.49387600000E-01

   3   3   1    5 B    -2.27263800000E-01  3.86377880000E-01  2.50612410000E-01

   4   4   1    5 B     8.01224200000E-02  1.21282000000E-03 -2.49387590000E-01

   5   5   1    5 B    -3.86323730000E-01  3.86360670000E-01  2.49324820000E-01

   6   6   1    5 B    -7.89375100000E-02  1.19561000000E-03 -2.50675180000E-01

   7   7   1    5 B     2.27255250000E-01 -3.86366780000E-01  2.50612410000E-01

   8   8   1    5 B    -4.65358530000E-01  2.28468160000E-01 -2.49387590000E-01

   9   9   1    5 B     3.86363220000E-01 -3.86387550000E-01  2.50612410000E-01

  10  10   1    5 B    -3.06250560000E-01  2.28447390000E-01 -2.49387590000E-01

  11  11   1    5 B     3.86343500000E-01 -2.27248350000E-01  2.49324820000E-01

  12  12   1    5 B    -3.06270280000E-01  3.87586590000E-01 -2.50675180000E-01

  13  13   1    1 H    -9.69563800000E-02  3.08930050000E-01  2.47942980000E-01

  14  14   1    1 H     2.10429840000E-01 -7.62350100000E-02 -2.52057020000E-01

  15  15   1    1 H     9.66345300000E-02 -3.08946560000E-01  2.47534780000E-01

  16  16   1    1 H     4.04020750000E-01  3.05888380000E-01 -2.52465220000E-01

  17  17   1    1 H    -9.70285800000E-02 -4.05927570000E-01  2.47471950000E-01

  18  18   1    1 H     2.10357640000E-01  2.08907370000E-01 -2.52528050000E-01

  19  19   1    1 H     9.67361800000E-02  4.05684940000E-01  2.47487620000E-01

  20  20   1    1 H     4.04122400000E-01  2.05198800000E-02 -2.52512380000E-01

  21  21   1    1 H    -3.08967600000E-01  9.70041200000E-02  2.52057040000E-01

  22  22   1    1 H    -1.58138000000E-03 -2.88160940000E-01 -2.47942960000E-01

  23  23   1    1 H     3.08929720000E-01 -9.65626900000E-02  2.52465270000E-01

  24  24   1    1 H    -3.83684060000E-01 -4.81727750000E-01 -2.47534730000E-01

  25  25   1    1 H     4.05869990000E-01  9.70499800000E-02  2.52528130000E-01

  26  26   1    1 H    -2.86743790000E-01 -2.88115080000E-01 -2.47471870000E-01

  27  27   1    1 H    -4.05687790000E-01 -9.66526800000E-02  2.52512360000E-01

  28  28   1    1 H    -9.83015700000E-02 -4.81817740000E-01 -2.47487640000E-01

  29  29   1    1 H    -3.08927260000E-01 -4.05945790000E-01  2.47943000000E-01

  30  30   1    1 H    -1.54104000000E-03  2.08889150000E-01 -2.52057000000E-01

  31  31   1    1 H     3.08961830000E-01  4.05609330000E-01  2.47534750000E-01

  32  32   1    1 H    -3.83651950000E-01  2.04442700000E-02 -2.52465250000E-01

  33  33   1    1 H     4.05840570000E-01  3.08823250000E-01  2.47471900000E-01

  34  34   1    1 H    -2.86773210000E-01 -7.63418100000E-02 -2.52528100000E-01

  35  35   1    1 H    -4.05709120000E-01 -3.09042070000E-01  2.47487670000E-01

  36  36   1    1 H    -9.83229000000E-02  3.05792870000E-01 -2.52512330000E-01

  37  37   1    6 C    -1.08109690000E-01  4.45943690000E-01  2.49277710000E-01

  38  38   1    6 C     1.99276530000E-01  6.07786300000E-02 -2.50722290000E-01

  39  39   1    6 C    -5.35108900000E-02  3.92785630000E-01  2.48005800000E-01

  40  40   1    6 C     2.53875330000E-01  7.62057000000E-03 -2.51994200000E-01

  41  41   1    6 C     5.33881200000E-02 -3.92814700000E-01  2.47895920000E-01

  42  42   1    6 C     3.60774340000E-01  2.22020240000E-01 -2.52104080000E-01

  43  43   1    6 C    -5.35478900000E-02 -4.46307810000E-01  2.48225670000E-01

  44  44   1    6 C     2.53838330000E-01  1.68527130000E-01 -2.51774330000E-01

  45  45   1    6 C     5.34263400000E-02  4.46249970000E-01  2.47377710000E-01

  46  46   1    6 C     3.60812560000E-01  6.10849100000E-02 -2.52622290000E-01

  47  47   1    6 C     1.08035890000E-01 -4.45964370000E-01  2.48241360000E-01

  48  48   1    6 C     4.15422110000E-01  1.68870570000E-01 -2.51758640000E-01

  49  49   1    6 C    -4.45960580000E-01  1.08168460000E-01  2.50722330000E-01

  50  50   1    6 C    -1.38574360000E-01 -2.76996600000E-01 -2.49277670000E-01

  51  51   1    6 C    -3.92822150000E-01  5.35559400000E-02  2.51994220000E-01

  52  52   1    6 C    -8.54359300000E-02 -3.31609120000E-01 -2.48005780000E-01

  53  53   1    6 C     3.92798670000E-01 -5.33368400000E-02  2.52104130000E-01

  54  54   1    6 C    -2.99815110000E-01 -4.38501900000E-01 -2.47895870000E-01

  55  55   1    6 C     4.46287580000E-01  5.36028600000E-02  2.51774400000E-01

  56  56   1    6 C    -2.46326200000E-01 -3.31562200000E-01 -2.48225600000E-01

  57  57   1    6 C    -4.46283150000E-01 -5.33764400000E-02  2.52622300000E-01

  58  58   1    6 C    -1.38896930000E-01 -4.38541500000E-01 -2.47377700000E-01

  59  59   1    6 C     4.45927910000E-01 -1.08007940000E-01  2.51758670000E-01

  60  60   1    6 C    -2.46685870000E-01 -4.93173000000E-01 -2.48241320000E-01

  61  61   1    6 C    -4.45955130000E-01  4.45874550000E-01  2.49277710000E-01

  62  62   1    6 C    -1.38568910000E-01  6.07094900000E-02 -2.50722290000E-01

  63  63   1    6 C    -3.92789780000E-01 -4.46374220000E-01  2.48005820000E-01

  64  64   1    6 C    -8.54035600000E-02  1.68460720000E-01 -2.51994180000E-01

  65  65   1    6 C     3.92823370000E-01  4.46172030000E-01  2.47895900000E-01

  66  66   1    6 C    -2.99790410000E-01  6.10069700000E-02 -2.52104100000E-01

  67  67   1    6 C     4.46287260000E-01  3.92689990000E-01  2.48225630000E-01

  68  68   1    6 C    -2.46326520000E-01  7.52493000000E-03 -2.51774370000E-01

  69  69   1    6 C    -4.46257040000E-01 -3.92902000000E-01  2.47377740000E-01

  70  70   1    6 C    -1.38870820000E-01  2.21932940000E-01 -2.52622260000E-01

  71  71   1    6 C     4.45959980000E-01 -4.46041770000E-01  2.48241360000E-01

  72  72   1    6 C    -2.46653800000E-01  1.68793170000E-01 -2.51758640000E-01

  73  73   1    8 O    -4.39263320000E-01  2.80370630000E-01  2.49670270000E-01

  74  74   1    8 O    -1.31877100000E-01 -1.04794430000E-01 -2.50329730000E-01

  75  75   1    8 O    -2.80318300000E-01  2.80378330000E-01  2.52386770000E-01

  76  76   1    8 O     2.70679200000E-02 -1.04786730000E-01 -2.47613230000E-01

  77  77   1    8 O    -2.80320580000E-01  4.39323460000E-01  2.48288470000E-01

  78  78   1    8 O     2.70656400000E-02  5.41584000000E-02 -2.51711530000E-01

  79  79   1    8 O     2.80324510000E-01 -2.80348890000E-01  2.49670280000E-01

  80  80   1    8 O    -4.12289270000E-01  3.34486050000E-01 -2.50329720000E-01

  81  81   1    8 O     2.80343970000E-01 -4.39304390000E-01  2.52386760000E-01

  82  82   1    8 O    -4.12269810000E-01  1.75530550000E-01 -2.47613240000E-01

  83  83   1    8 O     4.39263840000E-01 -2.80364580000E-01  2.48288460000E-01

  84  84   1    8 O    -2.53349940000E-01  3.34470360000E-01 -2.51711540000E-01

 NUMBER OF SYMMETRY OPERATORS         :    1
 *******************************************************************************
 * GEOMETRY EDITING - INPUT COORDINATES ARE GIVEN IN ANGSTROM         
 *******************************************************************************

 GCALCO - MAX INDICES DIRECT LATTICE VECTOR    12    12    21
 NO.OF VECTORS CREATED 6999 STARS 3500 RMAX   257.20960 BOHR

 GEOMETRY FOR WAVE FUNCTION - DIMENSIONALITY OF THE SYSTEM    3
 (NON PERIODIC DIRECTION: LATTICE PARAMETER FORMALLY SET TO 500)
 *******************************************************************************
 LATTICE PARAMETERS (ANGSTROMS AND DEGREES) - BOHR = 0.5291772083 ANGSTROM
 PRIMITIVE CELL - CENTRING CODE 1/0 VOLUME=  1524.756075 - DENSITY  0.850 g/cm^3
         A              B              C           ALPHA      BETA       GAMMA 
    15.02361100    15.02391600     7.80000000    90.000323  89.999944 119.995964
 *******************************************************************************
 ATOMS IN THE ASYMMETRIC UNIT   84 - ATOMS IN THE UNIT CELL:   84
     ATOM                 X/A                 Y/B                 Z/C    
 *******************************************************************************
      1 T   5 B    -3.863194600000E-01  2.273182200000E-01  2.506124000000E-01
      2 T   5 B    -7.893324000000E-02 -1.578468400000E-01 -2.493876000000E-01
      3 T   5 B    -2.272638000000E-01  3.863778800000E-01  2.506124100000E-01
      4 T   5 B     8.012242000000E-02  1.212820000000E-03 -2.493875900000E-01
      5 T   5 B    -3.863237300000E-01  3.863606700000E-01  2.493248200000E-01
      6 T   5 B    -7.893751000000E-02  1.195610000000E-03 -2.506751800000E-01
      7 T   5 B     2.272552500000E-01 -3.863667800000E-01  2.506124100000E-01
      8 T   5 B    -4.653585300000E-01  2.284681600000E-01 -2.493875900000E-01
      9 T   5 B     3.863632200000E-01 -3.863875500000E-01  2.506124100000E-01
     10 T   5 B    -3.062505600000E-01  2.284473900000E-01 -2.493875900000E-01
     11 T   5 B     3.863435000000E-01 -2.272483500000E-01  2.493248200000E-01
     12 T   5 B    -3.062702800000E-01  3.875865900000E-01 -2.506751800000E-01
     13 T   1 H    -9.695638000000E-02  3.089300500000E-01  2.479429800000E-01
     14 T   1 H     2.104298400000E-01 -7.623501000000E-02 -2.520570200000E-01
     15 T   1 H     9.663453000000E-02 -3.089465600000E-01  2.475347800000E-01
     16 T   1 H     4.040207500000E-01  3.058883800000E-01 -2.524652200000E-01
     17 T   1 H    -9.702858000000E-02 -4.059275700000E-01  2.474719500000E-01
     18 T   1 H     2.103576400000E-01  2.089073700000E-01 -2.525280500000E-01
     19 T   1 H     9.673618000000E-02  4.056849400000E-01  2.474876200000E-01
     20 T   1 H     4.041224000000E-01  2.051988000000E-02 -2.525123800000E-01
     21 T   1 H    -3.089676000000E-01  9.700412000000E-02  2.520570400000E-01
     22 T   1 H    -1.581380000000E-03 -2.881609400000E-01 -2.479429600000E-01
     23 T   1 H     3.089297200000E-01 -9.656269000000E-02  2.524652700000E-01
     24 T   1 H    -3.836840600000E-01 -4.817277500000E-01 -2.475347300000E-01
     25 T   1 H     4.058699900000E-01  9.704998000000E-02  2.525281300000E-01
     26 T   1 H    -2.867437900000E-01 -2.881150800000E-01 -2.474718700000E-01
     27 T   1 H    -4.056877900000E-01 -9.665268000000E-02  2.525123600000E-01
     28 T   1 H    -9.830157000000E-02 -4.818177400000E-01 -2.474876400000E-01
     29 T   1 H    -3.089272600000E-01 -4.059457900000E-01  2.479430000000E-01
     30 T   1 H    -1.541040000000E-03  2.088891500000E-01 -2.520570000000E-01
     31 T   1 H     3.089618300000E-01  4.056093300000E-01  2.475347500000E-01
     32 T   1 H    -3.836519500000E-01  2.044427000000E-02 -2.524652500000E-01
     33 T   1 H     4.058405700000E-01  3.088232500000E-01  2.474719000000E-01
     34 T   1 H    -2.867732100000E-01 -7.634181000000E-02 -2.525281000000E-01
     35 T   1 H    -4.057091200000E-01 -3.090420700000E-01  2.474876700000E-01
     36 T   1 H    -9.832290000000E-02  3.057928700000E-01 -2.525123300000E-01
     37 T   6 C    -1.081096900000E-01  4.459436900000E-01  2.492777100000E-01
     38 T   6 C     1.992765300000E-01  6.077863000000E-02 -2.507222900000E-01
     39 T   6 C    -5.351089000000E-02  3.927856300000E-01  2.480058000000E-01
     40 T   6 C     2.538753300000E-01  7.620570000000E-03 -2.519942000000E-01
     41 T   6 C     5.338812000000E-02 -3.928147000000E-01  2.478959200000E-01
     42 T   6 C     3.607743400000E-01  2.220202400000E-01 -2.521040800000E-01
     43 T   6 C    -5.354789000000E-02 -4.463078100000E-01  2.482256700000E-01
     44 T   6 C     2.538383300000E-01  1.685271300000E-01 -2.517743300000E-01
     45 T   6 C     5.342634000000E-02  4.462499700000E-01  2.473777100000E-01
     46 T   6 C     3.608125600000E-01  6.108491000000E-02 -2.526222900000E-01
     47 T   6 C     1.080358900000E-01 -4.459643700000E-01  2.482413600000E-01
     48 T   6 C     4.154221100000E-01  1.688705700000E-01 -2.517586400000E-01
     49 T   6 C    -4.459605800000E-01  1.081684600000E-01  2.507223300000E-01
     50 T   6 C    -1.385743600000E-01 -2.769966000000E-01 -2.492776700000E-01
     51 T   6 C    -3.928221500000E-01  5.355594000000E-02  2.519942200000E-01
     52 T   6 C    -8.543593000000E-02 -3.316091200000E-01 -2.480057800000E-01
     53 T   6 C     3.927986700000E-01 -5.333684000000E-02  2.521041300000E-01
     54 T   6 C    -2.998151100000E-01 -4.385019000000E-01 -2.478958700000E-01
     55 T   6 C     4.462875800000E-01  5.360286000000E-02  2.517744000000E-01
     56 T   6 C    -2.463262000000E-01 -3.315622000000E-01 -2.482256000000E-01
     57 T   6 C    -4.462831500000E-01 -5.337644000000E-02  2.526223000000E-01
     58 T   6 C    -1.388969300000E-01 -4.385415000000E-01 -2.473777000000E-01
     59 T   6 C     4.459279100000E-01 -1.080079400000E-01  2.517586700000E-01
     60 T   6 C    -2.466858700000E-01 -4.931730000000E-01 -2.482413200000E-01
     61 T   6 C    -4.459551300000E-01  4.458745500000E-01  2.492777100000E-01
     62 T   6 C    -1.385689100000E-01  6.070949000000E-02 -2.507222900000E-01
     63 T   6 C    -3.927897800000E-01 -4.463742200000E-01  2.480058200000E-01
     64 T   6 C    -8.540356000000E-02  1.684607200000E-01 -2.519941800000E-01
     65 T   6 C     3.928233700000E-01  4.461720300000E-01  2.478959000000E-01
     66 T   6 C    -2.997904100000E-01  6.100697000000E-02 -2.521041000000E-01
     67 T   6 C     4.462872600000E-01  3.926899900000E-01  2.482256300000E-01
     68 T   6 C    -2.463265200000E-01  7.524930000000E-03 -2.517743700000E-01
     69 T   6 C    -4.462570400000E-01 -3.929020000000E-01  2.473777400000E-01
     70 T   6 C    -1.388708200000E-01  2.219329400000E-01 -2.526222600000E-01
     71 T   6 C     4.459599800000E-01 -4.460417700000E-01  2.482413600000E-01
     72 T   6 C    -2.466538000000E-01  1.687931700000E-01 -2.517586400000E-01
     73 T   8 O    -4.392633200000E-01  2.803706300000E-01  2.496702700000E-01
     74 T   8 O    -1.318771000000E-01 -1.047944300000E-01 -2.503297300000E-01
     75 T   8 O    -2.803183000000E-01  2.803783300000E-01  2.523867700000E-01
     76 T   8 O     2.706792000000E-02 -1.047867300000E-01 -2.476132300000E-01
     77 T   8 O    -2.803205800000E-01  4.393234600000E-01  2.482884700000E-01
     78 T   8 O     2.706564000000E-02  5.415840000000E-02 -2.517115300000E-01
     79 T   8 O     2.803245100000E-01 -2.803488900000E-01  2.496702800000E-01
     80 T   8 O    -4.122892700000E-01  3.344860500000E-01 -2.503297200000E-01
     81 T   8 O     2.803439700000E-01 -4.393043900000E-01  2.523867600000E-01
     82 T   8 O    -4.122698100000E-01  1.755305500000E-01 -2.476132400000E-01
     83 T   8 O     4.392638400000E-01 -2.803645800000E-01  2.482884600000E-01
     84 T   8 O    -2.533499400000E-01  3.344703600000E-01 -2.517115400000E-01

 T = ATOM BELONGING TO THE ASYMMETRIC UNIT

 ****    1 SYMMOPS - TRANSLATORS IN FRACTIONAL UNITS
 **** MATRICES AND TRANSLATORS IN THE CRYSTALLOGRAPHIC REFERENCE FRAME
   V INV                    ROTATION MATRICES                   TRANSLATORS
   1   1  1.00 -0.00  0.00  0.00  1.00  0.00 -0.00 -0.00  1.00  0.00  0.00  0.00

 DIRECT LATTICE VECTORS CARTESIAN COMPONENTS (ANGSTROM)
          X                    Y                    Z
   0.130113578931E+02  -0.751088897922E+01   0.000000000000E+00
   0.000000000000E+00   0.150239160000E+02   0.000000000000E+00
  -0.165804004088E-04  -0.439718251730E-04   0.779999999986E+01


 CARTESIAN COORDINATES - PRIMITIVE CELL
 *******************************************************************************
 *      ATOM          X(ANGSTROM)         Y(ANGSTROM)         Z(ANGSTROM)
 *******************************************************************************
    1     5 B    -5.026544910366E+00  6.316801397236E+00  1.954776719965E+00
    2     5 B    -1.027024500352E+00 -1.778607896588E+00 -1.945223279965E+00
    3     5 B    -2.957014793190E+00  7.511850964288E+00  1.954776797965E+00
    4     5 B     1.042505616824E+00 -5.835583295355E-01 -1.945223201965E+00
    5     5 B    -5.026600447516E+00 -6.317642065417E+00  1.944733595965E+00
    6     5 B    -1.027080037502E+00  6.108646407597E-01 -1.955266403965E+00
    7     5 B     2.956895235572E+00 -7.511642020490E+00  1.954776797965E+00
    8     5 B     6.956415645586E+00 -5.831353143130E-01 -1.945223201965E+00
    9     5 B     5.027105976880E+00  6.316919634397E+00  1.954776797965E+00
   10     5 B    -3.984731506163E+00  5.732399319790E+00 -1.945223201965E+00
   11     5 B     5.026849414251E+00 -6.315954221148E+00  1.944733595965E+00
   12     5 B    -3.984988068792E+00 -6.900474535755E+00 -1.955266403965E+00
   13     1 H    -1.261538271189E+00  5.369556824577E+00  1.933955243965E+00
   14     1 H     2.737982138825E+00 -2.725852469246E+00 -1.966044755964E+00
   15     1 H     1.257342350432E+00 -5.367409276874E+00  1.930771283965E+00
   16     1 H     5.256862760446E+00  1.561097429303E+00 -1.969228715964E+00
   17     1 H    -1.262477683419E+00 -5.369861703366E+00  1.930281209965E+00
   18     1 H     2.737042726595E+00  1.558645002810E+00 -1.969718789964E+00
   19     1 H     1.258664955743E+00  5.368390870289E+00  1.930403435965E+00
   20     1 H     5.258185365757E+00 -2.727018423534E+00 -1.969596563964E+00
   21     1 H    -4.020092200165E+00  3.777992008901E+00  1.966044911964E+00
   22     1 H    -2.057179015137E-02 -4.317417284923E+00 -1.933955087965E+00
   23     1 H     4.019590964746E+00 -3.771097673953E+00  1.969229105964E+00
   24     1 H    -4.992246518296E+00 -4.355617988560E+00 -1.930770893965E+00
   25     1 H     5.280915510924E+00 -1.590384791687E+00  1.969719413964E+00
   26     1 H    -3.730921972119E+00 -2.174905106294E+00 -1.930280585965E+00
   27     1 H    -5.278553215289E+00  1.594963101989E+00  1.969596407964E+00
   28     1 H    -1.279032805275E+00 -6.500446191834E+00 -1.930403591965E+00
   29     1 H    -4.019567253776E+00 -3.778587999506E+00  1.933955399965E+00
   30     1 H    -2.004684376153E-02  3.149918706670E+00 -1.966044599964E+00
   31     1 H     4.020008841198E+00  3.773251614236E+00  1.930771049965E+00
   32     1 H    -4.991828641844E+00  3.188731299629E+00 -1.969228949964E+00
   33     1 H     5.280532800609E+00  1.591500220524E+00  1.930280819965E+00
   34     1 H    -3.731304682434E+00  1.006979905917E+00 -1.969719179964E+00
   35     1 H    -5.278830664242E+00 -1.595796824455E+00  1.930403825965E+00
   36     1 H    -1.279310254228E+00  5.332709881722E+00 -1.969596173964E+00
   37     6 C    -1.406658001422E+00  7.511809457262E+00  1.944366137965E+00
   38     6 C     2.592862408592E+00 -5.835998365617E-01 -1.955633861965E+00
   39     6 C    -6.962534530014E-01  6.303081759828E+00  1.934445239965E+00
   40     6 C     3.303266957013E+00 -1.792327533995E+00 -1.965554759964E+00
   41     6 C     6.946478263438E-01 -6.302618198930E+00  1.933588175965E+00
   42     6 C     4.694168236358E+00  6.258885072463E-01 -1.966411823964E+00
   43     6 C    -6.967348768890E-01 -6.303109705658E+00  1.936160225965E+00
   44     6 C     3.302785533125E+00  6.253970005182E-01 -1.963839773964E+00
   45     6 C     6.951451290346E-01  6.303131878327E+00  1.929546137965E+00
   46     6 C     4.694665539049E+00 -1.792277415496E+00 -1.970453861964E+00
   47     6 C     1.405689514144E+00 -7.511587725059E+00  1.936282607965E+00
   48     6 C     5.405209924158E+00 -5.830810188828E-01 -1.963717391964E+00
   49     6 C     7.208801023405E+00 -2.536225741559E+00  1.955634173965E+00
   50     6 C    -1.803036459638E+00 -3.120746056166E+00 -1.944365825965E+00
   51     6 C    -5.111153760135E+00  3.755052420442E+00  1.965554915964E+00
   52     6 C    -1.111633350121E+00 -4.340356873381E+00 -1.934445083965E+00
   53     6 C     5.110839895299E+00 -3.751606490898E+00  1.966412213964E+00
   54     6 C    -3.900997587743E+00 -4.336126805505E+00 -1.933587785965E+00
   55     6 C     5.806803252086E+00 -2.546702671163E+00  1.963840319964E+00
   56     6 C    -3.205034230957E+00 -3.131222985770E+00 -1.936159679965E+00
   57     6 C    -5.806753974870E+00  2.550048933742E+00  1.970453939964E+00
   58     6 C    -1.807233564856E+00 -5.545360360081E+00 -1.929546059965E+00
   59     6 C     5.802123457253E+00 -4.972028312925E+00  1.963717625964E+00
   60     6 C    -3.209714025790E+00 -5.556548627533E+00 -1.936282295965E+00
   61     6 C     7.208871959258E+00  2.537401316468E+00  1.944366137965E+00
   62     6 C    -1.802965523785E+00  1.952881001861E+00 -1.955633861965E+00
   63     6 C    -5.110732516351E+00 -3.756099261363E+00  1.934445395965E+00
   64     6 C    -1.111212106337E+00  3.172407444813E+00 -1.965554603964E+00
   65     6 C     5.111161345613E+00  3.752787479323E+00  1.933588019965E+00
   66     6 C    -3.900676137429E+00  3.168267164716E+00 -1.966411979964E+00
   67     6 C     5.806799147291E+00  2.547716446168E+00  1.936159913965E+00
   68     6 C    -3.205038335751E+00  1.963196131561E+00 -1.963840085964E+00
   69     6 C    -5.806414161358E+00 -2.551150438249E+00  1.929546371965E+00
   70     6 C    -1.806893751344E+00  4.377356267928E+00 -1.970453627964E+00
   71     6 C     5.802540789819E+00  4.973055100449E+00  1.936282607965E+00
   72     6 C    -3.209296693223E+00  4.388534785842E+00 -1.963717391964E+00
   73     8 O     7.295941487611E+00  6.228654751916E-04  1.947428105965E+00
   74     8 O    -1.715895995431E+00 -5.838974491317E-01 -1.952571893965E+00
   75     8 O    -3.647325909947E+00  6.317809010376E+00  1.968616805964E+00
   76     8 O     3.521945000671E-01 -1.777600283447E+00 -1.931383193965E+00
   77     8 O    -3.647355507891E+00 -6.318111402858E+00  1.936650065965E+00
   78     8 O     3.521649021226E-01  6.103953033184E-01 -1.963349933964E+00
   79     8 O     3.647398386173E+00 -6.317435425274E+00  1.947428183965E+00
   80     8 O     7.646918796187E+00  6.110712809022E-01 -1.952571815965E+00
   81     8 O     3.647651542157E+00  6.318200213639E+00  1.968616727964E+00
   82     8 O     7.647171952171E+00 -1.777209080184E+00 -1.931383271965E+00
   83     8 O    -7.295942978060E+00 -5.577725998786E-04  1.936649987965E+00
   84     8 O    -3.296422568046E+00  6.927948933577E+00 -1.963350011964E+00

 *******************************************************************************
 STARTING BASIS SET HANDLING 
 *******************************************************************************

 Loading internal basis set: SOLDEF2MSVP         

 Please cite in your publication:
 L. Dona', J. G. Brandenburg and B. Civalleri, J. Chem. Phys., 151, 121101 (2019
 )                                                                              
                                                                                
                    

 *******************************************************************************
 LOCAL ATOMIC FUNCTIONS BASIS SET
 *******************************************************************************
   ATOM   X(AU)   Y(AU)   Z(AU)  N. TYPE  EXPONENT  S COEF   P COEF   D/F/G COEF
 *******************************************************************************
   1 B   -9.499  11.937   3.694
                                  1 S  
                                         2.410E+03 1.755E-03 0.000E+00 0.000E+00
                                         3.619E+02 1.344E-02 0.000E+00 0.000E+00
                                         8.231E+01 6.637E-02 0.000E+00 0.000E+00
                                         2.311E+01 2.303E-01 0.000E+00 0.000E+00
                                         7.252E+00 5.150E-01 0.000E+00 0.000E+00
                                  2 S  
                                         2.367E+00 1.000E+00 0.000E+00 0.000E+00
                                  3 S  
                                         5.533E-01 1.000E+00 0.000E+00 0.000E+00
                                  4 S  
                                         1.716E-01 1.000E+00 0.000E+00 0.000E+00
                           5-     7 P  
                                         6.002E+00 0.000E+00-3.555E-02 0.000E+00
                                         1.240E+00 0.000E+00-1.983E-01 0.000E+00
                                         3.367E-01 0.000E+00-5.048E-01 0.000E+00
                           8-    10 P  
                                         1.256E-01 0.000E+00 1.000E+00 0.000E+00
                          11-    15 D  
                                         8.880E-01 0.000E+00 0.000E+00 1.000E+00
   2 B   -1.941  -3.361  -3.676
   3 B   -5.588  14.195   3.694
   4 B    1.970  -1.103  -3.676
   5 B   -9.499 -11.939   3.675
   6 B   -1.941   1.154  -3.695
   7 B    5.588 -14.195   3.694
   8 B   13.146  -1.102  -3.676
   9 B    9.500  11.937   3.694
  10 B   -7.530  10.833  -3.676
  11 B    9.499 -11.935   3.675
  12 B   -7.531 -13.040  -3.695
  13 H   -2.384  10.147   3.655
                                181 S  
                                         1.874E+01 1.968E-02 0.000E+00 0.000E+00
                                         2.826E+00 1.380E-01 0.000E+00 0.000E+00
                                         6.401E-01 4.783E-01 0.000E+00 0.000E+00
                                182 S  
                                         1.756E-01 1.000E+00 0.000E+00 0.000E+00
  14 H    5.174  -5.151  -3.715
  15 H    2.376 -10.143   3.649
  16 H    9.934   2.950  -3.721
  17 H   -2.386 -10.148   3.648
  18 H    5.172   2.945  -3.722
  19 H    2.379  10.145   3.648
  20 H    9.937  -5.153  -3.722
  21 H   -7.597   7.139   3.715
  22 H   -0.039  -8.159  -3.655
  23 H    7.596  -7.126   3.721
  24 H   -9.434  -8.231  -3.649
  25 H    9.979  -3.005   3.722
  26 H   -7.050  -4.110  -3.648
  27 H   -9.975   3.014   3.722
  28 H   -2.417 -12.284  -3.648
  29 H   -7.596  -7.140   3.655
  30 H   -0.038   5.952  -3.715
  31 H    7.597   7.130   3.649
  32 H   -9.433   6.026  -3.721
  33 H    9.979   3.007   3.648
  34 H   -7.051   1.903  -3.722
  35 H   -9.976  -3.016   3.648
  36 H   -2.418  10.077  -3.722
  37 C   -2.658  14.195   3.674
                                229 S  
                                         3.624E+03 1.634E-03 0.000E+00 0.000E+00
                                         5.440E+02 1.252E-02 0.000E+00 0.000E+00
                                         1.237E+02 6.211E-02 0.000E+00 0.000E+00
                                         3.476E+01 2.182E-01 0.000E+00 0.000E+00
                                         1.093E+01 4.980E-01 0.000E+00 0.000E+00
                                230 S  
                                         3.574E+00 1.000E+00 0.000E+00 0.000E+00
                                231 S  
                                         7.742E-01 1.000E+00 0.000E+00 0.000E+00
                                232 S  
                                         2.330E-01 1.000E+00 0.000E+00 0.000E+00
                         233-   235 P  
                                         9.443E+00 0.000E+00 3.790E-02 0.000E+00
                                         2.002E+00 0.000E+00 2.082E-01 0.000E+00
                                         5.463E-01 0.000E+00 5.047E-01 0.000E+00
                         236-   238 P  
                                         1.820E-01 0.000E+00 1.000E+00 0.000E+00
                         239-   243 D  
                                         8.880E-01 0.000E+00 0.000E+00 1.000E+00
  38 C    4.900  -1.103  -3.696
  39 C   -1.316  11.911   3.656
  40 C    6.242  -3.387  -3.714
  41 C    1.313 -11.910   3.654
  42 C    8.871   1.183  -3.716
  43 C   -1.317 -11.911   3.659
  44 C    6.241   1.182  -3.711
  45 C    1.314  11.911   3.646
  46 C    8.872  -3.387  -3.724
  47 C    2.656 -14.195   3.659
  48 C   10.214  -1.102  -3.711
  49 C   13.623  -4.793   3.696
  50 C   -3.407  -5.897  -3.674
  51 C   -9.659   7.096   3.714
  52 C   -2.101  -8.202  -3.656
  53 C    9.658  -7.090   3.716
  54 C   -7.372  -8.194  -3.654
  55 C   10.973  -4.813   3.711
  56 C   -6.057  -5.917  -3.659
  57 C  -10.973   4.819   3.724
  58 C   -3.415 -10.479  -3.646
  59 C   10.964  -9.396   3.711
  60 C   -6.065 -10.500  -3.659
  61 C   13.623   4.795   3.674
  62 C   -3.407   3.690  -3.696
  63 C   -9.658  -7.098   3.656
  64 C   -2.100   5.995  -3.714
  65 C    9.659   7.092   3.654
  66 C   -7.371   5.987  -3.716
  67 C   10.973   4.814   3.659
  68 C   -6.057   3.710  -3.711
  69 C  -10.973  -4.821   3.646
  70 C   -3.415   8.272  -3.724
  71 C   10.965   9.398   3.659
  72 C   -6.065   8.293  -3.711
  73 O   13.787   0.001   3.680
                                769 S  
                                         6.773E+03 1.727E-03 0.000E+00 0.000E+00
                                         1.017E+03 1.325E-02 0.000E+00 0.000E+00
                                         2.313E+02 6.603E-02 0.000E+00 0.000E+00
                                         6.501E+01 2.353E-01 0.000E+00 0.000E+00
                                         2.050E+01 5.498E-01 0.000E+00 0.000E+00
                                770 S  
                                         6.716E+00 1.000E+00 0.000E+00 0.000E+00
                                771 S  
                                         1.147E+00 1.000E+00 0.000E+00 0.000E+00
                                772 S  
                                         3.342E-01 1.000E+00 0.000E+00 0.000E+00
                         773-   775 P  
                                         1.769E+01 0.000E+00 4.359E-02 0.000E+00
                                         3.854E+00 0.000E+00 2.318E-01 0.000E+00
                                         1.047E+00 0.000E+00 5.146E-01 0.000E+00
                         776-   778 P  
                                         2.759E-01 0.000E+00 1.000E+00 0.000E+00
                         779-   783 D  
                                         8.000E-01 0.000E+00 0.000E+00 1.000E+00
  74 O   -3.243  -1.103  -3.690
  75 O   -6.892  11.939   3.720
  76 O    0.666  -3.359  -3.650
  77 O   -6.893 -11.940   3.660
  78 O    0.665   1.153  -3.710
  79 O    6.893 -11.938   3.680
  80 O   14.451   1.155  -3.690
  81 O    6.893  11.940   3.720
  82 O   14.451  -3.358  -3.650
  83 O  -13.787  -0.001   3.660
  84 O   -6.229  13.092  -3.710

 *******************************************************************************
 FINISHED BASIS SET HANDLING 
 *******************************************************************************

 INFORMATION **** SET_MPP **** PCRYSTAL CALCULATION
 INFORMATION **** READM2 **** NEW DEFAULT: FOCK/KS MATRIX MIXING SET TO 30 %
 INFORMATION **** READM2 **** NEW DEFAULT: FULL DIRECT SCF MODE
 INFORMATION **** READM2 **** NEW DEFAULT: COULOMB BIPOLAR BUFFER SET TO 32 Mb
 INFORMATION **** READM2 **** NEW DEFAULT: EXCHANGE BIPOLAR BUFFER SET TO 32 Mb

 *******************************************************************************
 NEW DEFAULT: DFT INTEGRATION GRID INCREASED TO XLGRID
 NEW DEFAULT: DIIS ACCELERATOR ACTIVE
 USE KEYWORD NODIIS TO TURN IT OFF
 *******************************************************************************

 WARNING **** RDDFTP **** HSEsol-HJS ACTIVE
 RANGE SEPARATION - OMEGA:   0.110000000000000     
 WARNING **** RDDFTP **** HSEsol-3c has to be combined with sol-def2-mSVP basis set
 *******************************************************************************
 N. OF ATOMS PER CELL        84  COULOMB OVERLAP TOL         (T1) 10**   -6
 NUMBER OF SHELLS           468  COULOMB PENETRATION TOL     (T2) 10**   -6
 NUMBER OF AO               948  EXCHANGE OVERLAP TOL        (T3) 10**   -6
 N. OF ELECTRONS PER CELL   396  EXCHANGE PSEUDO OVP (F(G))  (T4) 10**   -6
 CORE ELECTRONS PER CELL    120  EXCHANGE PSEUDO OVP (P(G))  (T5) 10**  -12
 N. OF SYMMETRY OPERATORS     1  POLE ORDER IN MONO ZONE                  4
 *******************************************************************************
 TYPE OF CALCULATION :  RESTRICTED CLOSED SHELL
 KOHN-SHAM HAMILTONIAN

 (EXCHANGE)[CORRELATION] FUNCTIONAL:(HSEsol GGA)[PBEsol]

 RANGE-SEPARATED HYBRID FUNCTIONAL 
 OMEGA (SHORT-RANGE)[LONG-RANGE]:(    0.1100)[    0.0000]

 HYBRID EXCHANGE - PERCENTAGE OF FOCK EXCHANGE    25.0000

 CAPPA:IS1  2;IS2  2;IS3  8; K PTS MONK NET  20; SYMMOPS:K SPACE   2;G SPACE   1

 *******************************************************************************
 MAX NUMBER OF SCF CYCLES      50  CONVERGENCE ON DELTAP        10**-16
 WEIGHT OF F(I) IN F(I+1)      30% CONVERGENCE ON ENERGY        10**- 6
 SHRINK. FACT.(MONKH.)    2  2  8  NUMBER OF K POINTS IN THE IBZ     20
 SHRINKING FACTOR(GILAT NET)    8  NUMBER OF K POINTS(GILAT NET)   1028
 *******************************************************************************
 *** K POINTS COORDINATES (OBLIQUE COORDINATES IN UNITS OF IS =  2)
   1-R(  0  0  0)   2-R(  1  0  0)   3-R(  0  1  0)   4-R(  1  1  0)
   5-C(  0  0  1)   6-C(  1  0  1)   7-C(  0  1  1)   8-C(  1  1  1)
   9-C(  0  0  2)  10-C(  1  0  2)  11-C(  0  1  2)  12-C(  1  1  2)
  13-C(  0  0  3)  14-C(  1  0  3)  15-C(  0  1  3)  16-C(  1  1  3)
  17-R(  0  0  4)  18-R(  1  0  4)  19-R(  0  1  4)  20-R(  1  1  4)

 DIRECT LATTICE VECTORS COMPON. (A.U.)     RECIP. LATTICE VECTORS COMPON. (A.U.) 
        X            Y            Z              X            Y            Z
   24.5879030  -14.1935232    0.0000000      0.2555397    0.0000000    0.0000005
    0.0000000   28.3910867    0.0000000      0.1277517    0.2213084    0.0000015
   -0.0000313   -0.0000831   14.7398638      0.0000000    0.0000000    0.4262716

 DISK SPACE FOR EIGENVECTORS (FTN 10)    28758528 REALS

 SYMMETRY ADAPTION OF THE BLOCH FUNCTIONS DISABLED
 TTTTTTTTTTTTTTTTTTTTTTTTTTTTTT gordsh1     TELAPSE        0.05 TCPU        0.05

 MATRIX SIZE: P(G)  615400, F(G)  117613, P(G) IRR  309638, F(G) IRR  118645
 MAX G-VECTOR INDEX FOR 1- AND 2-ELECTRON INTEGRALS  53

 TTTTTTTTTTTTTTTTTTTTTTTTTTTTTT INPUT       TELAPSE        2.37 TCPU        2.37

 NEIGHBORS OF THE NON-EQUIVALENT ATOMS

 N = NUMBER OF NEIGHBORS AT DISTANCE R
    ATOM  N     R/ANG      R/AU   NEIGHBORS (ATOM LABELS AND CELL INDICES)
   1 B    1     1.3791     2.6061   73 O   -1 0 0
   1 B    1     1.3793     2.6065   75 O    0 0 0
   1 B    1     1.5503     2.9297   49 C   -1 0 0
   1 B    1     2.3895     4.5155    5 B    0 1 0
   1 B    1     2.3898     4.5160    3 B    0 0 0
   1 B    1     2.5632     4.8437   51 C    0 0 0

   2 B    1     1.3791     2.6061   74 O    0 0 0
   2 B    1     1.3793     2.6065   76 O    0 0 0
   2 B    1     1.5503     2.9297   50 C    0 0 0
   2 B    1     2.3895     4.5155    6 B    0 0 0
   2 B    1     2.3898     4.5160    4 B    0 0 0
   2 B    1     2.5632     4.8437   52 C    0 0 0

   3 B    1     1.3793     2.6065   77 O    0 1 0
   3 B    1     1.3793     2.6065   75 O    0 0 0
   3 B    1     1.5504     2.9298   37 C    0 0 0
   3 B    1     2.3895     4.5156    5 B    0 1 0
   3 B    1     2.3898     4.5160    1 B    0 0 0
   3 B    1     2.5634     4.8440   43 C    0 1 0

   4 B    1     1.3793     2.6065   78 O    0 0 0
   4 B    1     1.3793     2.6065   76 O    0 0 0
   4 B    1     1.5504     2.9298   38 C    0 0 0
   4 B    1     2.3895     4.5156    6 B    0 0 0
   4 B    1     2.3898     4.5160    2 B    0 0 0
   4 B    1     2.5634     4.8440   44 C    0 0 0

   5 B    1     1.3791     2.6061   73 O   -1-1 0
   5 B    1     1.3793     2.6064   77 O    0 0 0
   5 B    1     1.5502     2.9294   61 C   -1-1 0
   5 B    1     2.3895     4.5155    1 B    0-1 0
   5 B    1     2.3895     4.5156    3 B    0-1 0
   5 B    1     2.5629     4.8433   63 C    0 0 0

   6 B    1     1.3791     2.6061   74 O    0 0 0
   6 B    1     1.3793     2.6064   78 O    0 0 0
   6 B    1     1.5502     2.9294   62 C    0 0 0
   6 B    1     2.3895     4.5155    2 B    0 0 0
   6 B    1     2.3895     4.5156    4 B    0 0 0
   6 B    1     2.5629     4.8433   64 C    0 0 0

   7 B    1     1.3795     2.6068   79 O    0 0 0
   7 B    1     1.3795     2.6070   81 O    0-1 0
   7 B    1     1.5513     2.9316   47 C    0 0 0
   7 B    1     2.3905     4.5174   11 B    0 0 0
   7 B    1     2.3905     4.5175    9 B    0-1 0
   7 B    1     2.5648     4.8468   45 C    0-1 0

   8 B    1     1.3795     2.6068   80 O    0 0 0
   8 B    1     1.3795     2.6070   82 O    0 0 0
   8 B    1     1.5513     2.9316   48 C    0 0 0
   8 B    1     2.3905     4.5174   12 B    1 1 0
   8 B    1     2.3905     4.5175   10 B    1 0 0
   8 B    1     2.5648     4.8468   46 C    0 0 0

   9 B    1     1.3795     2.6069   81 O    0 0 0
   9 B    1     1.3797     2.6072   83 O    1 1 0
   9 B    1     1.5516     2.9322   71 C    0 0 0
   9 B    1     2.3905     4.5175    7 B    0 1 0
   9 B    1     2.3911     4.5185   11 B    0 1 0
   9 B    1     2.5651     4.8473   69 C    1 1 0

  10 B    1     1.3795     2.6069   82 O   -1 0 0
  10 B    1     1.3797     2.6072   84 O    0 0 0
  10 B    1     1.5516     2.9322   72 C    0 0 0
  10 B    1     2.3905     4.5175    8 B   -1 0 0
  10 B    1     2.3911     4.5185   12 B    0 1 0
  10 B    1     2.5651     4.8473   70 C    0 0 0

  11 B    1     1.3795     2.6068   79 O    0 0 0
  11 B    1     1.3796     2.6071   83 O    1 0 0
  11 B    1     1.5516     2.9322   59 C    0 0 0
  11 B    1     2.3905     4.5174    7 B    0 0 0
  11 B    1     2.3911     4.5185    9 B    0-1 0
  11 B    1     2.5651     4.8473   57 C    1 0 0

  12 B    1     1.3795     2.6068   80 O   -1-1 0
  12 B    1     1.3796     2.6071   84 O    0-1 0
  12 B    1     1.5516     2.9322   60 C    0 0 0
  12 B    1     2.3905     4.5174    8 B   -1-1 0
  12 B    1     2.3911     4.5185   10 B    0-1 0
  12 B    1     2.5651     4.8473   58 C    0 0 0

  13 H    1     1.0913     2.0623   39 C    0 0 0
  13 H    1     2.1472     4.0576   37 C    0 0 0
  13 H    1     2.1680     4.0969   45 C    0 0 0
  13 H    1     2.5202     4.7625   19 H    0 0 0
  13 H    1     2.5676     4.8520   75 O    0 0 0
  13 H    1     2.7321     5.1630    3 B    0 0 0

  14 H    1     1.0913     2.0623   40 C    0 0 0
  14 H    1     2.1472     4.0576   38 C    0 0 0
  14 H    1     2.1680     4.0969   46 C    0 0 0
  14 H    1     2.5202     4.7625   20 H    0 0 0
  14 H    1     2.5676     4.8520   76 O    0 0 0
  14 H    1     2.7321     5.1630    4 B    0 0 0

  15 H    1     1.0914     2.0625   41 C    0 0 0
  15 H    1     2.1493     4.0616   47 C    0 0 0
  15 H    1     2.1666     4.0942   43 C    0 0 0
  15 H    1     2.5198     4.7618   17 H    0 0 0
  15 H    1     2.5720     4.8604   79 O    0 0 0
  15 H    1     2.7362     5.1707    7 B    0 0 0

  16 H    1     1.0914     2.0625   42 C    0 0 0
  16 H    1     2.1493     4.0616   48 C    0 0 0
  16 H    1     2.1666     4.0942   44 C    0 0 0
  16 H    1     2.5198     4.7618   18 H    0 0 0
  16 H    1     2.5720     4.8604   80 O    0 0 0
  16 H    1     2.7362     5.1707    8 B    0 0 0

  17 H    1     1.0914     2.0624   43 C    0 0 0
  17 H    1     2.1471     4.0575   37 C    0-1 0
  17 H    1     2.1680     4.0970   41 C    0 0 0
  17 H    1     2.5198     4.7618   15 H    0 0 0
  17 H    1     2.5665     4.8500   77 O    0 0 0
  17 H    1     2.7315     5.1618    3 B    0-1 0

  18 H    1     1.0914     2.0624   44 C    0 0 0
  18 H    1     2.1471     4.0575   38 C    0 0 0
  18 H    1     2.1680     4.0970   42 C    0 0 0
  18 H    1     2.5198     4.7618   16 H    0 0 0
  18 H    1     2.5665     4.8500   78 O    0 0 0
  18 H    1     2.7315     5.1618    4 B    0 0 0

  19 H    1     1.0915     2.0626   45 C    0 0 0
  19 H    1     2.1490     4.0610   47 C    0 1 0
  19 H    1     2.1669     4.0948   39 C    0 0 0
  19 H    1     2.5202     4.7625   13 H    0 0 0
  19 H    1     2.5712     4.8588   81 O    0 0 0
  19 H    1     2.7351     5.1686    7 B    0 1 0

  20 H    1     1.0915     2.0626   46 C    0 0 0
  20 H    1     2.1490     4.0610   48 C    0 0 0
  20 H    1     2.1669     4.0948   40 C    0 0 0
  20 H    1     2.5202     4.7625   14 H    0 0 0
  20 H    1     2.5712     4.8588   82 O    0 0 0
  20 H    1     2.7351     5.1686    8 B    0 0 0

  21 H    1     1.0913     2.0623   51 C    0 0 0
  21 H    1     2.1469     4.0571   49 C   -1 0 0
  21 H    1     2.1680     4.0968   57 C    0 0 0
  21 H    1     2.5198     4.7617   27 H    0 0 0
  21 H    1     2.5670     4.8510   75 O    0 0 0
  21 H    1     2.7310     5.1609    1 B    0 0 0

  22 H    1     1.0913     2.0623   52 C    0 0 0
  22 H    1     2.1469     4.0571   50 C    0 0 0
  22 H    1     2.1680     4.0968   58 C    0 0 0
  22 H    1     2.5198     4.7617   28 H    0 0 0
  22 H    1     2.5670     4.8510   76 O    0 0 0
  22 H    1     2.7310     5.1609    2 B    0 0 0

  23 H    1     1.0914     2.0625   53 C    0 0 0
  23 H    1     2.1493     4.0617   59 C    0 0 0
  23 H    1     2.1664     4.0939   55 C    0 0 0
  23 H    1     2.5192     4.7606   25 H    0 0 0
  23 H    1     2.5735     4.8632   79 O    0 0 0
  23 H    1     2.7371     5.1723   11 B    0 0 0

  24 H    1     1.0914     2.0625   54 C    0 0 0
  24 H    1     2.1493     4.0617   60 C    0 0 0
  24 H    1     2.1664     4.0939   56 C    0 0 0
  24 H    1     2.5192     4.7606   26 H    0 0 0
  24 H    1     2.5735     4.8632   80 O   -1-1 0
  24 H    1     2.7371     5.1723   12 B    0 0 0

  25 H    1     1.0914     2.0624   55 C    0 0 0
  25 H    1     2.1475     4.0581   49 C    0 0 0
  25 H    1     2.1679     4.0967   53 C    0 0 0
  25 H    1     2.5192     4.7606   23 H    0 0 0
  25 H    1     2.5675     4.8519   73 O    0 0 0
  25 H    1     2.7328     5.1643    1 B    1 0 0

  26 H    1     1.0914     2.0624   56 C    0 0 0
  26 H    1     2.1475     4.0581   50 C    0 0 0
  26 H    1     2.1679     4.0967   54 C    0 0 0
  26 H    1     2.5192     4.7606   24 H    0 0 0
  26 H    1     2.5675     4.8519   74 O    0 0 0
  26 H    1     2.7328     5.1643    2 B    0 0 0

  27 H    1     1.0914     2.0625   57 C    0 0 0
  27 H    1     2.1491     4.0612   59 C   -1 0 0
  27 H    1     2.1666     4.0942   51 C    0 0 0
  27 H    1     2.5198     4.7617   21 H    0 0 0
  27 H    1     2.5723     4.8609   83 O    0 0 0
  27 H    1     2.7355     5.1693   11 B   -1 0 0

  28 H    1     1.0914     2.0625   58 C    0 0 0
  28 H    1     2.1491     4.0612   60 C    0 0 0
  28 H    1     2.1666     4.0942   52 C    0 0 0
  28 H    1     2.5198     4.7617   22 H    0 0 0
  28 H    1     2.5723     4.8609   84 O    0-1 0
  28 H    1     2.7355     5.1693   12 B    0 0 0

  29 H    1     1.0914     2.0624   63 C    0 0 0
  29 H    1     2.1475     4.0582   61 C   -1-1 0
  29 H    1     2.1678     4.0966   69 C    0 0 0
  29 H    1     2.5200     4.7621   35 H    0 0 0
  29 H    1     2.5667     4.8503   77 O    0 0 0
  29 H    1     2.7315     5.1618    5 B    0 0 0

  30 H    1     1.0914     2.0624   64 C    0 0 0
  30 H    1     2.1475     4.0582   62 C    0 0 0
  30 H    1     2.1678     4.0966   70 C    0 0 0
  30 H    1     2.5200     4.7621   36 H    0 0 0
  30 H    1     2.5667     4.8503   78 O    0 0 0
  30 H    1     2.7315     5.1618    6 B    0 0 0

  31 H    1     1.0913     2.0623   65 C    0 0 0
  31 H    1     2.1487     4.0605   71 C    0 0 0
  31 H    1     2.1667     4.0945   67 C    0 0 0
  31 H    1     2.5197     4.7616   33 H    0 0 0
  31 H    1     2.5723     4.8610   81 O    0 0 0
  31 H    1     2.7359     5.1701    9 B    0 0 0

  32 H    1     1.0913     2.0623   66 C    0 0 0
  32 H    1     2.1487     4.0605   72 C    0 0 0
  32 H    1     2.1667     4.0945   68 C    0 0 0
  32 H    1     2.5197     4.7616   34 H    0 0 0
  32 H    1     2.5723     4.8610   82 O   -1 0 0
  32 H    1     2.7359     5.1701   10 B    0 0 0

  33 H    1     1.0915     2.0626   67 C    0 0 0
  33 H    1     2.1479     4.0589   61 C    0 0 0
  33 H    1     2.1679     4.0968   65 C    0 0 0
  33 H    1     2.5197     4.7616   31 H    0 0 0
  33 H    1     2.5677     4.8522   73 O    0 0 0
  33 H    1     2.7331     5.1648    5 B    1 1 0

  34 H    1     1.0915     2.0626   68 C    0 0 0
  34 H    1     2.1479     4.0589   62 C    0 0 0
  34 H    1     2.1679     4.0968   66 C    0 0 0
  34 H    1     2.5197     4.7616   32 H    0 0 0
  34 H    1     2.5677     4.8522   74 O    0 0 0
  34 H    1     2.7331     5.1648    6 B    0 0 0

  35 H    1     1.0914     2.0624   69 C    0 0 0
  35 H    1     2.1486     4.0602   71 C   -1-1 0
  35 H    1     2.1668     4.0947   63 C    0 0 0
  35 H    1     2.5200     4.7621   29 H    0 0 0
  35 H    1     2.5717     4.8598   83 O    0 0 0
  35 H    1     2.7349     5.1682    9 B   -1-1 0

  36 H    1     1.0914     2.0624   70 C    0 0 0
  36 H    1     2.1486     4.0602   72 C    0 0 0
  36 H    1     2.1668     4.0947   64 C    0 0 0
  36 H    1     2.5200     4.7621   30 H    0 0 0
  36 H    1     2.5717     4.8598   84 O    0 0 0
  36 H    1     2.7349     5.1682   10 B    0 0 0

  37 C    1     1.4020     2.6495   43 C    0 1 0
  37 C    1     1.4021     2.6495   39 C    0 0 0
  37 C    1     1.5504     2.9298    3 B    0 0 0
  37 C    1     2.1471     4.0575   17 H    0 1 0
  37 C    1     2.1472     4.0576   13 H    0 0 0
  37 C    1     2.4246     4.5817   41 C    0 1 0

  38 C    1     1.4020     2.6495   44 C    0 0 0
  38 C    1     1.4021     2.6495   40 C    0 0 0
  38 C    1     1.5504     2.9298    4 B    0 0 0
  38 C    1     2.1471     4.0575   18 H    0 0 0
  38 C    1     2.1472     4.0576   14 H    0 0 0
  38 C    1     2.4246     4.5817   42 C    0 0 0

  39 C    1     1.0913     2.0623   13 H    0 0 0
  39 C    1     1.3914     2.6294   45 C    0 0 0
  39 C    1     1.4021     2.6495   37 C    0 0 0
  39 C    1     2.1669     4.0948   19 H    0 0 0
  39 C    1     2.4177     4.5688   43 C    0 1 0
  39 C    1     2.4250     4.5825   47 C    0 1 0

  40 C    1     1.0913     2.0623   14 H    0 0 0
  40 C    1     1.3914     2.6294   46 C    0 0 0
  40 C    1     1.4021     2.6495   38 C    0 0 0
  40 C    1     2.1669     4.0948   20 H    0 0 0
  40 C    1     2.4177     4.5688   44 C    0 0 0
  40 C    1     2.4250     4.5825   48 C    0 0 0

  41 C    1     1.0914     2.0625   15 H    0 0 0
  41 C    1     1.3914     2.6293   43 C    0 0 0
  41 C    1     1.4026     2.6505   47 C    0 0 0
  41 C    1     2.1680     4.0970   17 H    0 0 0
  41 C    1     2.4182     4.5697   45 C    0-1 0
  41 C    1     2.4246     4.5817   37 C    0-1 0

  42 C    1     1.0914     2.0625   16 H    0 0 0
  42 C    1     1.3914     2.6293   44 C    0 0 0
  42 C    1     1.4026     2.6505   48 C    0 0 0
  42 C    1     2.1680     4.0970   18 H    0 0 0
  42 C    1     2.4182     4.5697   46 C    0 0 0
  42 C    1     2.4246     4.5817   38 C    0 0 0

  43 C    1     1.0914     2.0624   17 H    0 0 0
  43 C    1     1.3914     2.6293   41 C    0 0 0
  43 C    1     1.4020     2.6495   37 C    0-1 0
  43 C    1     2.1666     4.0942   15 H    0 0 0
  43 C    1     2.4177     4.5688   39 C    0-1 0
  43 C    1     2.4250     4.5826   47 C    0 0 0

  44 C    1     1.0914     2.0624   18 H    0 0 0
  44 C    1     1.3914     2.6293   42 C    0 0 0
  44 C    1     1.4020     2.6495   38 C    0 0 0
  44 C    1     2.1666     4.0942   16 H    0 0 0
  44 C    1     2.4177     4.5688   40 C    0 0 0
  44 C    1     2.4250     4.5826   48 C    0 0 0

  45 C    1     1.0915     2.0626   19 H    0 0 0
  45 C    1     1.3914     2.6294   39 C    0 0 0
  45 C    1     1.4025     2.6504   47 C    0 1 0
  45 C    1     2.1680     4.0969   13 H    0 0 0
  45 C    1     2.4182     4.5697   41 C    0 1 0
  45 C    1     2.4246     4.5818   37 C    0 0 0

  46 C    1     1.0915     2.0626   20 H    0 0 0
  46 C    1     1.3914     2.6294   40 C    0 0 0
  46 C    1     1.4025     2.6504   48 C    0 0 0
  46 C    1     2.1680     4.0969   14 H    0 0 0
  46 C    1     2.4182     4.5697   42 C    0 0 0
  46 C    1     2.4246     4.5818   38 C    0 0 0

  47 C    1     1.4025     2.6504   45 C    0-1 0
  47 C    1     1.4026     2.6505   41 C    0 0 0
  47 C    1     1.5513     2.9316    7 B    0 0 0
  47 C    1     2.1490     4.0610   19 H    0-1 0
  47 C    1     2.1493     4.0616   15 H    0 0 0
  47 C    1     2.4250     4.5825   39 C    0-1 0

  48 C    1     1.4025     2.6504   46 C    0 0 0
  48 C    1     1.4026     2.6505   42 C    0 0 0
  48 C    1     1.5513     2.9316    8 B    0 0 0
  48 C    1     2.1490     4.0610   20 H    0 0 0
  48 C    1     2.1493     4.0616   16 H    0 0 0
  48 C    1     2.4250     4.5825   40 C    0 0 0

  49 C    1     1.4020     2.6494   51 C    1 0 0
  49 C    1     1.4021     2.6495   55 C    0 0 0
  49 C    1     1.5503     2.9297    1 B    1 0 0
  49 C    1     2.1469     4.0571   21 H    1 0 0
  49 C    1     2.1475     4.0581   25 H    0 0 0
  49 C    1     2.4246     4.5818   53 C    0 0 0

  50 C    1     1.4020     2.6494   52 C    0 0 0
  50 C    1     1.4021     2.6495   56 C    0 0 0
  50 C    1     1.5503     2.9297    2 B    0 0 0
  50 C    1     2.1469     4.0571   22 H    0 0 0
  50 C    1     2.1475     4.0581   26 H    0 0 0
  50 C    1     2.4246     4.5818   54 C    0 0 0

  51 C    1     1.0913     2.0623   21 H    0 0 0
  51 C    1     1.3914     2.6293   57 C    0 0 0
  51 C    1     1.4020     2.6494   49 C   -1 0 0
  51 C    1     2.1666     4.0942   27 H    0 0 0
  51 C    1     2.4175     4.5684   55 C   -1 0 0
  51 C    1     2.4251     4.5828   59 C   -1 0 0

  52 C    1     1.0913     2.0623   22 H    0 0 0
  52 C    1     1.3914     2.6293   58 C    0 0 0
  52 C    1     1.4020     2.6494   50 C    0 0 0
  52 C    1     2.1666     4.0942   28 H    0 0 0
  52 C    1     2.4175     4.5684   56 C    0 0 0
  52 C    1     2.4251     4.5828   60 C    0 0 0

  53 C    1     1.0914     2.0625   23 H    0 0 0
  53 C    1     1.3915     2.6295   55 C    0 0 0
  53 C    1     1.4026     2.6505   59 C    0 0 0
  53 C    1     2.1679     4.0967   25 H    0 0 0
  53 C    1     2.4179     4.5691   57 C    1 0 0
  53 C    1     2.4246     4.5818   49 C    0 0 0

  54 C    1     1.0914     2.0625   24 H    0 0 0
  54 C    1     1.3915     2.6295   56 C    0 0 0
  54 C    1     1.4026     2.6505   60 C    0 0 0
  54 C    1     2.1679     4.0967   26 H    0 0 0
  54 C    1     2.4179     4.5691   58 C    0 0 0
  54 C    1     2.4246     4.5818   50 C    0 0 0

  55 C    1     1.0914     2.0624   25 H    0 0 0
  55 C    1     1.3915     2.6295   53 C    0 0 0
  55 C    1     1.4021     2.6495   49 C    0 0 0
  55 C    1     2.1664     4.0939   23 H    0 0 0
  55 C    1     2.4175     4.5684   51 C    1 0 0
  55 C    1     2.4253     4.5832   59 C    0 0 0

  56 C    1     1.0914     2.0624   26 H    0 0 0
  56 C    1     1.3915     2.6295   54 C    0 0 0
  56 C    1     1.4021     2.6495   50 C    0 0 0
  56 C    1     2.1664     4.0939   24 H    0 0 0
  56 C    1     2.4175     4.5684   52 C    0 0 0
  56 C    1     2.4253     4.5832   60 C    0 0 0

  57 C    1     1.0914     2.0625   27 H    0 0 0
  57 C    1     1.3914     2.6293   51 C    0 0 0
  57 C    1     1.4025     2.6504   59 C   -1 0 0
  57 C    1     2.1680     4.0968   21 H    0 0 0
  57 C    1     2.4179     4.5691   53 C   -1 0 0
  57 C    1     2.4247     4.5819   49 C   -1 0 0

  58 C    1     1.0914     2.0625   28 H    0 0 0
  58 C    1     1.3914     2.6293   52 C    0 0 0
  58 C    1     1.4025     2.6504   60 C    0 0 0
  58 C    1     2.1680     4.0968   22 H    0 0 0
  58 C    1     2.4179     4.5691   54 C    0 0 0
  58 C    1     2.4247     4.5819   50 C    0 0 0

  59 C    1     1.4025     2.6504   57 C    1 0 0
  59 C    1     1.4026     2.6505   53 C    0 0 0
  59 C    1     1.5516     2.9322   11 B    0 0 0
  59 C    1     2.1491     4.0612   27 H    1 0 0
  59 C    1     2.1493     4.0617   23 H    0 0 0
  59 C    1     2.4251     4.5828   51 C    1 0 0

  60 C    1     1.4025     2.6504   58 C    0 0 0
  60 C    1     1.4026     2.6505   54 C    0 0 0
  60 C    1     1.5516     2.9322   12 B    0 0 0
  60 C    1     2.1491     4.0612   28 H    0 0 0
  60 C    1     2.1493     4.0617   24 H    0 0 0
  60 C    1     2.4251     4.5828   52 C    0 0 0

  61 C    1     1.4021     2.6496   63 C    1 1 0
  61 C    1     1.4021     2.6497   67 C    0 0 0
  61 C    1     1.5502     2.9294    5 B    1 1 0
  61 C    1     2.1475     4.0582   29 H    1 1 0
  61 C    1     2.1479     4.0589   33 H    0 0 0
  61 C    1     2.4244     4.5814   65 C    0 0 0

  62 C    1     1.4021     2.6496   64 C    0 0 0
  62 C    1     1.4021     2.6497   68 C    0 0 0
  62 C    1     1.5502     2.9294    6 B    0 0 0
  62 C    1     2.1475     4.0582   30 H    0 0 0
  62 C    1     2.1479     4.0589   34 H    0 0 0
  62 C    1     2.4244     4.5814   66 C    0 0 0

  63 C    1     1.0914     2.0624   29 H    0 0 0
  63 C    1     1.3914     2.6293   69 C    0 0 0
  63 C    1     1.4021     2.6496   61 C   -1-1 0
  63 C    1     2.1668     4.0947   35 H    0 0 0
  63 C    1     2.4179     4.5692   67 C   -1-1 0
  63 C    1     2.4251     4.5827   71 C   -1-1 0

  64 C    1     1.0914     2.0624   30 H    0 0 0
  64 C    1     1.3914     2.6293   70 C    0 0 0
  64 C    1     1.4021     2.6496   62 C    0 0 0
  64 C    1     2.1668     4.0947   36 H    0 0 0
  64 C    1     2.4179     4.5692   68 C    0 0 0
  64 C    1     2.4251     4.5827   72 C    0 0 0

  65 C    1     1.0913     2.0623   31 H    0 0 0
  65 C    1     1.3914     2.6294   67 C    0 0 0
  65 C    1     1.4025     2.6504   71 C    0 0 0
  65 C    1     2.1679     4.0968   33 H    0 0 0
  65 C    1     2.4178     4.5690   69 C    1 1 0
  65 C    1     2.4244     4.5814   61 C    0 0 0

  66 C    1     1.0913     2.0623   32 H    0 0 0
  66 C    1     1.3914     2.6294   68 C    0 0 0
  66 C    1     1.4025     2.6504   72 C    0 0 0
  66 C    1     2.1679     4.0968   34 H    0 0 0
  66 C    1     2.4178     4.5690   70 C    0 0 0
  66 C    1     2.4244     4.5814   62 C    0 0 0

  67 C    1     1.0915     2.0626   33 H    0 0 0
  67 C    1     1.3914     2.6294   65 C    0 0 0
  67 C    1     1.4021     2.6497   61 C    0 0 0
  67 C    1     2.1667     4.0945   31 H    0 0 0
  67 C    1     2.4179     4.5692   63 C    1 1 0
  67 C    1     2.4253     4.5832   71 C    0 0 0

  68 C    1     1.0915     2.0626   34 H    0 0 0
  68 C    1     1.3914     2.6294   66 C    0 0 0
  68 C    1     1.4021     2.6497   62 C    0 0 0
  68 C    1     2.1667     4.0945   32 H    0 0 0
  68 C    1     2.4179     4.5692   64 C    0 0 0
  68 C    1     2.4253     4.5832   72 C    0 0 0

  69 C    1     1.0914     2.0624   35 H    0 0 0
  69 C    1     1.3914     2.6293   63 C    0 0 0
  69 C    1     1.4025     2.6503   71 C   -1-1 0
  69 C    1     2.1678     4.0966   29 H    0 0 0
  69 C    1     2.4178     4.5690   65 C   -1-1 0
  69 C    1     2.4245     4.5817   61 C   -1-1 0

  70 C    1     1.0914     2.0624   36 H    0 0 0
  70 C    1     1.3914     2.6293   64 C    0 0 0
  70 C    1     1.4025     2.6503   72 C    0 0 0
  70 C    1     2.1678     4.0966   30 H    0 0 0
  70 C    1     2.4178     4.5690   66 C    0 0 0
  70 C    1     2.4245     4.5817   62 C    0 0 0

  71 C    1     1.4025     2.6503   69 C    1 1 0
  71 C    1     1.4025     2.6504   65 C    0 0 0
  71 C    1     1.5516     2.9322    9 B    0 0 0
  71 C    1     2.1486     4.0602   35 H    1 1 0
  71 C    1     2.1487     4.0605   31 H    0 0 0
  71 C    1     2.4251     4.5827   63 C    1 1 0

  72 C    1     1.4025     2.6503   70 C    0 0 0
  72 C    1     1.4025     2.6504   66 C    0 0 0
  72 C    1     1.5516     2.9322   10 B    0 0 0
  72 C    1     2.1486     4.0602   36 H    0 0 0
  72 C    1     2.1487     4.0605   32 H    0 0 0
  72 C    1     2.4251     4.5827   64 C    0 0 0

  73 O    1     1.3791     2.6061    1 B    1 0 0
  73 O    1     1.3791     2.6061    5 B    1 1 0
  73 O    1     2.3880     4.5126   75 O    1 0 0
  73 O    1     2.3882     4.5130   77 O    1 1 0
  73 O    1     2.5383     4.7966   61 C    0 0 0
  73 O    1     2.5384     4.7968   49 C    0 0 0

  74 O    1     1.3791     2.6061    2 B    0 0 0
  74 O    1     1.3791     2.6061    6 B    0 0 0
  74 O    1     2.3880     4.5126   76 O    0 0 0
  74 O    1     2.3882     4.5130   78 O    0 0 0
  74 O    1     2.5383     4.7966   62 C    0 0 0
  74 O    1     2.5384     4.7968   50 C    0 0 0

  75 O    1     1.3793     2.6065    1 B    0 0 0
  75 O    1     1.3793     2.6065    3 B    0 0 0
  75 O    1     2.3880     4.5126   73 O   -1 0 0
  75 O    1     2.3882     4.5131   77 O    0 1 0
  75 O    1     2.5391     4.7981   37 C    0 0 0
  75 O    1     2.5395     4.7990   49 C   -1 0 0

  76 O    1     1.3793     2.6065    2 B    0 0 0
  76 O    1     1.3793     2.6065    4 B    0 0 0
  76 O    1     2.3880     4.5126   74 O    0 0 0
  76 O    1     2.3882     4.5131   78 O    0 0 0
  76 O    1     2.5391     4.7981   38 C    0 0 0
  76 O    1     2.5395     4.7990   50 C    0 0 0

  77 O    1     1.3793     2.6064    5 B    0 0 0
  77 O    1     1.3793     2.6065    3 B    0-1 0
  77 O    1     2.3882     4.5130   73 O   -1-1 0
  77 O    1     2.3882     4.5131   75 O    0-1 0
  77 O    1     2.5390     4.7980   37 C    0-1 0
  77 O    1     2.5391     4.7982   61 C   -1-1 0

  78 O    1     1.3793     2.6064    6 B    0 0 0
  78 O    1     1.3793     2.6065    4 B    0 0 0
  78 O    1     2.3882     4.5130   74 O    0 0 0
  78 O    1     2.3882     4.5131   76 O    0 0 0
  78 O    1     2.5390     4.7980   38 C    0 0 0
  78 O    1     2.5391     4.7982   62 C    0 0 0

  79 O    1     1.3795     2.6068   11 B    0 0 0
  79 O    1     1.3795     2.6068    7 B    0 0 0
  79 O    1     2.3880     4.5126   83 O    1 0 0
  79 O    1     2.3884     4.5134   81 O    0-1 0
  79 O    1     2.5400     4.7998   47 C    0 0 0
  79 O    1     2.5403     4.8005   59 C    0 0 0

  80 O    1     1.3795     2.6068   12 B    1 1 0
  80 O    1     1.3795     2.6068    8 B    0 0 0
  80 O    1     2.3880     4.5126   84 O    1 0 0
  80 O    1     2.3884     4.5134   82 O    0 0 0
  80 O    1     2.5400     4.7998   48 C    0 0 0
  80 O    1     2.5403     4.8005   60 C    1 1 0

  81 O    1     1.3795     2.6069    9 B    0 0 0
  81 O    1     1.3795     2.6070    7 B    0 1 0
  81 O    1     2.3881     4.5128   83 O    1 1 0
  81 O    1     2.3884     4.5134   79 O    0 1 0
  81 O    1     2.5404     4.8006   47 C    0 1 0
  81 O    1     2.5405     4.8008   71 C    0 0 0

  82 O    1     1.3795     2.6069   10 B    1 0 0
  82 O    1     1.3795     2.6070    8 B    0 0 0
  82 O    1     2.3881     4.5128   84 O    1 0 0
  82 O    1     2.3884     4.5134   80 O    0 0 0
  82 O    1     2.5404     4.8006   48 C    0 0 0
  82 O    1     2.5405     4.8008   72 C    1 0 0

  83 O    1     1.3796     2.6071   11 B   -1 0 0
  83 O    1     1.3797     2.6072    9 B   -1-1 0
  83 O    1     2.3880     4.5126   79 O   -1 0 0
  83 O    1     2.3881     4.5128   81 O   -1-1 0
  83 O    1     2.5409     4.8016   71 C   -1-1 0
  83 O    1     2.5410     4.8019   59 C   -1 0 0

  84 O    1     1.3796     2.6071   12 B    0 1 0
  84 O    1     1.3797     2.6072   10 B    0 0 0
  84 O    1     2.3880     4.5126   80 O   -1 0 0
  84 O    1     2.3881     4.5128   82 O   -1 0 0
  84 O    1     2.5409     4.8016   72 C    0 0 0
  84 O    1     2.5410     4.8019   60 C    0 1 0


 SYMMETRY ALLOWED INTERNAL DEGREE(S) OF FREEDOM: 249
 TTTTTTTTTTTTTTTTTTTTTTTTTTTTTT SYMM        TELAPSE        2.38 TCPU        2.37
 TTTTTTTTTTTTTTTTTTTTTTTTTTTTTT INT_SCREEN  TELAPSE        2.57 TCPU        2.56

 DFT PARAMETERS

     ATOM       ELECTRONS   NET CHARGE   R(ANGSTROM)
   1   5  B       5.0000      0.0000     0.89000000
  13   1  H       1.0000      0.0000     1.11000000
  37   6  C       6.0000      0.0000     0.77000000
  73   8  O       8.0000      0.0000     0.74000000

 SIZE OF GRID=    2641220
 TTTTTTTTTTTTTTTTTTTTTTTTTTTTTT MAKE_GRID2  TELAPSE       19.56 TCPU       19.54
 BECKE WEIGHT FUNCTION
 RADSAFE =     2.00
 TOLERANCES - DENSITY:10**- 6; POTENTIAL:10**- 9; GRID WGT:10**-14

 RADIAL INTEGRATION  - INTERVALS (POINTS,UPPER LIMIT):            1( 75,  4.0*R)

 ANGULAR INTEGRATION - INTERVALS (ACCURACY LEVEL [N. POINTS] UPPER LIMIT):
  1(  4[  86]   0.2)  2(  8[ 194]   0.5)  3( 12[ 350]   0.9)  4( 16[ 974]   3.5)
  5( 12[ 350]9999.0)
 TTTTTTTTTTTTTTTTTTTTTTTTTTTTTT INT_CALC    TELAPSE       19.77 TCPU       19.75
 EEEEEEEEEE INT_CALC TERMINATION  DATE 19 02 2026 TIME 20:22:42.8

 *******************************************************************************
 cof-1_z39_L080_serr                                                             
 CRYSTAL - SCF - TYPE OF CALCULATION :  RESTRICTED CLOSED SHELL
 *******************************************************************************

 CAPPA:IS1  2;IS2  2;IS3  8; K PTS MONK NET  20; SYMMOPS:K SPACE   2;G SPACE   1

 TTTTTTTTTTTTTTTTTTTTTTTTTTTTTT SDIK        TELAPSE       22.25 TCPU       61.37

 AAAAAAAAAAAAAAAAAAAAAAAAAAAAAAAAAAAAAAAAAAAAAAAAAAAAAAAAAAAAAAAAAAAAAAAAAAAAAAA
         ATOMIC WAVEFUNCTION(S)


 NUCLEAR CHARGE  5.0  SYMMETRY SPECIES            S    P
 N. ELECTRONS    5.0  NUMBER OF PRIMITIVE GTOS    8    4
                      NUMBER OF CONTRACTED GTOS   4    2
                      NUMBER OF CLOSED SHELLS     2    0
                      OPEN SHELL OCCUPATION       0    1

  ZNUC  SCFIT    TOTAL HF ENERGY   KINETIC ENERGY   VIRIAL THEOREM ACCURACY
   5.0    11    -2.451164084E+01  2.462155050E+01 -1.995536038E+00  1.5E-06

 NUCLEAR CHARGE  1.0  SYMMETRY SPECIES            S
 N. ELECTRONS    1.0  NUMBER OF PRIMITIVE GTOS    4
                      NUMBER OF CONTRACTED GTOS   2
                      NUMBER OF CLOSED SHELLS     0
                      OPEN SHELL OCCUPATION       1

  ZNUC  SCFIT    TOTAL HF ENERGY   KINETIC ENERGY   VIRIAL THEOREM ACCURACY
   1.0     1    -4.977266687E-01  5.190767460E-01 -1.958869132E+00  0.0E+00

 NUCLEAR CHARGE  6.0  SYMMETRY SPECIES            S    P
 N. ELECTRONS    6.0  NUMBER OF PRIMITIVE GTOS    8    4
                      NUMBER OF CONTRACTED GTOS   4    2
                      NUMBER OF CLOSED SHELLS     2    0
                      OPEN SHELL OCCUPATION       0    2

  ZNUC  SCFIT    TOTAL HF ENERGY   KINETIC ENERGY   VIRIAL THEOREM ACCURACY
   6.0     9    -3.766704647E+01  3.775180683E+01 -1.997754800E+00  1.1E-06

 NUCLEAR CHARGE  8.0  SYMMETRY SPECIES            S    P
 N. ELECTRONS    8.0  NUMBER OF PRIMITIVE GTOS    8    4
                      NUMBER OF CONTRACTED GTOS   4    2
                      NUMBER OF CLOSED SHELLS     2    0
                      OPEN SHELL OCCUPATION       0    4

  ZNUC  SCFIT    TOTAL HF ENERGY   KINETIC ENERGY   VIRIAL THEOREM ACCURACY
   8.0    12    -7.477373220E+01  7.477365593E+01 -2.000001020E+00  3.8E-06

 AAAAAAAAAAAAAAAAAAAAAAAAAAAAAAAAAAAAAAAAAAAAAAAAAAAAAAAAAAAAAAAAAAAAAAAAAAAAAAA

 CHARGE NORMALIZATION FACTOR   1.00000000
 TOTAL ATOMIC CHARGES:
   5.0000000   5.0000000   5.0000000   5.0000000   5.0000000   5.0000000
   5.0000000   5.0000000   5.0000000   5.0000000   5.0000000   5.0000000
   1.0000000   1.0000000   1.0000000   1.0000000   1.0000000   1.0000000
   1.0000000   1.0000000   1.0000000   1.0000000   1.0000000   1.0000000
   1.0000000   1.0000000   1.0000000   1.0000000   1.0000000   1.0000000
   1.0000000   1.0000000   1.0000000   1.0000000   1.0000000   1.0000000
   6.0000000   6.0000000   6.0000000   6.0000000   6.0000000   6.0000000
   6.0000000   6.0000000   6.0000000   6.0000000   6.0000000   6.0000000
   6.0000000   6.0000000   6.0000000   6.0000000   6.0000000   6.0000000
   6.0000000   6.0000000   6.0000000   6.0000000   6.0000000   6.0000000
   6.0000000   6.0000000   6.0000000   6.0000000   6.0000000   6.0000000
   6.0000000   6.0000000   6.0000000   6.0000000   6.0000000   6.0000000
   8.0000000   8.0000000   8.0000000   8.0000000   8.0000000   8.0000000
   8.0000000   8.0000000   8.0000000   8.0000000   8.0000000   8.0000000
 TTTTTTTTTTTTTTTTTTTTTTTTTTTTTT MOQGAD      TELAPSE       22.33 TCPU       63.94
 TTTTTTTTTTTTTTTTTTTTTTTTTTTTTT SHELLXN     TELAPSE       34.37 TCPU      447.72
 TTTTTTTTTTTTTTTTTTTTTTTTTTTTTT MONMO3      TELAPSE       34.88 TCPU      463.90
 NUMERICALLY INTEGRATED DENSITY    395.9999958374
 TTTTTTTTTTTTTTTTTTTTTTTTTTTTTT NUMDFT      TELAPSE       36.15 TCPU      504.52
 CYC   0 ETOT(AU) -2.591912196666E+03 DETOT -2.59E+03 tst  0.00E+00 PX  1.00E+00
 TTTTTTTTTTTTTTTTTTTTTTTTTTTTTT DIIS        TELAPSE       36.25 TCPU      507.66
 TTTTTTTTTTTTTTTTTTTTTTTTTTTTTT FDIK        TELAPSE       38.04 TCPU      565.04
 INSULATING STATE
 TOP OF VALENCE BANDS -    BAND    198; K    2; EIG -3.1157404E-01 AU
 TOP OF VALENCE BANDS -    BAND    198; K    1; EIG -3.1167382E-01 AU
 BOTTOM OF VIRTUAL BANDS - BAND    199; K    1; EIG -1.5821365E-01 AU
 INDIRECT ENERGY BAND GAP:   4.1732 eV
 TTTTTTTTTTTTTTTTTTTTTTTTTTTTTT PDIG        TELAPSE       39.49 TCPU      571.86
 CHARGE NORMALIZATION FACTOR   1.00000000
 TOTAL ATOMIC CHARGES:
   4.1439403   4.1660980   4.1568556   4.1659682   4.1570578   4.1662142
   4.1657995   4.1566778   4.1655721   4.1564406   4.1657062   4.1435900
   0.7854562   0.7850738   0.7851898   0.7855724   0.7855415   0.7850156
   0.7851354   0.7856609   0.7857475   0.7850916   0.7852584   0.7859115
   0.7857375   0.7850817   0.7852211   0.7858754   0.7855434   0.7850174
   0.7851995   0.7857261   0.7854093   0.7850262   0.7851833   0.7855668
   6.0441226   6.0429593   6.2665418   6.2649746   6.2649406   6.2665102
   6.2660633   6.2646627   6.2646069   6.2660107   6.0422381   6.0433866
   6.0493630   6.0426222   6.2668356   6.2648372   6.2649163   6.2669139
   6.2667485   6.2647472   6.2649352   6.2669290   6.0414291   6.0481302
   6.0445071   6.0433135   6.2658318   6.2644337   6.2649796   6.2663847
   6.2661694   6.2646020   6.2652187   6.2667818   6.0417735   6.0429388
   8.6984946   8.6907693   8.6985999   8.6908773   8.6983525   8.6908304
   8.6911976   8.6989082   8.6912360   8.6987503   8.6913740   8.6990878
 TTTTTTTTTTTTTTTTTTTTTTTTTTTTTT MOQGAD      TELAPSE       39.57 TCPU      571.94
 TTTTTTTTTTTTTTTTTTTTTTTTTTTTTT SHELLXN     TELAPSE       52.06 TCPU      970.42
 TTTTTTTTTTTTTTTTTTTTTTTTTTTTTT MONMO3      TELAPSE       52.57 TCPU      986.59
 NUMERICALLY INTEGRATED DENSITY    396.0000272111
 TTTTTTTTTTTTTTTTTTTTTTTTTTTTTT NUMDFT      TELAPSE       53.86 TCPU     1027.78
 CYC   1 ETOT(AU) -2.577626899520E+03 DETOT  1.43E+01 tst  0.00E+00 PX  1.00E+00
 TTTTTTTTTTTTTTTTTTTTTTTTTTTTTT DIIS        TELAPSE       53.98 TCPU     1031.77
 DIIS TEST: 0.22338E+01 AT SCF   CYCLE   1 - MIX   30 %
 TTTTTTTTTTTTTTTTTTTTTTTTTTTTTT FDIK        TELAPSE       55.81 TCPU     1090.01
 INSULATING STATE
 TOP OF VALENCE BANDS -    BAND    198; K    2; EIG -2.2250922E-01 AU
 TOP OF VALENCE BANDS -    BAND    198; K    1; EIG -2.2268671E-01 AU
 BOTTOM OF VIRTUAL BANDS - BAND    199; K    1; EIG -8.2660026E-02 AU
 INDIRECT ENERGY BAND GAP:   3.8055 eV
 TTTTTTTTTTTTTTTTTTTTTTTTTTTTTT PDIG        TELAPSE       57.25 TCPU     1096.84
 CHARGE NORMALIZATION FACTOR   1.00000000
 TOTAL ATOMIC CHARGES:
   4.7096520   4.7162836   4.7019436   4.7153534   4.7019359   4.7153580
   4.7154441   4.7018447   4.7154267   4.7018350   4.7163283   4.7096077
   0.9035606   0.9115464   0.9115213   0.9035947   0.9030240   0.9119299
   0.9118877   0.9031121   0.9036166   0.9112554   0.9112065   0.9036561
   0.9035859   0.9112437   0.9111887   0.9036451   0.9030240   0.9119160
   0.9119664   0.9031964   0.9034937   0.9114944   0.9115293   0.9036183
   5.8647137   5.8772567   6.1333673   6.1407719   6.1411459   6.1337706
   6.1178527   6.1432517   6.1438058   6.1184381   5.8798294   5.8671927
   5.8797098   5.8775946   6.1208319   6.1356078   6.1363583   6.1215243
   6.1210490   6.1358802   6.1362474   6.1214306   5.8806501   5.8826311
   5.8646715   5.8772209   6.1179156   6.1433092   6.1436563   6.1182944
   6.1335329   6.1409709   6.1408858   6.1335180   5.8800440   5.8673458
   8.3405886   8.3331304   8.3409515   8.3334906   8.3309961   8.3348571
   8.3329556   8.3404127   8.3345818   8.3307513   8.3333420   8.3408393
 TTTTTTTTTTTTTTTTTTTTTTTTTTTTTT MOQGAD      TELAPSE       57.33 TCPU     1096.92
 TTTTTTTTTTTTTTTTTTTTTTTTTTTTTT SHELLXN     TELAPSE       69.83 TCPU     1495.29
 TTTTTTTTTTTTTTTTTTTTTTTTTTTTTT MONMO3      TELAPSE       70.33 TCPU     1511.47
 NUMERICALLY INTEGRATED DENSITY    396.0000265037
 TTTTTTTTTTTTTTTTTTTTTTTTTTTTTT NUMDFT      TELAPSE       71.62 TCPU     1552.64
 CYC   2 ETOT(AU) -2.578015358089E+03 DETOT -3.88E-01 tst  3.03E-03 PX  1.60E-01
 TTTTTTTTTTTTTTTTTTTTTTTTTTTTTT DIIS        TELAPSE       71.77 TCPU     1557.30
 DIIS TEST: 0.93080E+00 AT SCF   CYCLE   2 - DIIS ACTIVE - HISTORY:     2 CYCLES
 TTTTTTTTTTTTTTTTTTTTTTTTTTTTTT FDIK        TELAPSE       73.59 TCPU     1615.58
 INSULATING STATE
 TOP OF VALENCE BANDS -    BAND    198; K    2; EIG -2.3667364E-01 AU
 TOP OF VALENCE BANDS -    BAND    198; K    1; EIG -2.3686089E-01 AU
 BOTTOM OF VIRTUAL BANDS - BAND    199; K    1; EIG -7.8231312E-02 AU
 INDIRECT ENERGY BAND GAP:   4.3114 eV
 TTTTTTTTTTTTTTTTTTTTTTTTTTTTTT PDIG        TELAPSE       75.03 TCPU     1622.39
 CHARGE NORMALIZATION FACTOR   1.00000000
 TOTAL ATOMIC CHARGES:
   4.4944587   4.5101906   4.4938782   4.5090337   4.4940070   4.5091366
   4.5088773   4.4938744   4.5087258   4.4936879   4.5098594   4.4942815
   0.8829865   0.8890842   0.8892800   0.8830890   0.8813714   0.8900569
   0.8902381   0.8814431   0.8810393   0.8875139   0.8878157   0.8811868
   0.8810639   0.8875460   0.8877561   0.8811243   0.8813687   0.8900557
   0.8902878   0.8815128   0.8829654   0.8890841   0.8892312   0.8830672
   5.9029132   5.8786933   6.1633249   6.1609303   6.1607220   6.1630183
   6.1686071   6.1552135   6.1548442   6.1681193   5.8783081   5.9028032
   5.8995602   5.8834179   6.1659633   6.1602950   6.1601754   6.1658111
   6.1660323   6.1603410   6.1601412   6.1657534   5.8825372   5.8990205
   5.9032099   5.8790049   6.1685278   6.1551318   6.1549883   6.1682723
   6.1632505   6.1607978   6.1607338   6.1630536   5.8780226   5.9024869
   8.5149164   8.5082040   8.5150805   8.5083909   8.5188285   8.5068445
   8.5084656   8.5151348   8.5070035   8.5189273   8.5086718   8.5153269
 TTTTTTTTTTTTTTTTTTTTTTTTTTTTTT MOQGAD      TELAPSE       75.11 TCPU     1622.47
 TTTTTTTTTTTTTTTTTTTTTTTTTTTTTT SHELLXN     TELAPSE       87.61 TCPU     2020.91
 TTTTTTTTTTTTTTTTTTTTTTTTTTTTTT MONMO3      TELAPSE       88.11 TCPU     2037.09
 NUMERICALLY INTEGRATED DENSITY    396.0000273229
 TTTTTTTTTTTTTTTTTTTTTTTTTTTTTT NUMDFT      TELAPSE       89.40 TCPU     2078.24
 CYC   3 ETOT(AU) -2.578206939868E+03 DETOT -1.92E-01 tst  6.62E-04 PX  6.59E-02
 TTTTTTTTTTTTTTTTTTTTTTTTTTTTTT DIIS        TELAPSE       89.57 TCPU     2083.61
 DIIS TEST: 0.27689E-01 AT SCF   CYCLE   3 - DIIS ACTIVE - HISTORY:     3 CYCLES
 TTTTTTTTTTTTTTTTTTTTTTTTTTTTTT FDIK        TELAPSE       91.39 TCPU     2141.73
 INSULATING STATE
 TOP OF VALENCE BANDS -    BAND    198; K    2; EIG -2.4498982E-01 AU
 TOP OF VALENCE BANDS -    BAND    198; K    1; EIG -2.4513856E-01 AU
 BOTTOM OF VIRTUAL BANDS - BAND    199; K    1; EIG -8.5357280E-02 AU
 INDIRECT ENERGY BAND GAP:   4.3438 eV
 TTTTTTTTTTTTTTTTTTTTTTTTTTTTTT PDIG        TELAPSE       92.83 TCPU     2148.55
 CHARGE NORMALIZATION FACTOR   1.00000000
 TOTAL ATOMIC CHARGES:
   4.5011940   4.5129023   4.4998486   4.5113612   4.4999674   4.5114636
   4.5112741   4.4996982   4.5111238   4.4995324   4.5126510   4.5009435
   0.8670431   0.8718676   0.8719162   0.8671025   0.8680813   0.8713815
   0.8713699   0.8681398   0.8675145   0.8715872   0.8716157   0.8676098
   0.8675205   0.8716032   0.8715617   0.8675605   0.8680956   0.8713798
   0.8714337   0.8682034   0.8670239   0.8718520   0.8718769   0.8670829
   5.9276445   5.9511544   6.1663550   6.1717870   6.1719708   6.1666131
   6.1518349   6.1786889   6.1791841   6.1524863   5.9529867   5.9292015
   5.9409174   5.9474038   6.1583329   6.1691942   6.1698728   6.1589374
   6.1583514   6.1693131   6.1698438   6.1589371   5.9492914   5.9425871
   5.9276667   5.9512157   6.1517620   6.1785843   6.1792708   6.1525775
   6.1662197   6.1716965   6.1719971   6.1666735   5.9530137   5.9291769
   8.4859356   8.4765690   8.4862303   8.4768278   8.4774879   8.4793619
   8.4765527   8.4859202   8.4793226   8.4775133   8.4768662   8.4862850
 TTTTTTTTTTTTTTTTTTTTTTTTTTTTTT MOQGAD      TELAPSE       92.91 TCPU     2148.63
 TTTTTTTTTTTTTTTTTTTTTTTTTTTTTT SHELLXN     TELAPSE      105.40 TCPU     2547.10
 TTTTTTTTTTTTTTTTTTTTTTTTTTTTTT MONMO3      TELAPSE      105.91 TCPU     2563.27
 NUMERICALLY INTEGRATED DENSITY    396.0000274392
 TTTTTTTTTTTTTTTTTTTTTTTTTTTTTT NUMDFT      TELAPSE      107.20 TCPU     2604.45
 CYC   4 ETOT(AU) -2.578212292010E+03 DETOT -5.35E-03 tst  2.70E-05 PX  1.71E-02
 TTTTTTTTTTTTTTTTTTTTTTTTTTTTTT DIIS        TELAPSE      107.39 TCPU     2610.44
 DIIS TEST: 0.97788E-02 AT SCF   CYCLE   4 - DIIS ACTIVE - HISTORY:     4 CYCLES
 TTTTTTTTTTTTTTTTTTTTTTTTTTTTTT FDIK        TELAPSE      109.21 TCPU     2668.62
 INSULATING STATE
 TOP OF VALENCE BANDS -    BAND    198; K    2; EIG -2.4415159E-01 AU
 TOP OF VALENCE BANDS -    BAND    198; K    1; EIG -2.4431482E-01 AU
 BOTTOM OF VIRTUAL BANDS - BAND    199; K    1; EIG -8.6251899E-02 AU
 INDIRECT ENERGY BAND GAP:   4.2967 eV
 TTTTTTTTTTTTTTTTTTTTTTTTTTTTTT PDIG        TELAPSE      110.65 TCPU     2675.45
 CHARGE NORMALIZATION FACTOR   1.00000000
 TOTAL ATOMIC CHARGES:
   4.5058599   4.5161683   4.5022021   4.5152709   4.5023218   4.5153689
   4.5152149   4.5021912   4.5150773   4.5020305   4.5159579   4.5057247
   0.8689643   0.8747351   0.8748685   0.8690514   0.8678779   0.8754507
   0.8755850   0.8679821   0.8677802   0.8736274   0.8738374   0.8679120
   0.8677851   0.8736443   0.8737870   0.8678626   0.8678785   0.8754456
   0.8756468   0.8680577   0.8689274   0.8747161   0.8748363   0.8690467
   5.9323935   5.9149978   6.1689464   6.1687544   6.1687064   6.1688516
   6.1676876   6.1642993   6.1641179   6.1674370   5.9152533   5.9327907
   5.9351650   5.9191968   6.1665089   6.1658208   6.1659360   6.1665848
   6.1666096   6.1659154   6.1658825   6.1665279   5.9192164   5.9353764
   5.9326088   5.9152289   6.1676263   6.1642413   6.1641971   6.1675236
   6.1689224   6.1686934   6.1686598   6.1688344   5.9150786   5.9325768
   8.4922337   8.4855141   8.4924371   8.4857403   8.4914239   8.4844311
   8.4856514   8.4923378   8.4844630   8.4914127   8.4859026   8.4925901
 TTTTTTTTTTTTTTTTTTTTTTTTTTTTTT MOQGAD      TELAPSE      110.73 TCPU     2675.53
 TTTTTTTTTTTTTTTTTTTTTTTTTTTTTT SHELLXN     TELAPSE      123.22 TCPU     3073.90
 TTTTTTTTTTTTTTTTTTTTTTTTTTTTTT MONMO3      TELAPSE      123.73 TCPU     3090.07
 NUMERICALLY INTEGRATED DENSITY    396.0000274744
 TTTTTTTTTTTTTTTTTTTTTTTTTTTTTT NUMDFT      TELAPSE      125.02 TCPU     3131.20
 CYC   5 ETOT(AU) -2.578214383382E+03 DETOT -2.09E-03 tst  2.03E-05 PX  8.97E-03
 TTTTTTTTTTTTTTTTTTTTTTTTTTTTTT DIIS        TELAPSE      125.23 TCPU     3137.97
 DIIS TEST: 0.11632E-02 AT SCF   CYCLE   5 - DIIS ACTIVE - HISTORY:     5 CYCLES
 TTTTTTTTTTTTTTTTTTTTTTTTTTTTTT FDIK        TELAPSE      127.05 TCPU     3195.90
 INSULATING STATE
 TOP OF VALENCE BANDS -    BAND    198; K    2; EIG -2.4354011E-01 AU
 TOP OF VALENCE BANDS -    BAND    198; K    1; EIG -2.4370081E-01 AU
 BOTTOM OF VIRTUAL BANDS - BAND    199; K    1; EIG -8.5208482E-02 AU
 INDIRECT ENERGY BAND GAP:   4.3084 eV
 TTTTTTTTTTTTTTTTTTTTTTTTTTTTTT PDIG        TELAPSE      128.49 TCPU     3202.73
 CHARGE NORMALIZATION FACTOR   1.00000000
 TOTAL ATOMIC CHARGES:
   4.5038535   4.5166873   4.5013855   4.5152702   4.5015049   4.5153688
   4.5151695   4.5012953   4.5150279   4.5011339   4.5164287   4.5036450
   0.8700466   0.8758743   0.8759817   0.8701301   0.8698605   0.8759850
   0.8760522   0.8699385   0.8694877   0.8750141   0.8751540   0.8696127
   0.8694975   0.8750340   0.8750992   0.8695614   0.8698671   0.8759815
   0.8761129   0.8700059   0.8700219   0.8758605   0.8759424   0.8701143
   5.9168086   5.9234199   6.1670542   6.1704985   6.1705111   6.1670588
   6.1606871   6.1720474   6.1721855   6.1608547   5.9243042   5.9176580
   5.9221618   5.9238801   6.1629694   6.1688776   6.1692075   6.1632327
   6.1630086   6.1689724   6.1691787   6.1632077   5.9245668   5.9228645
   5.9169440   5.9235845   6.1606171   6.1719580   6.1722878   6.1609666
   6.1669488   6.1704000   6.1705231   6.1670996   5.9242059   5.9175121
   8.4938988   8.4862147   8.4941437   8.4864449   8.4910126   8.4873695
   8.4863136   8.4939828   8.4874151   8.4910777   8.4865822   8.4942747
 TTTTTTTTTTTTTTTTTTTTTTTTTTTTTT MOQGAD      TELAPSE      128.58 TCPU     3202.82
 TTTTTTTTTTTTTTTTTTTTTTTTTTTTTT SHELLXN     TELAPSE      141.07 TCPU     3601.23
 TTTTTTTTTTTTTTTTTTTTTTTTTTTTTT MONMO3      TELAPSE      141.58 TCPU     3617.39
 NUMERICALLY INTEGRATED DENSITY    396.0000273739
 TTTTTTTTTTTTTTTTTTTTTTTTTTTTTT NUMDFT      TELAPSE      142.87 TCPU     3658.49
 CYC   6 ETOT(AU) -2.578214582112E+03 DETOT -1.99E-04 tst  6.85E-06 PX  3.81E-03
 TTTTTTTTTTTTTTTTTTTTTTTTTTTTTT DIIS        TELAPSE      143.10 TCPU     3665.26
 DIIS TEST: 0.49425E-03 AT SCF   CYCLE   6 - DIIS ACTIVE - HISTORY:     6 CYCLES
 TTTTTTTTTTTTTTTTTTTTTTTTTTTTTT FDIK        TELAPSE      144.92 TCPU     3723.18
 INSULATING STATE
 TOP OF VALENCE BANDS -    BAND    198; K    2; EIG -2.4367907E-01 AU
 TOP OF VALENCE BANDS -    BAND    198; K    1; EIG -2.4383969E-01 AU
 BOTTOM OF VIRTUAL BANDS - BAND    199; K    1; EIG -8.5303858E-02 AU
 INDIRECT ENERGY BAND GAP:   4.3096 eV
 TTTTTTTTTTTTTTTTTTTTTTTTTTTTTT PDIG        TELAPSE      146.35 TCPU     3730.00
 CHARGE NORMALIZATION FACTOR   1.00000000
 TOTAL ATOMIC CHARGES:
   4.5041803   4.5164419   4.5017541   4.5151499   4.5018742   4.5152493
   4.5150563   4.5016767   4.5149145   4.5015132   4.5161886   4.5039820
   0.8701048   0.8759747   0.8760822   0.8701834   0.8697009   0.8762448
   0.8763238   0.8697814   0.8693745   0.8750935   0.8752404   0.8694928
   0.8693827   0.8751128   0.8751875   0.8694420   0.8697063   0.8762418
   0.8763838   0.8698509   0.8700775   0.8759608   0.8760441   0.8701701
   5.9230950   5.9203081   6.1679288   6.1688029   6.1688253   6.1679462
   6.1622284   6.1692773   6.1693566   6.1623216   5.9211256   5.9239034
   5.9285809   5.9210232   6.1642355   6.1666936   6.1670123   6.1645010
   6.1642969   6.1667874   6.1669722   6.1644668   5.9216768   5.9292829
   5.9232466   5.9204847   6.1621575   6.1691946   6.1694553   6.1624267
   6.1678457   6.1687115   6.1688222   6.1679726   5.9210123   5.9237464
   8.4933159   8.4854309   8.4935503   8.4856636   8.4902792   8.4860669
   8.4855339   8.4933980   8.4860991   8.4903113   8.4858018   8.4936850
 TTTTTTTTTTTTTTTTTTTTTTTTTTTTTT MOQGAD      TELAPSE      146.44 TCPU     3730.09
 TTTTTTTTTTTTTTTTTTTTTTTTTTTTTT SHELLXN     TELAPSE      158.94 TCPU     4128.53
 TTTTTTTTTTTTTTTTTTTTTTTTTTTTTT MONMO3      TELAPSE      159.45 TCPU     4144.70
 NUMERICALLY INTEGRATED DENSITY    396.0000274224
 TTTTTTTTTTTTTTTTTTTTTTTTTTTTTT NUMDFT      TELAPSE      160.73 TCPU     4185.80
 CYC   7 ETOT(AU) -2.578214711464E+03 DETOT -1.29E-04 tst  1.17E-06 PX  1.45E-03
 TTTTTTTTTTTTTTTTTTTTTTTTTTTTTT DIIS        TELAPSE      160.99 TCPU     4192.61
 DIIS TEST: 0.77007E-05 AT SCF   CYCLE   7 - DIIS ACTIVE - HISTORY:     7 CYCLES
 TTTTTTTTTTTTTTTTTTTTTTTTTTTTTT FDIK        TELAPSE      162.81 TCPU     4250.67
 INSULATING STATE
 TOP OF VALENCE BANDS -    BAND    198; K    2; EIG -2.4368957E-01 AU
 TOP OF VALENCE BANDS -    BAND    198; K    1; EIG -2.4385167E-01 AU
 BOTTOM OF VIRTUAL BANDS - BAND    199; K    1; EIG -8.5343167E-02 AU
 INDIRECT ENERGY BAND GAP:   4.3088 eV
 TTTTTTTTTTTTTTTTTTTTTTTTTTTTTT PDIG        TELAPSE      164.25 TCPU     4257.50
 CHARGE NORMALIZATION FACTOR   1.00000000
 TOTAL ATOMIC CHARGES:
   4.5044619   4.5164335   4.5017362   4.5152006   4.5018561   4.5152993
   4.5151146   4.5016759   4.5149737   4.5015136   4.5161894   4.5042799
   0.8701554   0.8759099   0.8760254   0.8702378   0.8696376   0.8762754
   0.8763668   0.8697229   0.8693467   0.8749870   0.8751506   0.8694712
   0.8693551   0.8750059   0.8750977   0.8694203   0.8696421   0.8762718
   0.8764275   0.8697934   0.8701268   0.8758948   0.8759883   0.8702256
   5.9231024   5.9204305   6.1672878   6.1694207   6.1694179   6.1672670
   6.1628594   6.1685736   6.1685933   6.1628751   5.9211070   5.9238033
   5.9277715   5.9221702   6.1638545   6.1671435   6.1674035   6.1640606
   6.1639183   6.1672396   6.1673633   6.1640229   5.9226505   5.9283280
   5.9232665   5.9206189   6.1627922   6.1684953   6.1686871   6.1629765
   6.1672140   6.1693371   6.1694071   6.1672852   5.9209817   5.9236341
   8.4930503   8.4856312   8.4932801   8.4858612   8.4907377   8.4858533
   8.4857411   8.4931376   8.4858885   8.4907664   8.4860050   8.4934169
 TTTTTTTTTTTTTTTTTTTTTTTTTTTTTT MOQGAD      TELAPSE      164.34 TCPU     4257.58
 TTTTTTTTTTTTTTTTTTTTTTTTTTTTTT SHELLXN     TELAPSE      176.84 TCPU     4655.87
 TTTTTTTTTTTTTTTTTTTTTTTTTTTTTT MONMO3      TELAPSE      177.34 TCPU     4672.04
 NUMERICALLY INTEGRATED DENSITY    396.0000274163
 TTTTTTTTTTTTTTTTTTTTTTTTTTTTTT NUMDFT      TELAPSE      178.63 TCPU     4713.18
 CYC   8 ETOT(AU) -2.578214712500E+03 DETOT -1.04E-06 tst  2.85E-08 PX  2.65E-04
 TTTTTTTTTTTTTTTTTTTTTTTTTTTTTT DIIS        TELAPSE      178.91 TCPU     4719.97
 DIIS TEST: 0.22521E-05 AT SCF   CYCLE   8 - DIIS ACTIVE - HISTORY:     8 CYCLES
 TTTTTTTTTTTTTTTTTTTTTTTTTTTTTT FDIK        TELAPSE      180.73 TCPU     4778.04
 INSULATING STATE
 TOP OF VALENCE BANDS -    BAND    198; K    2; EIG -2.4368294E-01 AU
 TOP OF VALENCE BANDS -    BAND    198; K    1; EIG -2.4384421E-01 AU
 BOTTOM OF VIRTUAL BANDS - BAND    199; K    1; EIG -8.5348747E-02 AU
 INDIRECT ENERGY BAND GAP:   4.3085 eV
 TTTTTTTTTTTTTTTTTTTTTTTTTTTTTT PDIG        TELAPSE      182.17 TCPU     4784.85
 CHARGE NORMALIZATION FACTOR   1.00000000
 TOTAL ATOMIC CHARGES:
   4.5044946   4.5164770   4.5017924   4.5152151   4.5019121   4.5153139
   4.5151269   4.5017260   4.5149860   4.5015638   4.5162307   4.5043076
   0.8701027   0.8759124   0.8760259   0.8701844   0.8696484   0.8762230
   0.8763099   0.8697320   0.8693419   0.8749904   0.8751489   0.8694652
   0.8693503   0.8750096   0.8750957   0.8694143   0.8696532   0.8762194
   0.8763705   0.8698021   0.8700746   0.8758977   0.8759885   0.8701718
   5.9230079   5.9204148   6.1675783   6.1691378   6.1691405   6.1675663
   6.1625501   6.1689162   6.1689589   6.1625946   5.9211342   5.9237419
   5.9279441   5.9218137   6.1639644   6.1670025   6.1672791   6.1641863
   6.1640264   6.1670970   6.1672403   6.1641510   5.9223415   5.9285391
   5.9231674   5.9205987   6.1624819   6.1688369   6.1690537   6.1626971
   6.1675008   6.1690513   6.1691328   6.1675880   5.9210134   5.9235771
   8.4931505   8.4855785   8.4933823   8.4858093   8.4906291   8.4860279
   8.4856863   8.4932364   8.4860637   8.4906621   8.4859513   8.4935181
 TTTTTTTTTTTTTTTTTTTTTTTTTTTTTT MOQGAD      TELAPSE      182.25 TCPU     4784.93
 TTTTTTTTTTTTTTTTTTTTTTTTTTTTTT SHELLXN     TELAPSE      194.75 TCPU     5183.23
 TTTTTTTTTTTTTTTTTTTTTTTTTTTTTT MONMO3      TELAPSE      195.26 TCPU     5199.40
 NUMERICALLY INTEGRATED DENSITY    396.0000274188
 TTTTTTTTTTTTTTTTTTTTTTTTTTTTTT NUMDFT      TELAPSE      196.55 TCPU     5240.52
 CYC   9 ETOT(AU) -2.578214712919E+03 DETOT -4.19E-07 tst  4.00E-09 PX  8.98E-05
 TTTTTTTTTTTTTTTTTTTTTTTTTTTTTT DIIS        TELAPSE      196.85 TCPU     5247.37
 DIIS TEST: 0.46912E-07 AT SCF   CYCLE   9 - DIIS ACTIVE - HISTORY:     9 CYCLES
 TTTTTTTTTTTTTTTTTTTTTTTTTTTTTT FDIK        TELAPSE      198.67 TCPU     5305.34
 INSULATING STATE
 TOP OF VALENCE BANDS -    BAND    198; K    2; EIG -2.4368627E-01 AU
 TOP OF VALENCE BANDS -    BAND    198; K    1; EIG -2.4384773E-01 AU
 BOTTOM OF VIRTUAL BANDS - BAND    199; K    1; EIG -8.5343247E-02 AU
 INDIRECT ENERGY BAND GAP:   4.3087 eV
 TTTTTTTTTTTTTTTTTTTTTTTTTTTTTT PDIG        TELAPSE      200.11 TCPU     5312.17
 CHARGE NORMALIZATION FACTOR   1.00000000
 TOTAL ATOMIC CHARGES:
   4.5044315   4.5164747   4.5017760   4.5152225   4.5018958   4.5153214
   4.5151337   4.5017081   4.5149926   4.5015457   4.5162275   4.5042428
   0.8701088   0.8759037   0.8760158   0.8701898   0.8696383   0.8762266
   0.8763127   0.8697220   0.8693319   0.8749941   0.8751507   0.8694540
   0.8693401   0.8750132   0.8750978   0.8694032   0.8696432   0.8762231
   0.8763732   0.8697920   0.8700807   0.8758890   0.8759783   0.8701772
   5.9229831   5.9204108   6.1675339   6.1692109   6.1692184   6.1675287
   6.1626063   6.1688890   6.1689340   6.1626545   5.9211442   5.9237273
   5.9279466   5.9217486   6.1640028   6.1670053   6.1672899   6.1642337
   6.1640656   6.1671005   6.1672500   6.1641975   5.9222985   5.9285612
   5.9231420   5.9205943   6.1625376   6.1688089   6.1690297   6.1627575
   6.1674561   6.1691241   6.1692109   6.1675504   5.9210239   5.9235630
   8.4931730   8.4855828   8.4934047   8.4858138   8.4905965   8.4859755
   8.4856900   8.4932588   8.4860097   8.4906273   8.4859554   8.4935410
 TTTTTTTTTTTTTTTTTTTTTTTTTTTTTT MOQGAD      TELAPSE      200.20 TCPU     5312.25
 TTTTTTTTTTTTTTTTTTTTTTTTTTTTTT SHELLXN     TELAPSE      212.70 TCPU     5710.64
 +++ ENERGIES IN A.U. +++
 ::: EXT EL-POLE                                  -2.6361757796276E+03
 ::: EXT EL-SPHEROPOLE                             2.9323837680171E+01
 ::: BIELET ZONE E-E                               4.0362998854542E+03
 ::: TOTAL E-E                                     1.4294479435068E+03
 ::: TOTAL E-N + N-E                              -6.5169478821981E+03
 ::: TOTAL N-N                                     2.1682772000069E+02
 ::: KINETIC ENERGY                                2.5598964638749E+03
 ::: PSEUDO TOTAL   ENERGY                        -2.3107757548158E+03
 ::: VIRIAL COEFFICIENT                            1.0511470897391E+00
 TTTTTTTTTTTTTTTTTTTTTTTTTTTTTT MONMO3      TELAPSE      213.21 TCPU     5726.81
 NUMERICALLY INTEGRATED DENSITY    396.0000274185
 EXCHANGE ENERGY: -0.252058529458E+03  CORRELATION ENERGY: -0.153804287386E+02
 TTTTTTTTTTTTTTTTTTTTTTTTTTTTTT NUMDFT      TELAPSE      214.50 TCPU     5767.97
 CYC  10 ETOT(AU) -2.578214713013E+03 DETOT -9.37E-08 tst  1.21E-10 PX  8.98E-05

 == SCF ENDED - CONVERGENCE ON ENERGY      E(AU) -2.5782147130129E+03 CYCLES  10


 ENERGY EXPRESSION=HARTREE+FOCK EXCH*0.00000+(HSESOL     EXCH)*1.00000+PBESOL     CORR


 TOTAL ENERGY(DFT)(AU)( 10) -2.5782147130129E+03 DE-9.4E-08 tester 1.2E-10
 TTTTTTTTTTTTTTTTTTTTTTTTTTTTTT EDFT        TELAPSE      214.50 TCPU     5767.98
 
 INFORMATION **** DFTD3 ENERGY **** CALCULATE DFTD3 ENERGY

           DFT-D V3(BJ)
 DF                                         hsesol3c  
 parameters
 s6       :    1.0000
 s8       :    0.0000
 a1       :    0.5196
 a2       :    4.9385
 k1 k3    :   16.0000   -4.0000
 Cutoff   :   50.2022
 CN-Cutoff:   21.1671
 ABC-Cutoff:   21.1671
 
 Edisp /kcal,au:   -47.0391 -0.07496154

 E6    /kcal :   -49.6877
 E8    /kcal :     0.0000
 E6(ABC) "   :   2.648582
 
 INFORMATION **** DFTD3 ENERGY **** NORMAL TERMINATION OF DFTD3 MODULE

 GCP ENERGY CALCULATION
  level        hsesol3c            basis:hsesol3c
  Nbf            948
  Atoms           84

  Parameters: 
  sigma     1.0000
  eta       1.4281
  alpha     0.2936
  beta      1.9467

  dmp_scal      4.0000
  dmp_exp       6.0000
 cutoffs: 
   distance [bohr] 60.0
   noise    [a.u.] 2.2E-16
 SR-damping   T
 ** gCP correction **
  Egcp:        0.1659385663 / (a.u.) ||     104.1280 / (kcal/mol)
 INFORMATION **** GCP **** NORMAL TERMINATION OF GCP MODULE

 *******************************************************************************

 DFT-D3-GCP DISPERSION AND COUNTERPOISE CORRECTION

 D3 DISPERSION ENERGY (AU)      -7.4961542720818E-02
 GCP ENERGY (AU)                 1.6593856630923E-01
 TOTAL ENERGY + DISP + GCP (AU) -2.5781237359893E+03

 *******************************************************************************

 EIGENVECTORS IN FORTRAN UNIT  8
 TTTTTTTTTTTTTTTTTTTTTTTTTTTTTT END         TELAPSE      217.39 TCPU     5776.80
 EEEEEEEEEE TERMINATION  DATE 19 02 2026 TIME 20:26:00.4
