 Default number of threads is:           32

         
 *******************************************************************************
 *                                                                             *
 *                               CRYSTAL23                                     *
 *                      public : 1.0.1 - October 2022                          *
 *                       HTTP://WWW.CRYSTAL.UNITO.IT                           *
 *                                                                             *
 *                              MAIN AUTHORS                                   *
 *                                                                             *
 *  R. DOVESI(1,11), V.R. SAUNDERS(2), C. ROETTI(1,11), R. ORLANDO(1,11),      *
 *  C.M. ZICOVICH-WILSON(1,3), F. PASCALE(4), B. CIVALLERI(1,11),              *
 *  K. DOLL(5), N.M. HARRISON(6), I.J. BUSH(7), Ph. D'ARCO(8),                 *
 *  M. LLUNELL(9), M. CAUSA'(10), Y. NOEL(8), L. MASCHIO(1,11), A. ERBA(1,11)  *
 *  M. RE'RAT(14), S. CASASSA(1,11), B.G. SEARLE(2), J.K. DESMARAIS(1)         *
 *                                                                             *
 *        CONTRIBUTIONS TO THE CODE HAVE ALSO BEEN GIVEN BY                    *
 *                                                                             *
 *  M. FERRABONE(1,11), M. DE LA PIERRE(1,11), M. FERRERO(1,11),               *
 *  J. BAIMA(1,11), E. ALBANESE(1,11), M.F. PEINTINGER(12), R. BAST(13),       *
 *  B. KIRTMAN(15), V. LACIVITA(1,11), R. DEMICHELIS(1,16)                     *
 *  G. BRANDEBURG(17), S. SALUSTRO(1,11), G. SANSONE(1,11)                     *
 *  M.T. RUGGIERO(18), L.E. DAGA(1), L. DONA'(1), A. COSSARD(1)                *
 *                                                                             *
 * (1) THEORETICAL CHEMISTRY GROUP - UNIVERSITA' DI TORINO - TORINO (ITALY)    *
 * (2) SCIENTIFIC COMPUTING DEPARTMENT - STFC DARESBURY (UK)                   *
 * (3) UNIVERSIDAD AUTONOMA DEL ESTADO DE MORELOS - CUERNAVACA (MEXICO)        *
 * (4) UNIVERSITE' DE LORRAINE - NANCY (FRANCE)                                *
 * (5) UNIVERSITAET STUTTGART- STUTTGART (GERMANY)                             *
 * (6) IMPERIAL COLLEGE - LONDON (UK)                                          *
 * (7) SCIENTIFIC COMPUTING DEPARTMENT - STFC RAL (UK)                         *
 * (8) UPMC - SORBONNE UNIVERSITES - PARIS (FRANCE)                            *
 * (9) UNIVERSIDAD DE BARCELONA - BARCELONA (SPAIN)                            *
 *(10) UNIVERSITA' DI NAPOLI "FEDERICO II" - NAPOLI (ITALY)                    *
 *(11) NIS - NANOSTRUCTURED INTERFACES AND SURFACES - TORINO (ITALY)           *
 *(12) MPI FUER CHEMISCHE ENERGIEKONVERSION - MUELHEIM AN DER RUHR (GERMANY)   *
 *(13) UNIVERSITY OF TROMSO - TROMSO (NORWAY)                                  *
 *(14) UNIVERSITE' DE PAU ET DES PAYS DE L'ADOUR - PAU (FRANCE)                *
 *(15) UNIVERSITY OF CALIFORNIA SANTA BARBARA - SANTA BARBARA (USA)            *
 *(16) CURTIN UNIVERSITY - PERTH (AUSTRALIA)                                   *
 *(17) UNIVERSITY COLLEGE LONDON - LONDON (UK)                                 *
 *(18) UNIVERSITY OF VERMONT - BURLINGTON (USA)                                *
 *                                                                             *
 *******************************************************************************
 EEEEEEEEEE STARTING  DATE 19 02 2026 TIME 18:45:11.5
 cof-1_z36_L087_incl                                                             

 CRYSTAL CALCULATION
 (INPUT ACCORDING TO THE INTERNATIONAL TABLES FOR X-RAY CRYSTALLOGRAPHY)
 CRYSTAL FAMILY                       :  TRICLINIC   
 CRYSTAL CLASS  (GROTH - 1921)        :  TRICLINIC PEDIAL                     

 SPACE GROUP (NONCENTROSYMMETRIC)     :  P 1             

 LATTICE PARAMETERS  (ANGSTROMS AND DEGREES) - CONVENTIONAL CELL
        A           B           C        ALPHA        BETA       GAMMA
    15.02361    15.02392     9.39186    36.87866    89.99998   119.99596


 NUMBER OF IRREDUCIBLE ATOMS IN THE CONVENTIONAL CELL:   42

 INPUT COORDINATES

 ATOM AT. N.              COORDINATES
   1   5     4.465892600000E-01 -1.068983100000E-01  5.013197100000E-01
   2   5     6.056449100000E-01  5.216134000000E-02  5.013197300000E-01
   3   5     4.475148100000E-01  5.400397000000E-02  4.985299800000E-01
   4   5     6.016397000000E-02  2.794166800000E-01  5.013197200000E-01
   5   5     2.192719400000E-01  2.793959200000E-01  5.013197100000E-01
   6   5     2.201820400000E-01  4.403949500000E-01  4.985299800000E-01
   7   1     7.378800500000E-01 -2.143066000000E-02  4.955360400000E-01
   8   1    -6.823426000000E-02  3.612823500000E-01  4.946516100000E-01
   9   1     7.381480000000E-01  2.643920900000E-01  4.945154900000E-01
  10   1    -6.809855000000E-02  7.598196000000E-02  4.945494400000E-01
  11   1     5.228978800000E-01 -2.392991000000E-01  5.044497100000E-01
  12   1     1.405004000000E-01  5.665444200000E-01  5.053342000000E-01
  13   1     2.373952700000E-01 -2.399337100000E-01  5.054704000000E-01
  14   1     4.258488900000E-01  5.663864200000E-01  5.054362200000E-01
  15   1     5.259091600000E-01  2.636934600000E-01  4.955360900000E-01
  16   1     1.440930600000E-01  7.583827000000E-02  4.946515600000E-01
  17   1     2.410171900000E-01 -2.085702000000E-02  4.945153800000E-01
  18   1     4.294561100000E-01  3.612548800000E-01  4.945495500000E-01
  19   6     7.257628700000E-01  1.136550400000E-01  4.984279100000E-01
  20   6     7.812801800000E-01  6.233418000000E-02  4.956721400000E-01
  21   6    -1.117414600000E-01  2.768925600000E-01  4.954340800000E-01
  22   6     7.810844000000E-01  2.229231500000E-01  4.961485200000E-01
  23   6    -1.113290200000E-01  1.167057600000E-01  4.943113000000E-01
  24   6    -5.734315000000E-02  2.232439300000E-01  4.961825100000E-01
  25   6     3.868687600000E-01 -2.262068500000E-01  5.015578700000E-01
  26   6     4.390887000000E-01 -2.826565400000E-01  5.043135900000E-01
  27   6     2.246301400000E-01  6.102919200000E-01  5.045517400000E-01
  28   6     2.783571700000E-01 -2.822921000000E-01  5.038373200000E-01
  29   6     3.851741300000E-01  6.095038600000E-01  5.056744100000E-01
  30   6     2.780088500000E-01  5.561198100000E-01  5.038032600000E-01
  31   6     3.879174300000E-01  1.135859000000E-01  4.984279100000E-01
  32   6     4.420012700000E-01  2.231742900000E-01  4.956722000000E-01
  33   6     2.276938100000E-01  1.158793300000E-01  4.954340200000E-01
  34   6     2.809195800000E-01  6.192100000000E-02  4.961484400000E-01
  35   6     3.889875800000E-01  2.775537400000E-01  4.943113700000E-01
  36   6     2.805809400000E-01  2.231665300000E-01  4.961825100000E-01
  37   8     3.943257600000E-01 -5.248504000000E-02  4.992784300000E-01
  38   8     5.513090700000E-01 -5.640116000000E-02  5.051641000000E-01
  39   8     5.542663600000E-01  1.084637000000E-01  4.962846000000E-01
  40   8     1.139135800000E-01  3.867954200000E-01  4.992784600000E-01
  41   8     1.119713500000E-01  2.239161300000E-01  5.051640900000E-01
  42   8     2.738507800000E-01  3.887756800000E-01  4.962845800000E-01

 *******************************************************************************

 << INFORMATION >>: FROM NOW ON, ALL COORDINATES REFER TO THE PRIMITIVE CELL

 *******************************************************************************

 LATTICE PARAMETERS  (ANGSTROMS AND DEGREES) - PRIMITIVE CELL
       A          B          C        ALPHA      BETA     GAMMA        VOLUME
   15.02361   15.02392    9.39186    36.87866  89.99998 119.99596    703.743617

 COORDINATES OF THE EQUIVALENT ATOMS (FRACTIONAL UNITS)

 N. ATOM EQUIV AT. N.          X                  Y                  Z

   1   1   1    5 B     4.46589260000E-01 -1.06898310000E-01 -4.98680290000E-01

   2   2   1    5 B    -3.94355090000E-01  5.21613400000E-02 -4.98680270000E-01

   3   3   1    5 B     4.47514810000E-01  5.40039700000E-02  4.98529980000E-01

   4   4   1    5 B     6.01639700000E-02  2.79416680000E-01 -4.98680280000E-01

   5   5   1    5 B     2.19271940000E-01  2.79395920000E-01 -4.98680290000E-01

   6   6   1    5 B     2.20182040000E-01  4.40394950000E-01  4.98529980000E-01

   7   7   1    1 H    -2.62119950000E-01 -2.14306600000E-02  4.95536040000E-01

   8   8   1    1 H    -6.82342600000E-02  3.61282350000E-01  4.94651610000E-01

   9   9   1    1 H    -2.61852000000E-01  2.64392090000E-01  4.94515490000E-01

  10  10   1    1 H    -6.80985500000E-02  7.59819600000E-02  4.94549440000E-01

  11  11   1    1 H    -4.77102120000E-01 -2.39299100000E-01 -4.95550290000E-01

  12  12   1    1 H     1.40500400000E-01 -4.33455580000E-01 -4.94665800000E-01

  13  13   1    1 H     2.37395270000E-01 -2.39933710000E-01 -4.94529600000E-01

  14  14   1    1 H     4.25848890000E-01 -4.33613580000E-01 -4.94563780000E-01

  15  15   1    1 H    -4.74090840000E-01  2.63693460000E-01  4.95536090000E-01

  16  16   1    1 H     1.44093060000E-01  7.58382700000E-02  4.94651560000E-01

  17  17   1    1 H     2.41017190000E-01 -2.08570200000E-02  4.94515380000E-01

  18  18   1    1 H     4.29456110000E-01  3.61254880000E-01  4.94549550000E-01

  19  19   1    6 C    -2.74237130000E-01  1.13655040000E-01  4.98427910000E-01

  20  20   1    6 C    -2.18719820000E-01  6.23341800000E-02  4.95672140000E-01

  21  21   1    6 C    -1.11741460000E-01  2.76892560000E-01  4.95434080000E-01

  22  22   1    6 C    -2.18915600000E-01  2.22923150000E-01  4.96148520000E-01

  23  23   1    6 C    -1.11329020000E-01  1.16705760000E-01  4.94311300000E-01

  24  24   1    6 C    -5.73431500000E-02  2.23243930000E-01  4.96182510000E-01

  25  25   1    6 C     3.86868760000E-01 -2.26206850000E-01 -4.98442130000E-01

  26  26   1    6 C     4.39088700000E-01 -2.82656540000E-01 -4.95686410000E-01

  27  27   1    6 C     2.24630140000E-01 -3.89708080000E-01 -4.95448260000E-01

  28  28   1    6 C     2.78357170000E-01 -2.82292100000E-01 -4.96162680000E-01

  29  29   1    6 C     3.85174130000E-01 -3.90496140000E-01 -4.94325590000E-01

  30  30   1    6 C     2.78008850000E-01 -4.43880190000E-01 -4.96196740000E-01

  31  31   1    6 C     3.87917430000E-01  1.13585900000E-01  4.98427910000E-01

  32  32   1    6 C     4.42001270000E-01  2.23174290000E-01  4.95672200000E-01

  33  33   1    6 C     2.27693810000E-01  1.15879330000E-01  4.95434020000E-01

  34  34   1    6 C     2.80919580000E-01  6.19210000000E-02  4.96148440000E-01

  35  35   1    6 C     3.88987580000E-01  2.77553740000E-01  4.94311370000E-01

  36  36   1    6 C     2.80580940000E-01  2.23166530000E-01  4.96182510000E-01

  37  37   1    8 O     3.94325760000E-01 -5.24850400000E-02  4.99278430000E-01

  38  38   1    8 O    -4.48690930000E-01 -5.64011600000E-02 -4.94835900000E-01

  39  39   1    8 O    -4.45733640000E-01  1.08463700000E-01  4.96284600000E-01

  40  40   1    8 O     1.13913580000E-01  3.86795420000E-01  4.99278460000E-01

  41  41   1    8 O     1.11971350000E-01  2.23916130000E-01 -4.94835910000E-01

  42  42   1    8 O     2.73850780000E-01  3.88775680000E-01  4.96284580000E-01

 NUMBER OF SYMMETRY OPERATORS         :    1
 *******************************************************************************
 * GEOMETRY EDITING - INPUT COORDINATES ARE GIVEN IN ANGSTROM         
 *******************************************************************************

 GCALCO - MAX INDICES DIRECT LATTICE VECTOR     9    15    22
 NO.OF VECTORS CREATED 6999 STARS 3500 RMAX   218.53893 BOHR

 GEOMETRY FOR WAVE FUNCTION - DIMENSIONALITY OF THE SYSTEM    3
 (NON PERIODIC DIRECTION: LATTICE PARAMETER FORMALLY SET TO 500)
 *******************************************************************************
 LATTICE PARAMETERS (ANGSTROMS AND DEGREES) - BOHR = 0.5291772083 ANGSTROM
 PRIMITIVE CELL - CENTRING CODE 1/0 VOLUME=   703.743617 - DENSITY  0.921 g/cm^3
         A              B              C           ALPHA      BETA       GAMMA 
    15.02361100    15.02391600     9.39185800    36.878656  89.999978 119.995964
 *******************************************************************************
 ATOMS IN THE ASYMMETRIC UNIT   42 - ATOMS IN THE UNIT CELL:   42
     ATOM                 X/A                 Y/B                 Z/C    
 *******************************************************************************
      1 T   5 B     4.465892600000E-01 -1.068983100000E-01 -4.986802900000E-01
      2 T   5 B    -3.943550900000E-01  5.216134000000E-02 -4.986802700000E-01
      3 T   5 B     4.475148100000E-01  5.400397000000E-02  4.985299800000E-01
      4 T   5 B     6.016397000000E-02  2.794166800000E-01 -4.986802800000E-01
      5 T   5 B     2.192719400000E-01  2.793959200000E-01 -4.986802900000E-01
      6 T   5 B     2.201820400000E-01  4.403949500000E-01  4.985299800000E-01
      7 T   1 H    -2.621199500000E-01 -2.143066000000E-02  4.955360400000E-01
      8 T   1 H    -6.823426000000E-02  3.612823500000E-01  4.946516100000E-01
      9 T   1 H    -2.618520000000E-01  2.643920900000E-01  4.945154900000E-01
     10 T   1 H    -6.809855000000E-02  7.598196000000E-02  4.945494400000E-01
     11 T   1 H    -4.771021200000E-01 -2.392991000000E-01 -4.955502900000E-01
     12 T   1 H     1.405004000000E-01 -4.334555800000E-01 -4.946658000000E-01
     13 T   1 H     2.373952700000E-01 -2.399337100000E-01 -4.945296000000E-01
     14 T   1 H     4.258488900000E-01 -4.336135800000E-01 -4.945637800000E-01
     15 T   1 H    -4.740908400000E-01  2.636934600000E-01  4.955360900000E-01
     16 T   1 H     1.440930600000E-01  7.583827000000E-02  4.946515600000E-01
     17 T   1 H     2.410171900000E-01 -2.085702000000E-02  4.945153800000E-01
     18 T   1 H     4.294561100000E-01  3.612548800000E-01  4.945495500000E-01
     19 T   6 C    -2.742371300000E-01  1.136550400000E-01  4.984279100000E-01
     20 T   6 C    -2.187198200000E-01  6.233418000000E-02  4.956721400000E-01
     21 T   6 C    -1.117414600000E-01  2.768925600000E-01  4.954340800000E-01
     22 T   6 C    -2.189156000000E-01  2.229231500000E-01  4.961485200000E-01
     23 T   6 C    -1.113290200000E-01  1.167057600000E-01  4.943113000000E-01
     24 T   6 C    -5.734315000000E-02  2.232439300000E-01  4.961825100000E-01
     25 T   6 C     3.868687600000E-01 -2.262068500000E-01 -4.984421300000E-01
     26 T   6 C     4.390887000000E-01 -2.826565400000E-01 -4.956864100000E-01
     27 T   6 C     2.246301400000E-01 -3.897080800000E-01 -4.954482600000E-01
     28 T   6 C     2.783571700000E-01 -2.822921000000E-01 -4.961626800000E-01
     29 T   6 C     3.851741300000E-01 -3.904961400000E-01 -4.943255900000E-01
     30 T   6 C     2.780088500000E-01 -4.438801900000E-01 -4.961967400000E-01
     31 T   6 C     3.879174300000E-01  1.135859000000E-01  4.984279100000E-01
     32 T   6 C     4.420012700000E-01  2.231742900000E-01  4.956722000000E-01
     33 T   6 C     2.276938100000E-01  1.158793300000E-01  4.954340200000E-01
     34 T   6 C     2.809195800000E-01  6.192100000000E-02  4.961484400000E-01
     35 T   6 C     3.889875800000E-01  2.775537400000E-01  4.943113700000E-01
     36 T   6 C     2.805809400000E-01  2.231665300000E-01  4.961825100000E-01
     37 T   8 O     3.943257600000E-01 -5.248504000000E-02  4.992784300000E-01
     38 T   8 O    -4.486909300000E-01 -5.640116000000E-02 -4.948359000000E-01
     39 T   8 O    -4.457336400000E-01  1.084637000000E-01  4.962846000000E-01
     40 T   8 O     1.139135800000E-01  3.867954200000E-01  4.992784600000E-01
     41 T   8 O     1.119713500000E-01  2.239161300000E-01 -4.948359100000E-01
     42 T   8 O     2.738507800000E-01  3.887756800000E-01  4.962845800000E-01

 T = ATOM BELONGING TO THE ASYMMETRIC UNIT

 ****    1 SYMMOPS - TRANSLATORS IN FRACTIONAL UNITS
 **** MATRICES AND TRANSLATORS IN THE CRYSTALLOGRAPHIC REFERENCE FRAME
   V INV                    ROTATION MATRICES                   TRANSLATORS
   1   1  1.00 -0.00  0.00  0.00  1.00  0.00 -0.00 -0.00  1.00  0.00  0.00  0.00

 DIRECT LATTICE VECTORS CARTESIAN COMPONENTS (ANGSTROM)
          X                    Y                    Z
   0.130113578931E+02  -0.751088897922E+01   0.000000000000E+00
   0.000000000000E+00   0.150239160000E+02   0.000000000000E+00
   0.433671460992E+01   0.751262491664E+01   0.360005138104E+01


 CARTESIAN COORDINATES - PRIMITIVE CELL
 *******************************************************************************
 *      ATOM          X(ANGSTROM)         Y(ANGSTROM)         Z(ANGSTROM)
 *******************************************************************************
    1     5 B    -6.886160161916E-01 -1.195420469886E+00 -5.395326047745E+00
    2     5 B     1.380914057605E+00 -3.708277116911E-04 -5.395325975744E+00
    3     5 B    -6.898856800295E-01  1.194983699781E+00  5.394784924022E+00
    4     5 B    -1.379819110019E+00 -3.500668659808E-04 -1.795274630709E+00
    5     5 B     6.903915879211E-01 -1.195704336867E+00 -1.795274666710E+00
    6     5 B     6.901349618908E-01  1.195337710766E+00 -1.805317838049E+00
    7     1 H    -1.261538095949E+00  5.369557809221E+00  1.783955205155E+00
    8     1 H    -3.079372123442E+00  2.143882723823E+00 -1.819280169323E+00
    9     1 H    -1.262477536696E+00 -5.369860755950E+00  1.780281172718E+00
   10     1 H    -3.078049434194E+00 -2.144233237936E+00 -1.819647986573E+00
   11     1 H    -4.020092007528E+00  3.777992938332E+00  1.816044875148E+00
   12     1 H    -3.171234133717E-01  3.740194255923E+00 -1.780822296441E+00
   13     1 H     5.280915688653E+00 -1.590383900105E+00  1.819719411592E+00
   14     1 H     3.396090345886E+00  1.595366086412E+00 -1.780455019199E+00
   15     1 H    -4.019566991813E+00 -3.778587165078E+00  1.783955385157E+00
   16     1 H    -3.167055892842E-01 -3.739372460200E+00 -1.819280349326E+00
   17     1 H     5.280532990747E+00  1.591501092788E+00  1.780280776712E+00
   18     1 H     3.395812795463E+00 -1.595393836744E+00 -1.819647590567E+00
   19     6 C    -5.743372456627E+00 -8.145694805539E-04 -1.805685295293E+00
   20     6 C    -5.032967854978E+00 -1.209542277370E+00 -1.815606208888E+00
   21     6 C    -3.642066524486E+00  1.208673760220E+00 -1.816463237119E+00
   22     6 C    -5.033449294521E+00  1.208182264539E+00 -1.813891216411E+00
   23     6 C    -3.641569296466E+00 -1.209492083343E+00 -1.820505302809E+00
   24     6 C    -2.931024916983E+00 -2.957436155365E-04 -1.813768850664E+00
   25     6 C     2.872086626631E+00  4.975066215746E+00 -1.794417278473E+00
   26     6 C     3.563489726310E+00  3.755455333854E+00 -1.784496544881E+00
   27     6 C     7.741254375044E-01  3.759685555650E+00 -1.783639192645E+00
   28     6 C     1.470088817714E+00  4.964589289222E+00 -1.786211141352E+00
   29     6 C     2.867889448365E+00  2.550451921852E+00 -1.779597522961E+00
   30     6 C     1.465408993033E+00  2.539263711306E+00 -1.786333759102E+00
   31     6 C     2.872157504052E+00 -4.975222710275E+00 -1.805685295293E+00
   32     6 C     3.563910974705E+00 -3.755696277758E+00 -1.815605992885E+00
   33     6 C     7.744469948074E-01 -3.759836561546E+00 -1.816463453122E+00
   34     6 C     1.470084773063E+00 -4.964907658777E+00 -1.813891504415E+00
   35     6 C     2.868229349541E+00 -2.550747454229E+00 -1.820505050805E+00
   36     6 C     1.465826358692E+00 -2.539568918107E+00 -1.813768850664E+00
   37     8 O    -1.378701631521E+00  2.216321963882E-04  5.397479382478E+00
   38     8 O     6.906029324905E-01 -1.194412936778E+00 -5.381486046216E+00
   39     8 O     6.893593704082E-01  1.194514370539E+00  5.386701440652E+00
   40     8 O    -6.893160597619E-01  1.193856528956E+00 -1.802623271591E+00
   41     8 O    -6.890628117929E-01 -1.194423837653E+00 -1.781434701181E+00
   42     8 O     1.378700486715E+00 -1.546614776830E-04 -1.813401393420E+00

 *******************************************************************************
 STARTING BASIS SET HANDLING 
 *******************************************************************************

 Loading internal basis set: SOLDEF2MSVP         

 Please cite in your publication:
 L. Dona', J. G. Brandenburg and B. Civalleri, J. Chem. Phys., 151, 121101 (2019
 )                                                                              
                                                                                
                    

 *******************************************************************************
 LOCAL ATOMIC FUNCTIONS BASIS SET
 *******************************************************************************
   ATOM   X(AU)   Y(AU)   Z(AU)  N. TYPE  EXPONENT  S COEF   P COEF   D/F/G COEF
 *******************************************************************************
   1 B   -1.301  -2.259 -10.196
                                  1 S  
                                         2.410E+03 1.755E-03 0.000E+00 0.000E+00
                                         3.619E+02 1.344E-02 0.000E+00 0.000E+00
                                         8.231E+01 6.637E-02 0.000E+00 0.000E+00
                                         2.311E+01 2.303E-01 0.000E+00 0.000E+00
                                         7.252E+00 5.150E-01 0.000E+00 0.000E+00
                                  2 S  
                                         2.367E+00 1.000E+00 0.000E+00 0.000E+00
                                  3 S  
                                         5.533E-01 1.000E+00 0.000E+00 0.000E+00
                                  4 S  
                                         1.716E-01 1.000E+00 0.000E+00 0.000E+00
                           5-     7 P  
                                         6.002E+00 0.000E+00-3.555E-02 0.000E+00
                                         1.240E+00 0.000E+00-1.983E-01 0.000E+00
                                         3.367E-01 0.000E+00-5.048E-01 0.000E+00
                           8-    10 P  
                                         1.256E-01 0.000E+00 1.000E+00 0.000E+00
                          11-    15 D  
                                         8.880E-01 0.000E+00 0.000E+00 1.000E+00
   2 B    2.610  -0.001 -10.196
   3 B   -1.304   2.258  10.195
   4 B   -2.607  -0.001  -3.393
   5 B    1.305  -2.260  -3.393
   6 B    1.304   2.259  -3.412
   7 H   -2.384  10.147   3.371
                                 91 S  
                                         1.874E+01 1.968E-02 0.000E+00 0.000E+00
                                         2.826E+00 1.380E-01 0.000E+00 0.000E+00
                                         6.401E-01 4.783E-01 0.000E+00 0.000E+00
                                 92 S  
                                         1.756E-01 1.000E+00 0.000E+00 0.000E+00
   8 H   -5.819   4.051  -3.438
   9 H   -2.386 -10.148   3.364
  10 H   -5.817  -4.052  -3.439
  11 H   -7.597   7.139   3.432
  12 H   -0.599   7.068  -3.365
  13 H    9.979  -3.005   3.439
  14 H    6.418   3.015  -3.365
  15 H   -7.596  -7.140   3.371
  16 H   -0.598  -7.066  -3.438
  17 H    9.979   3.008   3.364
  18 H    6.417  -3.015  -3.439
  19 C  -10.853  -0.002  -3.412
                                115 S  
                                         3.624E+03 1.634E-03 0.000E+00 0.000E+00
                                         5.440E+02 1.252E-02 0.000E+00 0.000E+00
                                         1.237E+02 6.211E-02 0.000E+00 0.000E+00
                                         3.476E+01 2.182E-01 0.000E+00 0.000E+00
                                         1.093E+01 4.980E-01 0.000E+00 0.000E+00
                                116 S  
                                         3.574E+00 1.000E+00 0.000E+00 0.000E+00
                                117 S  
                                         7.742E-01 1.000E+00 0.000E+00 0.000E+00
                                118 S  
                                         2.330E-01 1.000E+00 0.000E+00 0.000E+00
                         119-   121 P  
                                         9.443E+00 0.000E+00 3.790E-02 0.000E+00
                                         2.002E+00 0.000E+00 2.082E-01 0.000E+00
                                         5.463E-01 0.000E+00 5.047E-01 0.000E+00
                         122-   124 P  
                                         1.820E-01 0.000E+00 1.000E+00 0.000E+00
                         125-   129 D  
                                         8.880E-01 0.000E+00 0.000E+00 1.000E+00
  20 C   -9.511  -2.286  -3.431
  21 C   -6.883   2.284  -3.433
  22 C   -9.512   2.283  -3.428
  23 C   -6.882  -2.286  -3.440
  24 C   -5.539  -0.001  -3.428
  25 C    5.427   9.402  -3.391
  26 C    6.734   7.097  -3.372
  27 C    1.463   7.105  -3.371
  28 C    2.778   9.382  -3.375
  29 C    5.420   4.820  -3.363
  30 C    2.769   4.799  -3.376
  31 C    5.428  -9.402  -3.412
  32 C    6.735  -7.097  -3.431
  33 C    1.463  -7.105  -3.433
  34 C    2.778  -9.382  -3.428
  35 C    5.420  -4.820  -3.440
  36 C    2.770  -4.799  -3.428
  37 O   -2.605   0.000  10.200
                                385 S  
                                         6.773E+03 1.727E-03 0.000E+00 0.000E+00
                                         1.017E+03 1.325E-02 0.000E+00 0.000E+00
                                         2.313E+02 6.603E-02 0.000E+00 0.000E+00
                                         6.501E+01 2.353E-01 0.000E+00 0.000E+00
                                         2.050E+01 5.498E-01 0.000E+00 0.000E+00
                                386 S  
                                         6.716E+00 1.000E+00 0.000E+00 0.000E+00
                                387 S  
                                         1.147E+00 1.000E+00 0.000E+00 0.000E+00
                                388 S  
                                         3.342E-01 1.000E+00 0.000E+00 0.000E+00
                         389-   391 P  
                                         1.769E+01 0.000E+00 4.359E-02 0.000E+00
                                         3.854E+00 0.000E+00 2.318E-01 0.000E+00
                                         1.047E+00 0.000E+00 5.146E-01 0.000E+00
                         392-   394 P  
                                         2.759E-01 0.000E+00 1.000E+00 0.000E+00
                         395-   399 D  
                                         8.000E-01 0.000E+00 0.000E+00 1.000E+00
  38 O    1.305  -2.257 -10.170
  39 O    1.303   2.257  10.179
  40 O   -1.303   2.256  -3.406
  41 O   -1.302  -2.257  -3.366
  42 O    2.605  -0.000  -3.427

 *******************************************************************************
 FINISHED BASIS SET HANDLING 
 *******************************************************************************

 INFORMATION **** SET_MPP **** PCRYSTAL CALCULATION
 INFORMATION **** READM2 **** NEW DEFAULT: FOCK/KS MATRIX MIXING SET TO 30 %
 INFORMATION **** READM2 **** NEW DEFAULT: FULL DIRECT SCF MODE
 INFORMATION **** READM2 **** NEW DEFAULT: COULOMB BIPOLAR BUFFER SET TO 32 Mb
 INFORMATION **** READM2 **** NEW DEFAULT: EXCHANGE BIPOLAR BUFFER SET TO 32 Mb

 *******************************************************************************
 NEW DEFAULT: DFT INTEGRATION GRID INCREASED TO XLGRID
 NEW DEFAULT: DIIS ACCELERATOR ACTIVE
 USE KEYWORD NODIIS TO TURN IT OFF
 *******************************************************************************

 WARNING **** RDDFTP **** HSEsol-HJS ACTIVE
 RANGE SEPARATION - OMEGA:   0.110000000000000     
 WARNING **** RDDFTP **** HSEsol-3c has to be combined with sol-def2-mSVP basis set
 *******************************************************************************
 N. OF ATOMS PER CELL        42  COULOMB OVERLAP TOL         (T1) 10**   -6
 NUMBER OF SHELLS           234  COULOMB PENETRATION TOL     (T2) 10**   -6
 NUMBER OF AO               474  EXCHANGE OVERLAP TOL        (T3) 10**   -6
 N. OF ELECTRONS PER CELL   198  EXCHANGE PSEUDO OVP (F(G))  (T4) 10**   -6
 CORE ELECTRONS PER CELL     60  EXCHANGE PSEUDO OVP (P(G))  (T5) 10**  -12
 N. OF SYMMETRY OPERATORS     1  POLE ORDER IN MONO ZONE                  4
 *******************************************************************************
 TYPE OF CALCULATION :  RESTRICTED CLOSED SHELL
 KOHN-SHAM HAMILTONIAN

 (EXCHANGE)[CORRELATION] FUNCTIONAL:(HSEsol GGA)[PBEsol]

 RANGE-SEPARATED HYBRID FUNCTIONAL 
 OMEGA (SHORT-RANGE)[LONG-RANGE]:(    0.1100)[    0.0000]

 HYBRID EXCHANGE - PERCENTAGE OF FOCK EXCHANGE    25.0000

 CAPPA:IS1  2;IS2  2;IS3  8; K PTS MONK NET  20; SYMMOPS:K SPACE   2;G SPACE   1

 *******************************************************************************
 MAX NUMBER OF SCF CYCLES      50  CONVERGENCE ON DELTAP        10**-16
 WEIGHT OF F(I) IN F(I+1)      30% CONVERGENCE ON ENERGY        10**- 6
 SHRINK. FACT.(MONKH.)    2  2  8  NUMBER OF K POINTS IN THE IBZ     20
 SHRINKING FACTOR(GILAT NET)    8  NUMBER OF K POINTS(GILAT NET)   1028
 *******************************************************************************
 *** K POINTS COORDINATES (OBLIQUE COORDINATES IN UNITS OF IS =  2)
   1-R(  0  0  0)   2-R(  1  0  0)   3-R(  0  1  0)   4-R(  1  1  0)
   5-C(  0  0  1)   6-C(  1  0  1)   7-C(  0  1  1)   8-C(  1  1  1)
   9-C(  0  0  2)  10-C(  1  0  2)  11-C(  0  1  2)  12-C(  1  1  2)
  13-C(  0  0  3)  14-C(  1  0  3)  15-C(  0  1  3)  16-C(  1  1  3)
  17-R(  0  0  4)  18-R(  1  0  4)  19-R(  0  1  4)  20-R(  1  1  4)

 DIRECT LATTICE VECTORS COMPON. (A.U.)     RECIP. LATTICE VECTORS COMPON. (A.U.) 
        X            Y            Z              X            Y            Z
   24.5879030  -14.1935232    0.0000000      0.2555397    0.0000000   -0.3078297
    0.0000000   28.3910867    0.0000000      0.1277517    0.2213084   -0.6157216
    8.1952029   14.1968036    6.8031112      0.0000000    0.0000000    0.9235753

 DISK SPACE FOR EIGENVECTORS (FTN 10)     7189632 REALS

 SYMMETRY ADAPTION OF THE BLOCH FUNCTIONS DISABLED
 TTTTTTTTTTTTTTTTTTTTTTTTTTTTTT gordsh1     TELAPSE        0.04 TCPU        0.04

 MATRIX SIZE: P(G)  318320, F(G)   62460, P(G) IRR  160111, F(G) IRR   62940
 MAX G-VECTOR INDEX FOR 1- AND 2-ELECTRON INTEGRALS  59

 TTTTTTTTTTTTTTTTTTTTTTTTTTTTTT INPUT       TELAPSE        0.43 TCPU        0.43

 NEIGHBORS OF THE NON-EQUIVALENT ATOMS

 N = NUMBER OF NEIGHBORS AT DISTANCE R
    ATOM  N     R/ANG      R/AU   NEIGHBORS (ATOM LABELS AND CELL INDICES)
   1 B    1     1.3791     2.6061   37 O    1 2-3
   1 B    1     1.3793     2.6065   38 O    0 0 0
   1 B    1     1.5503     2.9297   25 C    0 0-1
   1 B    1     2.3895     4.5155    3 B    1 2-3
   1 B    1     2.3898     4.5160    2 B    0 0 0
   1 B    1     2.5632     4.8437   26 C    0 0-1

   2 B    1     1.3793     2.6065   39 O    1 2-3
   2 B    1     1.3793     2.6065   38 O    0 0 0
   2 B    1     1.5504     2.9298   19 C    1 1-1
   2 B    1     2.3895     4.5156    3 B    1 2-3
   2 B    1     2.3898     4.5160    1 B    0 0 0
   2 B    1     2.5634     4.8440   22 C    1 1-1

   3 B    1     1.3791     2.6061   37 O    0 0 0
   3 B    1     1.3793     2.6064   39 O    0 0 0
   3 B    1     1.5502     2.9294   31 C   -1-1 2
   3 B    1     2.3895     4.5155    1 B   -1-2 3
   3 B    1     2.3895     4.5156    2 B   -1-2 3
   3 B    1     2.5629     4.8433   32 C   -1-1 2

   4 B    1     1.3795     2.6068   40 O    0 0 0
   4 B    1     1.3795     2.6070   41 O    0 0 0
   4 B    1     1.5513     2.9316   24 C    0 0 0
   4 B    1     2.3905     4.5174    6 B    0 0 0
   4 B    1     2.3905     4.5175    5 B    0 0 0
   4 B    1     2.5648     4.8468   23 C    0 0 0

   5 B    1     1.3795     2.6069   41 O    0 0 0
   5 B    1     1.3797     2.6072   42 O    0 0 0
   5 B    1     1.5516     2.9322   36 C    0 0 0
   5 B    1     2.3905     4.5175    4 B    0 0 0
   5 B    1     2.3911     4.5185    6 B    0 0 0
   5 B    1     2.5651     4.8473   35 C    0 0 0

   6 B    1     1.3795     2.6068   40 O    0 0 0
   6 B    1     1.3796     2.6071   42 O    0 0 0
   6 B    1     1.5516     2.9322   30 C    0 0 0
   6 B    1     2.3905     4.5174    4 B    0 0 0
   6 B    1     2.3911     4.5185    5 B    0 0 0
   6 B    1     2.5651     4.8473   29 C    0 0 0

   7 H    1     1.0913     2.0623   20 C    0 0 1
   7 H    1     2.1472     4.0576   19 C    0 0 1
   7 H    1     2.1680     4.0969   23 C    0 0 1
   7 H    1     2.5202     4.7625   10 H    0 0 1
   7 H    1     2.5676     4.8520   38 O   -1-1 2
   7 H    1     2.7321     5.1630    2 B   -1-1 2

   8 H    1     1.0914     2.0625   21 C    0 0 0
   8 H    1     2.1493     4.0616   24 C    0 0 0
   8 H    1     2.1666     4.0942   22 C    0 0 0
   8 H    1     2.5198     4.7618    9 H    0 1-1
   8 H    1     2.5720     4.8604   40 O    0 0 0
   8 H    1     2.7362     5.1707    4 B    0 0 0

   9 H    1     1.0914     2.0624   22 C    0-1 1
   9 H    1     2.1471     4.0575   19 C    0-1 1
   9 H    1     2.1680     4.0970   21 C    0-1 1
   9 H    1     2.5198     4.7618    8 H    0-1 1
   9 H    1     2.5665     4.8500   39 O    0 0-1
   9 H    1     2.7315     5.1618    2 B   -1-2 2

  10 H    1     1.0915     2.0626   23 C    0 0 0
  10 H    1     2.1490     4.0610   24 C    0 0 0
  10 H    1     2.1669     4.0948   20 C    0 0 0
  10 H    1     2.5202     4.7625    7 H    0 0-1
  10 H    1     2.5712     4.8588   41 O    0 0 0
  10 H    1     2.7351     5.1686    4 B    0 0 0

  11 H    1     1.0913     2.0623   26 C   -1-1 1
  11 H    1     2.1469     4.0571   25 C   -1-1 1
  11 H    1     2.1680     4.0968   29 C   -1-1 1
  11 H    1     2.5198     4.7617   14 H   -1-1 1
  11 H    1     2.5670     4.8510   38 O   -1-1 2
  11 H    1     2.7310     5.1609    1 B   -1-1 2

  12 H    1     1.0914     2.0625   27 C    0 0 0
  12 H    1     2.1493     4.0617   30 C    0 0 0
  12 H    1     2.1664     4.0939   28 C    0 0 0
  12 H    1     2.5192     4.7606   13 H    0 1-1
  12 H    1     2.5735     4.8632   40 O    0 0 0
  12 H    1     2.7371     5.1723    6 B    0 0 0

  13 H    1     1.0914     2.0624   28 C    0-1 1
  13 H    1     2.1475     4.0581   25 C    0-1 1
  13 H    1     2.1679     4.0967   27 C    0-1 1
  13 H    1     2.5192     4.7606   12 H    0-1 1
  13 H    1     2.5675     4.8519   37 O    1 1-1
  13 H    1     2.7328     5.1643    1 B    0-1 2

  14 H    1     1.0914     2.0625   29 C    0 0 0
  14 H    1     2.1491     4.0612   30 C    0 0 0
  14 H    1     2.1666     4.0942   26 C    0 0 0
  14 H    1     2.5198     4.7617   11 H    1 1-1
  14 H    1     2.5723     4.8609   42 O    0 0 0
  14 H    1     2.7355     5.1693    6 B    0 0 0

  15 H    1     1.0914     2.0624   32 C   -1-1 1
  15 H    1     2.1475     4.0582   31 C   -1-1 1
  15 H    1     2.1678     4.0966   35 C   -1-1 1
  15 H    1     2.5200     4.7621   18 H   -1-1 1
  15 H    1     2.5667     4.8503   39 O    0 0-1
  15 H    1     2.7315     5.1618    3 B    0 0-1

  16 H    1     1.0913     2.0623   33 C    0 0 0
  16 H    1     2.1487     4.0605   36 C    0 0 0
  16 H    1     2.1667     4.0945   34 C    0 0 0
  16 H    1     2.5197     4.7616   17 H    0 0-1
  16 H    1     2.5723     4.8610   41 O    0 0 0
  16 H    1     2.7359     5.1701    5 B    0 0 0

  17 H    1     1.0915     2.0626   34 C    0 0 1
  17 H    1     2.1479     4.0589   31 C    0 0 1
  17 H    1     2.1679     4.0968   33 C    0 0 1
  17 H    1     2.5197     4.7616   16 H    0 0 1
  17 H    1     2.5677     4.8522   37 O    1 1-1
  17 H    1     2.7331     5.1648    3 B    1 1-1

  18 H    1     1.0914     2.0624   35 C    0 0 0
  18 H    1     2.1486     4.0602   36 C    0 0 0
  18 H    1     2.1668     4.0947   32 C    0 0 0
  18 H    1     2.5200     4.7621   15 H    1 1-1
  18 H    1     2.5717     4.8598   42 O    0 0 0
  18 H    1     2.7349     5.1682    5 B    0 0 0

  19 C    1     1.4020     2.6495   22 C    0 0 0
  19 C    1     1.4021     2.6495   20 C    0 0 0
  19 C    1     1.5504     2.9298    2 B   -1-1 1
  19 C    1     2.1471     4.0575    9 H    0 1-1
  19 C    1     2.1472     4.0576    7 H    0 0-1
  19 C    1     2.4246     4.5817   21 C    0 0 0

  20 C    1     1.0913     2.0623    7 H    0 0-1
  20 C    1     1.3914     2.6294   23 C    0 0 0
  20 C    1     1.4021     2.6495   19 C    0 0 0
  20 C    1     2.1669     4.0948   10 H    0 0 0
  20 C    1     2.4177     4.5688   22 C    0 0 0
  20 C    1     2.4250     4.5825   24 C    0 0 0

  21 C    1     1.0914     2.0625    8 H    0 0 0
  21 C    1     1.3914     2.6293   22 C    0 0 0
  21 C    1     1.4026     2.6505   24 C    0 0 0
  21 C    1     2.1680     4.0970    9 H    0 1-1
  21 C    1     2.4182     4.5697   23 C    0 0 0
  21 C    1     2.4246     4.5817   19 C    0 0 0

  22 C    1     1.0914     2.0624    9 H    0 1-1
  22 C    1     1.3914     2.6293   21 C    0 0 0
  22 C    1     1.4020     2.6495   19 C    0 0 0
  22 C    1     2.1666     4.0942    8 H    0 0 0
  22 C    1     2.4177     4.5688   20 C    0 0 0
  22 C    1     2.4250     4.5826   24 C    0 0 0

  23 C    1     1.0915     2.0626   10 H    0 0 0
  23 C    1     1.3914     2.6294   20 C    0 0 0
  23 C    1     1.4025     2.6504   24 C    0 0 0
  23 C    1     2.1680     4.0969    7 H    0 0-1
  23 C    1     2.4182     4.5697   21 C    0 0 0
  23 C    1     2.4246     4.5818   19 C    0 0 0

  24 C    1     1.4025     2.6504   23 C    0 0 0
  24 C    1     1.4026     2.6505   21 C    0 0 0
  24 C    1     1.5513     2.9316    4 B    0 0 0
  24 C    1     2.1490     4.0610   10 H    0 0 0
  24 C    1     2.1493     4.0616    8 H    0 0 0
  24 C    1     2.4250     4.5825   20 C    0 0 0

  25 C    1     1.4020     2.6494   26 C    0 0 0
  25 C    1     1.4021     2.6495   28 C    0 0 0
  25 C    1     1.5503     2.9297    1 B    0 0 1
  25 C    1     2.1469     4.0571   11 H    1 1-1
  25 C    1     2.1475     4.0581   13 H    0 1-1
  25 C    1     2.4246     4.5818   27 C    0 0 0

  26 C    1     1.0913     2.0623   11 H    1 1-1
  26 C    1     1.3914     2.6293   29 C    0 0 0
  26 C    1     1.4020     2.6494   25 C    0 0 0
  26 C    1     2.1666     4.0942   14 H    0 0 0
  26 C    1     2.4175     4.5684   28 C    0 0 0
  26 C    1     2.4251     4.5828   30 C    0 0 0

  27 C    1     1.0914     2.0625   12 H    0 0 0
  27 C    1     1.3915     2.6295   28 C    0 0 0
  27 C    1     1.4026     2.6505   30 C    0 0 0
  27 C    1     2.1679     4.0967   13 H    0 1-1
  27 C    1     2.4179     4.5691   29 C    0 0 0
  27 C    1     2.4246     4.5818   25 C    0 0 0

  28 C    1     1.0914     2.0624   13 H    0 1-1
  28 C    1     1.3915     2.6295   27 C    0 0 0
  28 C    1     1.4021     2.6495   25 C    0 0 0
  28 C    1     2.1664     4.0939   12 H    0 0 0
  28 C    1     2.4175     4.5684   26 C    0 0 0
  28 C    1     2.4253     4.5832   30 C    0 0 0

  29 C    1     1.0914     2.0625   14 H    0 0 0
  29 C    1     1.3914     2.6293   26 C    0 0 0
  29 C    1     1.4025     2.6504   30 C    0 0 0
  29 C    1     2.1680     4.0968   11 H    1 1-1
  29 C    1     2.4179     4.5691   27 C    0 0 0
  29 C    1     2.4247     4.5819   25 C    0 0 0

  30 C    1     1.4025     2.6504   29 C    0 0 0
  30 C    1     1.4026     2.6505   27 C    0 0 0
  30 C    1     1.5516     2.9322    6 B    0 0 0
  30 C    1     2.1491     4.0612   14 H    0 0 0
  30 C    1     2.1493     4.0617   12 H    0 0 0
  30 C    1     2.4251     4.5828   26 C    0 0 0

  31 C    1     1.4021     2.6496   32 C    0 0 0
  31 C    1     1.4021     2.6497   34 C    0 0 0
  31 C    1     1.5502     2.9294    3 B    1 1-2
  31 C    1     2.1475     4.0582   15 H    1 1-1
  31 C    1     2.1479     4.0589   17 H    0 0-1
  31 C    1     2.4244     4.5814   33 C    0 0 0

  32 C    1     1.0914     2.0624   15 H    1 1-1
  32 C    1     1.3914     2.6293   35 C    0 0 0
  32 C    1     1.4021     2.6496   31 C    0 0 0
  32 C    1     2.1668     4.0947   18 H    0 0 0
  32 C    1     2.4179     4.5692   34 C    0 0 0
  32 C    1     2.4251     4.5827   36 C    0 0 0

  33 C    1     1.0913     2.0623   16 H    0 0 0
  33 C    1     1.3914     2.6294   34 C    0 0 0
  33 C    1     1.4025     2.6504   36 C    0 0 0
  33 C    1     2.1679     4.0968   17 H    0 0-1
  33 C    1     2.4178     4.5690   35 C    0 0 0
  33 C    1     2.4244     4.5814   31 C    0 0 0

  34 C    1     1.0915     2.0626   17 H    0 0-1
  34 C    1     1.3914     2.6294   33 C    0 0 0
  34 C    1     1.4021     2.6497   31 C    0 0 0
  34 C    1     2.1667     4.0945   16 H    0 0 0
  34 C    1     2.4179     4.5692   32 C    0 0 0
  34 C    1     2.4253     4.5832   36 C    0 0 0

  35 C    1     1.0914     2.0624   18 H    0 0 0
  35 C    1     1.3914     2.6293   32 C    0 0 0
  35 C    1     1.4025     2.6503   36 C    0 0 0
  35 C    1     2.1678     4.0966   15 H    1 1-1
  35 C    1     2.4178     4.5690   33 C    0 0 0
  35 C    1     2.4245     4.5817   31 C    0 0 0

  36 C    1     1.4025     2.6503   35 C    0 0 0
  36 C    1     1.4025     2.6504   33 C    0 0 0
  36 C    1     1.5516     2.9322    5 B    0 0 0
  36 C    1     2.1486     4.0602   18 H    0 0 0
  36 C    1     2.1487     4.0605   16 H    0 0 0
  36 C    1     2.4251     4.5827   32 C    0 0 0

  37 O    1     1.3791     2.6061    1 B   -1-2 3
  37 O    1     1.3791     2.6061    3 B    0 0 0
  37 O    1     2.3880     4.5126   38 O   -1-2 3
  37 O    1     2.3882     4.5130   39 O    0 0 0
  37 O    1     2.5383     4.7966   31 C   -1-1 2
  37 O    1     2.5384     4.7968   25 C   -1-2 2

  38 O    1     1.3793     2.6065    1 B    0 0 0
  38 O    1     1.3793     2.6065    2 B    0 0 0
  38 O    1     2.3880     4.5126   37 O    1 2-3
  38 O    1     2.3882     4.5131   39 O    1 2-3
  38 O    1     2.5391     4.7981   19 C    1 1-1
  38 O    1     2.5395     4.7990   25 C    0 0-1

  39 O    1     1.3793     2.6064    3 B    0 0 0
  39 O    1     1.3793     2.6065    2 B   -1-2 3
  39 O    1     2.3882     4.5130   37 O    0 0 0
  39 O    1     2.3882     4.5131   38 O   -1-2 3
  39 O    1     2.5390     4.7980   19 C    0-1 2
  39 O    1     2.5391     4.7982   31 C   -1-1 2

  40 O    1     1.3795     2.6068    6 B    0 0 0
  40 O    1     1.3795     2.6068    4 B    0 0 0
  40 O    1     2.3880     4.5126   42 O    0 0 0
  40 O    1     2.3884     4.5134   41 O    0 0 0
  40 O    1     2.5400     4.7998   24 C    0 0 0
  40 O    1     2.5403     4.8005   30 C    0 0 0

  41 O    1     1.3795     2.6069    5 B    0 0 0
  41 O    1     1.3795     2.6070    4 B    0 0 0
  41 O    1     2.3881     4.5128   42 O    0 0 0
  41 O    1     2.3884     4.5134   40 O    0 0 0
  41 O    1     2.5404     4.8006   24 C    0 0 0
  41 O    1     2.5405     4.8008   36 C    0 0 0

  42 O    1     1.3796     2.6071    6 B    0 0 0
  42 O    1     1.3797     2.6072    5 B    0 0 0
  42 O    1     2.3880     4.5126   40 O    0 0 0
  42 O    1     2.3881     4.5128   41 O    0 0 0
  42 O    1     2.5409     4.8016   36 C    0 0 0
  42 O    1     2.5410     4.8019   30 C    0 0 0


 SYMMETRY ALLOWED INTERNAL DEGREE(S) OF FREEDOM: 123
 TTTTTTTTTTTTTTTTTTTTTTTTTTTTTT SYMM        TELAPSE        0.43 TCPU        0.43
 TTTTTTTTTTTTTTTTTTTTTTTTTTTTTT INT_SCREEN  TELAPSE        0.47 TCPU        0.46

 DFT PARAMETERS

     ATOM       ELECTRONS   NET CHARGE   R(ANGSTROM)
   1   5  B       5.0000      0.0000     0.89000000
   7   1  H       1.0000      0.0000     1.11000000
  19   6  C       6.0000      0.0000     0.77000000
  37   8  O       8.0000      0.0000     0.74000000

 SIZE OF GRID=    1301761
 TTTTTTTTTTTTTTTTTTTTTTTTTTTTTT MAKE_GRID2  TELAPSE        9.02 TCPU        9.01
 BECKE WEIGHT FUNCTION
 RADSAFE =     2.00
 TOLERANCES - DENSITY:10**- 6; POTENTIAL:10**- 9; GRID WGT:10**-14

 RADIAL INTEGRATION  - INTERVALS (POINTS,UPPER LIMIT):            1( 75,  4.0*R)

 ANGULAR INTEGRATION - INTERVALS (ACCURACY LEVEL [N. POINTS] UPPER LIMIT):
  1(  4[  86]   0.2)  2(  8[ 194]   0.5)  3( 12[ 350]   0.9)  4( 16[ 974]   3.5)
  5( 12[ 350]9999.0)
 TTTTTTTTTTTTTTTTTTTTTTTTTTTTTT INT_CALC    TELAPSE        9.09 TCPU        9.08
 EEEEEEEEEE INT_CALC TERMINATION  DATE 19 02 2026 TIME 18:45:20.6

 *******************************************************************************
 cof-1_z36_L087_incl                                                             
 CRYSTAL - SCF - TYPE OF CALCULATION :  RESTRICTED CLOSED SHELL
 *******************************************************************************

 CAPPA:IS1  2;IS2  2;IS3  8; K PTS MONK NET  20; SYMMOPS:K SPACE   2;G SPACE   1

 TTTTTTTTTTTTTTTTTTTTTTTTTTTTTT SDIK        TELAPSE        9.70 TCPU       17.58

 AAAAAAAAAAAAAAAAAAAAAAAAAAAAAAAAAAAAAAAAAAAAAAAAAAAAAAAAAAAAAAAAAAAAAAAAAAAAAAA
         ATOMIC WAVEFUNCTION(S)


 NUCLEAR CHARGE  5.0  SYMMETRY SPECIES            S    P
 N. ELECTRONS    5.0  NUMBER OF PRIMITIVE GTOS    8    4
                      NUMBER OF CONTRACTED GTOS   4    2
                      NUMBER OF CLOSED SHELLS     2    0
                      OPEN SHELL OCCUPATION       0    1

  ZNUC  SCFIT    TOTAL HF ENERGY   KINETIC ENERGY   VIRIAL THEOREM ACCURACY
   5.0    11    -2.451164084E+01  2.462155050E+01 -1.995536038E+00  1.5E-06

 NUCLEAR CHARGE  1.0  SYMMETRY SPECIES            S
 N. ELECTRONS    1.0  NUMBER OF PRIMITIVE GTOS    4
                      NUMBER OF CONTRACTED GTOS   2
                      NUMBER OF CLOSED SHELLS     0
                      OPEN SHELL OCCUPATION       1

  ZNUC  SCFIT    TOTAL HF ENERGY   KINETIC ENERGY   VIRIAL THEOREM ACCURACY
   1.0     1    -4.977266687E-01  5.190767460E-01 -1.958869132E+00  0.0E+00

 NUCLEAR CHARGE  6.0  SYMMETRY SPECIES            S    P
 N. ELECTRONS    6.0  NUMBER OF PRIMITIVE GTOS    8    4
                      NUMBER OF CONTRACTED GTOS   4    2
                      NUMBER OF CLOSED SHELLS     2    0
                      OPEN SHELL OCCUPATION       0    2

  ZNUC  SCFIT    TOTAL HF ENERGY   KINETIC ENERGY   VIRIAL THEOREM ACCURACY
   6.0     9    -3.766704647E+01  3.775180683E+01 -1.997754800E+00  1.1E-06

 NUCLEAR CHARGE  8.0  SYMMETRY SPECIES            S    P
 N. ELECTRONS    8.0  NUMBER OF PRIMITIVE GTOS    8    4
                      NUMBER OF CONTRACTED GTOS   4    2
                      NUMBER OF CLOSED SHELLS     2    0
                      OPEN SHELL OCCUPATION       0    4

  ZNUC  SCFIT    TOTAL HF ENERGY   KINETIC ENERGY   VIRIAL THEOREM ACCURACY
   8.0    12    -7.477373220E+01  7.477365593E+01 -2.000001020E+00  3.8E-06

 AAAAAAAAAAAAAAAAAAAAAAAAAAAAAAAAAAAAAAAAAAAAAAAAAAAAAAAAAAAAAAAAAAAAAAAAAAAAAAA

 CHARGE NORMALIZATION FACTOR   1.00000000
 TOTAL ATOMIC CHARGES:
   5.0000000   5.0000000   5.0000000   5.0000000   5.0000000   5.0000000
   1.0000000   1.0000000   1.0000000   1.0000000   1.0000000   1.0000000
   1.0000000   1.0000000   1.0000000   1.0000000   1.0000000   1.0000000
   6.0000000   6.0000000   6.0000000   6.0000000   6.0000000   6.0000000
   6.0000000   6.0000000   6.0000000   6.0000000   6.0000000   6.0000000
   6.0000000   6.0000000   6.0000000   6.0000000   6.0000000   6.0000000
   8.0000000   8.0000000   8.0000000   8.0000000   8.0000000   8.0000000
 TTTTTTTTTTTTTTTTTTTTTTTTTTTTTT MOQGAD      TELAPSE        9.74 TCPU       18.95
 TTTTTTTTTTTTTTTTTTTTTTTTTTTTTT SHELLXN     TELAPSE       16.44 TCPU      232.77
 TTTTTTTTTTTTTTTTTTTTTTTTTTTTTT MONMO3      TELAPSE       16.58 TCPU      237.19
 NUMERICALLY INTEGRATED DENSITY    197.9999547545
 TTTTTTTTTTTTTTTTTTTTTTTTTTTTTT NUMDFT      TELAPSE       17.22 TCPU      257.68
 CYC   0 ETOT(AU) -1.295961024404E+03 DETOT -1.30E+03 tst  0.00E+00 PX  1.00E+00
 TTTTTTTTTTTTTTTTTTTTTTTTTTTTTT DIIS        TELAPSE       17.26 TCPU      258.88
 TTTTTTTTTTTTTTTTTTTTTTTTTTTTTT FDIK        TELAPSE       17.73 TCPU      274.02
 INSULATING STATE
 TOP OF VALENCE BANDS -    BAND     99; K    1; EIG -3.0947583E-01 AU
 BOTTOM OF VIRTUAL BANDS - BAND    100; K    1; EIG -1.5697897E-01 AU
 DIRECT ENERGY BAND GAP:   4.1497 eV
 TTTTTTTTTTTTTTTTTTTTTTTTTTTTTT PDIG        TELAPSE       18.07 TCPU      280.21
 CHARGE NORMALIZATION FACTOR   1.00000000
 TOTAL ATOMIC CHARGES:
   4.1549496   4.1546174   4.1551075   4.1545536   4.1541819   4.1540726
   0.7855657   0.7856916   0.7855054   0.7856587   0.7855553   0.7856999
   0.7855508   0.7856644   0.7855089   0.7857314   0.7855163   0.7856846
   6.0444654   6.2664587   6.2664041   6.2663852   6.2663844   6.0440269
   6.0445278   6.2664810   6.2665441   6.2663890   6.2665297   6.0432165
   6.0449823   6.2660932   6.2667743   6.2660378   6.2667001   6.0435999
   8.6968686   8.6971013   8.6969962   8.6973426   8.6972684   8.6976071
 TTTTTTTTTTTTTTTTTTTTTTTTTTTTTT MOQGAD      TELAPSE       18.11 TCPU      280.26
 TTTTTTTTTTTTTTTTTTTTTTTTTTTTTT SHELLXN     TELAPSE       25.08 TCPU      502.33
 TTTTTTTTTTTTTTTTTTTTTTTTTTTTTT MONMO3      TELAPSE       25.21 TCPU      506.73
 NUMERICALLY INTEGRATED DENSITY    197.9999837577
 TTTTTTTTTTTTTTTTTTTTTTTTTTTTTT NUMDFT      TELAPSE       25.87 TCPU      527.54
 CYC   1 ETOT(AU) -1.288818663928E+03 DETOT  7.14E+00 tst  0.00E+00 PX  1.00E+00
 TTTTTTTTTTTTTTTTTTTTTTTTTTTTTT DIIS        TELAPSE       25.92 TCPU      529.08
 DIIS TEST: 0.11127E+01 AT SCF   CYCLE   1 - MIX   30 %
 TTTTTTTTTTTTTTTTTTTTTTTTTTTTTT FDIK        TELAPSE       26.40 TCPU      544.54
 INSULATING STATE
 TOP OF VALENCE BANDS -    BAND     99; K    1; EIG -2.2108380E-01 AU
 BOTTOM OF VIRTUAL BANDS - BAND    100; K   17; EIG -8.2187848E-02 AU
 INDIRECT ENERGY BAND GAP:   3.7796 eV
 BOTTOM OF VIRTUAL BANDS - BAND    100; K    1; EIG -8.1368904E-02 AU
 TTTTTTTTTTTTTTTTTTTTTTTTTTTTTT PDIG        TELAPSE       26.74 TCPU      550.74
 CHARGE NORMALIZATION FACTOR   1.00000000
 TOTAL ATOMIC CHARGES:
   4.7058606   4.7047644   4.7055898   4.7056946   4.7047866   4.7055440
   0.9050580   0.9051567   0.9053182   0.9048453   0.9047835   0.9052714
   0.9047536   0.9051454   0.9052095   0.9049337   0.9051200   0.9052079
   5.8753255   6.1341001   6.1341150   6.1336888   6.1342581   5.8785902
   5.8756641   6.1332233   6.1343592   6.1336663   6.1343249   5.8790935
   5.8757285   6.1339064   6.1341077   6.1342425   6.1337188   5.8782956
   8.3390435   8.3396843   8.3397147   8.3392095   8.3388625   8.3400338
 TTTTTTTTTTTTTTTTTTTTTTTTTTTTTT MOQGAD      TELAPSE       26.78 TCPU      550.78
 TTTTTTTTTTTTTTTTTTTTTTTTTTTTTT SHELLXN     TELAPSE       33.74 TCPU      772.82
 TTTTTTTTTTTTTTTTTTTTTTTTTTTTTT MONMO3      TELAPSE       33.88 TCPU      777.23
 NUMERICALLY INTEGRATED DENSITY    197.9999726342
 TTTTTTTTTTTTTTTTTTTTTTTTTTTTTT NUMDFT      TELAPSE       34.53 TCPU      798.06
 CYC   2 ETOT(AU) -1.289012218043E+03 DETOT -1.94E-01 tst  3.57E-03 PX  1.58E-01
 TTTTTTTTTTTTTTTTTTTTTTTTTTTTTT DIIS        TELAPSE       34.58 TCPU      799.62
 DIIS TEST: 0.46223E+00 AT SCF   CYCLE   2 - DIIS ACTIVE - HISTORY:     2 CYCLES
 TTTTTTTTTTTTTTTTTTTTTTTTTTTTTT FDIK        TELAPSE       35.07 TCPU      815.08
 INSULATING STATE
 TOP OF VALENCE BANDS -    BAND     99; K    1; EIG -2.3429081E-01 AU
 BOTTOM OF VIRTUAL BANDS - BAND    100; K    1; EIG -7.5690565E-02 AU
 DIRECT ENERGY BAND GAP:   4.3157 eV
 TTTTTTTTTTTTTTTTTTTTTTTTTTTTTT PDIG        TELAPSE       35.42 TCPU      821.28
 CHARGE NORMALIZATION FACTOR   1.00000000
 TOTAL ATOMIC CHARGES:
   4.4958556   4.4947765   4.4955303   4.4955601   4.4947903   4.4951218
   0.8843767   0.8845719   0.8845282   0.8843531   0.8841008   0.8847690
   0.8841167   0.8846161   0.8844732   0.8843754   0.8844699   0.8845418
   5.8907436   6.1652175   6.1643627   6.1645293   6.1645752   5.8905200
   5.8909834   6.1650114   6.1643249   6.1649293   6.1643901   5.8901227
   5.8907642   6.1644057   6.1649119   6.1648388   6.1645622   5.8904782
   8.5155553   8.5160418   8.5158237   8.5157808   8.5159437   8.5162560
 TTTTTTTTTTTTTTTTTTTTTTTTTTTTTT MOQGAD      TELAPSE       35.46 TCPU      821.33
 TTTTTTTTTTTTTTTTTTTTTTTTTTTTTT SHELLXN     TELAPSE       42.42 TCPU     1043.37
 TTTTTTTTTTTTTTTTTTTTTTTTTTTTTT MONMO3      TELAPSE       42.56 TCPU     1047.78
 NUMERICALLY INTEGRATED DENSITY    197.9999752608
 TTTTTTTTTTTTTTTTTTTTTTTTTTTTTT NUMDFT      TELAPSE       43.21 TCPU     1068.57
 CYC   3 ETOT(AU) -1.289107147246E+03 DETOT -9.49E-02 tst  6.69E-04 PX  6.19E-02
 TTTTTTTTTTTTTTTTTTTTTTTTTTTTTT DIIS        TELAPSE       43.27 TCPU     1070.43
 DIIS TEST: 0.13248E-01 AT SCF   CYCLE   3 - DIIS ACTIVE - HISTORY:     3 CYCLES
 TTTTTTTTTTTTTTTTTTTTTTTTTTTTTT FDIK        TELAPSE       43.75 TCPU     1085.86
 INSULATING STATE
 TOP OF VALENCE BANDS -    BAND     99; K    1; EIG -2.4310044E-01 AU
 BOTTOM OF VIRTUAL BANDS - BAND    100; K    1; EIG -8.4105910E-02 AU
 DIRECT ENERGY BAND GAP:   4.3265 eV
 TTTTTTTTTTTTTTTTTTTTTTTTTTTTTT PDIG        TELAPSE       44.09 TCPU     1092.06
 CHARGE NORMALIZATION FACTOR   1.00000000
 TOTAL ATOMIC CHARGES:
   4.5016994   4.5005576   4.5013726   4.5012535   4.5003142   4.5008103
   0.8680773   0.8681249   0.8681886   0.8679167   0.8678675   0.8682444
   0.8678427   0.8681273   0.8681105   0.8680000   0.8681114   0.8681573
   5.9435554   6.1672236   6.1674876   6.1670493   6.1673764   5.9456447
   5.9433763   6.1666970   6.1675711   6.1669343   6.1674698   5.9461071
   5.9441186   6.1670835   6.1674123   6.1672126   6.1673699   5.9451148
   8.4833741   8.4838934   8.4838872   8.4836637   8.4832746   8.4843266
 TTTTTTTTTTTTTTTTTTTTTTTTTTTTTT MOQGAD      TELAPSE       44.13 TCPU     1092.10
 TTTTTTTTTTTTTTTTTTTTTTTTTTTTTT SHELLXN     TELAPSE       51.10 TCPU     1314.20
 TTTTTTTTTTTTTTTTTTTTTTTTTTTTTT MONMO3      TELAPSE       51.24 TCPU     1318.62
 NUMERICALLY INTEGRATED DENSITY    197.9999754904
 TTTTTTTTTTTTTTTTTTTTTTTTTTTTTT NUMDFT      TELAPSE       51.89 TCPU     1339.39
 CYC   4 ETOT(AU) -1.289109929233E+03 DETOT -2.78E-03 tst  2.92E-05 PX  1.23E-02
 TTTTTTTTTTTTTTTTTTTTTTTTTTTTTT DIIS        TELAPSE       51.95 TCPU     1341.32
 DIIS TEST: 0.37409E-02 AT SCF   CYCLE   4 - DIIS ACTIVE - HISTORY:     4 CYCLES
 TTTTTTTTTTTTTTTTTTTTTTTTTTTTTT FDIK        TELAPSE       52.43 TCPU     1356.75
 INSULATING STATE
 TOP OF VALENCE BANDS -    BAND     99; K    1; EIG -2.4165870E-01 AU
 BOTTOM OF VIRTUAL BANDS - BAND    100; K    1; EIG -8.3935497E-02 AU
 DIRECT ENERGY BAND GAP:   4.2919 eV
 TTTTTTTTTTTTTTTTTTTTTTTTTTTTTT PDIG        TELAPSE       52.76 TCPU     1362.94
 CHARGE NORMALIZATION FACTOR   1.00000000
 TOTAL ATOMIC CHARGES:
   4.5046125   4.5034661   4.5042579   4.5042949   4.5034344   4.5038997
   0.8705153   0.8707092   0.8706957   0.8704570   0.8702584   0.8708767
   0.8702580   0.8707325   0.8706369   0.8704995   0.8705923   0.8707034
   5.9231734   6.1695426   6.1688467   6.1689187   6.1691094   5.9236879
   5.9234259   6.1692088   6.1688328   6.1692260   6.1689000   5.9235479
   5.9232678   6.1688227   6.1693514   6.1692492   6.1689719   5.9236062
   8.4928774   8.4934177   8.4932240   8.4930796   8.4931391   8.4936725
 TTTTTTTTTTTTTTTTTTTTTTTTTTTTTT MOQGAD      TELAPSE       52.81 TCPU     1362.99
 TTTTTTTTTTTTTTTTTTTTTTTTTTTTTT SHELLXN     TELAPSE       59.78 TCPU     1585.07
 TTTTTTTTTTTTTTTTTTTTTTTTTTTTTT MONMO3      TELAPSE       59.91 TCPU     1589.48
 NUMERICALLY INTEGRATED DENSITY    197.9999755463
 TTTTTTTTTTTTTTTTTTTTTTTTTTTTTT NUMDFT      TELAPSE       60.57 TCPU     1610.27
 CYC   5 ETOT(AU) -1.289110789770E+03 DETOT -8.61E-04 tst  5.72E-06 PX  6.58E-03
 TTTTTTTTTTTTTTTTTTTTTTTTTTTTTT DIIS        TELAPSE       60.63 TCPU     1612.46
 DIIS TEST: 0.73872E-04 AT SCF   CYCLE   5 - DIIS ACTIVE - HISTORY:     5 CYCLES
 TTTTTTTTTTTTTTTTTTTTTTTTTTTTTT FDIK        TELAPSE       61.12 TCPU     1627.90
 INSULATING STATE
 TOP OF VALENCE BANDS -    BAND     99; K    1; EIG -2.4155499E-01 AU
 BOTTOM OF VIRTUAL BANDS - BAND    100; K    1; EIG -8.3391160E-02 AU
 DIRECT ENERGY BAND GAP:   4.3039 eV
 TTTTTTTTTTTTTTTTTTTTTTTTTTTTTT PDIG        TELAPSE       61.45 TCPU     1634.09
 CHARGE NORMALIZATION FACTOR   1.00000000
 TOTAL ATOMIC CHARGES:
   4.5041412   4.5029943   4.5037969   4.5037208   4.5028448   4.5032658
   0.8714924   0.8715500   0.8716142   0.8713515   0.8712563   0.8717077
   0.8712318   0.8715869   0.8715311   0.8714193   0.8715360   0.8715783
   5.9233106   6.1685288   6.1686325   6.1682793   6.1685045   5.9247946
   5.9230765   6.1680784   6.1686898   6.1682711   6.1685901   5.9251624
   5.9237997   6.1683053   6.1686086   6.1684626   6.1685447   5.9243102
   8.4922133   8.4926829   8.4926995   8.4925212   8.4922272   8.4930866
 TTTTTTTTTTTTTTTTTTTTTTTTTTTTTT MOQGAD      TELAPSE       61.50 TCPU     1634.14
 TTTTTTTTTTTTTTTTTTTTTTTTTTTTTT SHELLXN     TELAPSE       68.46 TCPU     1856.15
 TTTTTTTTTTTTTTTTTTTTTTTTTTTTTT MONMO3      TELAPSE       68.60 TCPU     1860.56
 NUMERICALLY INTEGRATED DENSITY    197.9999755072
 TTTTTTTTTTTTTTTTTTTTTTTTTTTTTT NUMDFT      TELAPSE       69.25 TCPU     1881.43
 CYC   6 ETOT(AU) -1.289110811002E+03 DETOT -2.12E-05 tst  2.27E-07 PX  7.46E-04
 TTTTTTTTTTTTTTTTTTTTTTTTTTTTTT DIIS        TELAPSE       69.32 TCPU     1883.64
 DIIS TEST: 0.46724E-05 AT SCF   CYCLE   6 - DIIS ACTIVE - HISTORY:     6 CYCLES
 TTTTTTTTTTTTTTTTTTTTTTTTTTTTTT FDIK        TELAPSE       69.81 TCPU     1899.09
 INSULATING STATE
 TOP OF VALENCE BANDS -    BAND     99; K    1; EIG -2.4151725E-01 AU
 BOTTOM OF VIRTUAL BANDS - BAND    100; K    1; EIG -8.3477915E-02 AU
 DIRECT ENERGY BAND GAP:   4.3005 eV
 TTTTTTTTTTTTTTTTTTTTTTTTTTTTTT PDIG        TELAPSE       70.14 TCPU     1905.28
 CHARGE NORMALIZATION FACTOR   1.00000000
 TOTAL ATOMIC CHARGES:
   4.5043173   4.5031666   4.5039605   4.5039928   4.5031283   4.5035812
   0.8714005   0.8715893   0.8715817   0.8713323   0.8711385   0.8717640
   0.8711408   0.8716159   0.8715245   0.8713731   0.8714820   0.8715790
   5.9238871   6.1686976   6.1679917   6.1680428   6.1683007   5.9244881
   5.9242021   6.1683839   6.1679522   6.1683856   6.1680398   5.9242974
   5.9239495   6.1679345   6.1685487   6.1683848   6.1681425   5.9244380
   8.4923543   8.4929167   8.4926827   8.4925374   8.4926133   8.4931606
 TTTTTTTTTTTTTTTTTTTTTTTTTTTTTT MOQGAD      TELAPSE       70.18 TCPU     1905.33
 TTTTTTTTTTTTTTTTTTTTTTTTTTTTTT SHELLXN     TELAPSE       77.15 TCPU     2127.37
 TTTTTTTTTTTTTTTTTTTTTTTTTTTTTT MONMO3      TELAPSE       77.28 TCPU     2131.79
 NUMERICALLY INTEGRATED DENSITY    197.9999755025
 TTTTTTTTTTTTTTTTTTTTTTTTTTTTTT NUMDFT      TELAPSE       77.93 TCPU     2152.58
 CYC   7 ETOT(AU) -1.289110811106E+03 DETOT -1.04E-07 tst  2.51E-08 PX  2.52E-04
 TTTTTTTTTTTTTTTTTTTTTTTTTTTTTT DIIS        TELAPSE       78.02 TCPU     2155.14
 DIIS TEST: 0.95028E-06 AT SCF   CYCLE   7 - DIIS ACTIVE - HISTORY:     7 CYCLES
 TTTTTTTTTTTTTTTTTTTTTTTTTTTTTT FDIK        TELAPSE       78.51 TCPU     2170.79
 INSULATING STATE
 TOP OF VALENCE BANDS -    BAND     99; K    1; EIG -2.4153553E-01 AU
 BOTTOM OF VIRTUAL BANDS - BAND    100; K    1; EIG -8.3475812E-02 AU
 DIRECT ENERGY BAND GAP:   4.3010 eV
 TTTTTTTTTTTTTTTTTTTTTTTTTTTTTT PDIG        TELAPSE       78.84 TCPU     2176.98
 CHARGE NORMALIZATION FACTOR   1.00000000
 TOTAL ATOMIC CHARGES:
   4.5043611   4.5032137   4.5040107   4.5039839   4.5031133   4.5035571
   0.8714044   0.8715202   0.8715491   0.8713000   0.8711594   0.8716813
   0.8711448   0.8715505   0.8714761   0.8713574   0.8714620   0.8715344
   5.9235202   6.1685768   6.1683368   6.1681805   6.1683680   5.9245675
   5.9234792   6.1681725   6.1683689   6.1682961   6.1683369   5.9247341
   5.9238503   6.1681563   6.1685281   6.1684196   6.1683340   5.9242475
   8.4923318   8.4928280   8.4927644   8.4925997   8.4924513   8.4931723
 TTTTTTTTTTTTTTTTTTTTTTTTTTTTTT MOQGAD      TELAPSE       78.89 TCPU     2177.03
 TTTTTTTTTTTTTTTTTTTTTTTTTTTTTT SHELLXN     TELAPSE       85.85 TCPU     2399.03
 +++ ENERGIES IN A.U. +++
 ::: EXT EL-POLE                                  -1.4505927614843E+03
 ::: EXT EL-SPHEROPOLE                             1.5897639719583E+01
 ::: BIELET ZONE E-E                               2.0896159206048E+03
 ::: TOTAL E-E                                     6.5492079884010E+02
 ::: TOTAL E-N + N-E                              -3.1365165911529E+03
 ::: TOTAL N-N                                     4.6258314013987E+01
 ::: KINETIC ENERGY                                1.2799453808945E+03
 ::: PSEUDO TOTAL   ENERGY                        -1.1553920974043E+03
 ::: VIRIAL COEFFICIENT                            1.0511441574731E+00
 TTTTTTTTTTTTTTTTTTTTTTTTTTTTTT MONMO3      TELAPSE       85.99 TCPU     2403.44
 NUMERICALLY INTEGRATED DENSITY    197.9999755025
 EXCHANGE ENERGY: -0.126026716399E+03  CORRELATION ENERGY: -0.769199761079E+01
 TTTTTTTTTTTTTTTTTTTTTTTTTTTTTT NUMDFT      TELAPSE       86.64 TCPU     2424.26
 CYC   8 ETOT(AU) -1.289110811414E+03 DETOT -3.08E-07 tst  8.79E-09 PX  2.52E-04

 == SCF ENDED - CONVERGENCE ON ENERGY      E(AU) -1.2891108114140E+03 CYCLES   8


 ENERGY EXPRESSION=HARTREE+FOCK EXCH*0.00000+(HSESOL     EXCH)*1.00000+PBESOL     CORR


 TOTAL ENERGY(DFT)(AU)(  8) -1.2891108114140E+03 DE-3.1E-07 tester 8.8E-09
 TTTTTTTTTTTTTTTTTTTTTTTTTTTTTT EDFT        TELAPSE       86.64 TCPU     2424.26
 
 INFORMATION **** DFTD3 ENERGY **** CALCULATE DFTD3 ENERGY

           DFT-D V3(BJ)
 DF                                         hsesol3c  
 parameters
 s6       :    1.0000
 s8       :    0.0000
 a1       :    0.5196
 a2       :    4.9385
 k1 k3    :   16.0000   -4.0000
 Cutoff   :   50.2022
 CN-Cutoff:   21.1671
 ABC-Cutoff:   21.1671
 
 Edisp /kcal,au:   -25.1843 -0.04013379

 E6    /kcal :   -26.6234
 E8    /kcal :     0.0000
 E6(ABC) "   :   1.439031
 
 INFORMATION **** DFTD3 ENERGY **** NORMAL TERMINATION OF DFTD3 MODULE

 GCP ENERGY CALCULATION
  level        hsesol3c            basis:hsesol3c
  Nbf            474
  Atoms           42

  Parameters: 
  sigma     1.0000
  eta       1.4281
  alpha     0.2936
  beta      1.9467

  dmp_scal      4.0000
  dmp_exp       6.0000
 cutoffs: 
   distance [bohr] 60.0
   noise    [a.u.] 2.2E-16
 SR-damping   T
 ** gCP correction **
  Egcp:        0.0831420613 / (a.u.) ||      52.1724 / (kcal/mol)
 INFORMATION **** GCP **** NORMAL TERMINATION OF GCP MODULE

 *******************************************************************************

 DFT-D3-GCP DISPERSION AND COUNTERPOISE CORRECTION

 D3 DISPERSION ENERGY (AU)      -4.0133787149607E-02
 GCP ENERGY (AU)                 8.3142061273153E-02
 TOTAL ENERGY + DISP + GCP (AU) -1.2890678031399E+03

 *******************************************************************************

 EIGENVECTORS IN FORTRAN UNIT  8
 TTTTTTTTTTTTTTTTTTTTTTTTTTTTTT END         TELAPSE       88.80 TCPU     2432.36
 EEEEEEEEEE TERMINATION  DATE 19 02 2026 TIME 18:46:40.3
