 Default number of threads is:           32

         
 *******************************************************************************
 *                                                                             *
 *                               CRYSTAL23                                     *
 *                      public : 1.0.1 - October 2022                          *
 *                       HTTP://WWW.CRYSTAL.UNITO.IT                           *
 *                                                                             *
 *                              MAIN AUTHORS                                   *
 *                                                                             *
 *  R. DOVESI(1,11), V.R. SAUNDERS(2), C. ROETTI(1,11), R. ORLANDO(1,11),      *
 *  C.M. ZICOVICH-WILSON(1,3), F. PASCALE(4), B. CIVALLERI(1,11),              *
 *  K. DOLL(5), N.M. HARRISON(6), I.J. BUSH(7), Ph. D'ARCO(8),                 *
 *  M. LLUNELL(9), M. CAUSA'(10), Y. NOEL(8), L. MASCHIO(1,11), A. ERBA(1,11)  *
 *  M. RE'RAT(14), S. CASASSA(1,11), B.G. SEARLE(2), J.K. DESMARAIS(1)         *
 *                                                                             *
 *        CONTRIBUTIONS TO THE CODE HAVE ALSO BEEN GIVEN BY                    *
 *                                                                             *
 *  M. FERRABONE(1,11), M. DE LA PIERRE(1,11), M. FERRERO(1,11),               *
 *  J. BAIMA(1,11), E. ALBANESE(1,11), M.F. PEINTINGER(12), R. BAST(13),       *
 *  B. KIRTMAN(15), V. LACIVITA(1,11), R. DEMICHELIS(1,16)                     *
 *  G. BRANDEBURG(17), S. SALUSTRO(1,11), G. SANSONE(1,11)                     *
 *  M.T. RUGGIERO(18), L.E. DAGA(1), L. DONA'(1), A. COSSARD(1)                *
 *                                                                             *
 * (1) THEORETICAL CHEMISTRY GROUP - UNIVERSITA' DI TORINO - TORINO (ITALY)    *
 * (2) SCIENTIFIC COMPUTING DEPARTMENT - STFC DARESBURY (UK)                   *
 * (3) UNIVERSIDAD AUTONOMA DEL ESTADO DE MORELOS - CUERNAVACA (MEXICO)        *
 * (4) UNIVERSITE' DE LORRAINE - NANCY (FRANCE)                                *
 * (5) UNIVERSITAET STUTTGART- STUTTGART (GERMANY)                             *
 * (6) IMPERIAL COLLEGE - LONDON (UK)                                          *
 * (7) SCIENTIFIC COMPUTING DEPARTMENT - STFC RAL (UK)                         *
 * (8) UPMC - SORBONNE UNIVERSITES - PARIS (FRANCE)                            *
 * (9) UNIVERSIDAD DE BARCELONA - BARCELONA (SPAIN)                            *
 *(10) UNIVERSITA' DI NAPOLI "FEDERICO II" - NAPOLI (ITALY)                    *
 *(11) NIS - NANOSTRUCTURED INTERFACES AND SURFACES - TORINO (ITALY)           *
 *(12) MPI FUER CHEMISCHE ENERGIEKONVERSION - MUELHEIM AN DER RUHR (GERMANY)   *
 *(13) UNIVERSITY OF TROMSO - TROMSO (NORWAY)                                  *
 *(14) UNIVERSITE' DE PAU ET DES PAYS DE L'ADOUR - PAU (FRANCE)                *
 *(15) UNIVERSITY OF CALIFORNIA SANTA BARBARA - SANTA BARBARA (USA)            *
 *(16) CURTIN UNIVERSITY - PERTH (AUSTRALIA)                                   *
 *(17) UNIVERSITY COLLEGE LONDON - LONDON (UK)                                 *
 *(18) UNIVERSITY OF VERMONT - BURLINGTON (USA)                                *
 *                                                                             *
 *******************************************************************************
 EEEEEEEEEE STARTING  DATE 19 02 2026 TIME 18:53:43.3
 cof-1_z37_L080_incl                                                             

 CRYSTAL CALCULATION
 (INPUT ACCORDING TO THE INTERNATIONAL TABLES FOR X-RAY CRYSTALLOGRAPHY)
 CRYSTAL FAMILY                       :  TRICLINIC   
 CRYSTAL CLASS  (GROTH - 1921)        :  TRICLINIC PEDIAL                     

 SPACE GROUP (NONCENTROSYMMETRIC)     :  P 1             

 LATTICE PARAMETERS  (ANGSTROMS AND DEGREES) - CONVENTIONAL CELL
        A           B           C        ALPHA        BETA       GAMMA
    15.02361    15.02392     8.81419    38.18139    89.99998   119.99596


 NUMBER OF IRREDUCIBLE ATOMS IN THE CONVENTIONAL CELL:   42

 INPUT COORDINATES

 ATOM AT. N.              COORDINATES
   1   5     4.595925700000E-01 -8.088905000000E-02  5.012845800000E-01
   2   5     6.186482200000E-01  7.817060000000E-02  5.012845900000E-01
   3   5     4.604226500000E-01  7.982227000000E-02  4.985702500000E-01
   4   5     7.316727000000E-02  3.054259400000E-01  5.012845900000E-01
   5   5     2.322752500000E-01  3.054051800000E-01  5.012845800000E-01
   6   5     2.330898700000E-01  4.662132400000E-01  4.985702600000E-01
   7   1     7.506854200000E-01  4.182680000000E-03  4.956572100000E-01
   8   1    -5.545916000000E-02  3.868351500000E-01  4.947966900000E-01
   9   1     7.509184400000E-01  2.899355600000E-01  4.946642600000E-01
  10   1    -5.532695000000E-02  1.015277700000E-01  4.946972900000E-01
  11   1     5.360083100000E-01 -2.130755800000E-01  5.043300000000E-01
  12   1     1.536411000000E-01  5.928285000000E-01  5.051905700000E-01
  13   1     2.505406300000E-01 -2.136403200000E-01  5.053231000000E-01
  14   1     4.389930800000E-01  5.926774700000E-01  5.052898400000E-01
  15   1     5.387145300000E-01  2.893068100000E-01  4.956572600000E-01
  16   1     1.568681600000E-01  1.013910700000E-01  4.947966400000E-01
  17   1     2.537876200000E-01  4.686450000000E-03  4.946641600000E-01
  18   1     4.422277200000E-01  3.868006900000E-01  4.946974000000E-01
  19   6     7.386672100000E-01  1.394663400000E-01  4.984709400000E-01
  20   6     7.940902100000E-01  8.795684000000E-02  4.957896400000E-01
  21   6    -9.893959000000E-02  3.024989200000E-01  4.955580100000E-01
  22   6     7.939107300000E-01  2.485784200000E-01  4.962531500000E-01
  23   6    -9.856557000000E-02  1.422352600000E-01  4.944655800000E-01
  24   6    -4.451565000000E-02  2.489015300000E-01  4.962862200000E-01
  25   6     3.998802100000E-01 -2.001812900000E-01  5.015163200000E-01
  26   6     4.521944700000E-01 -2.564423300000E-01  5.041975500000E-01
  27   6     2.377440600000E-01  6.365224200000E-01  5.044292700000E-01
  28   6     2.914466400000E-01 -2.561105000000E-01  5.037341600000E-01
  29   6     3.983264800000E-01  6.358112200000E-01  5.055216000000E-01
  30   6     2.910971600000E-01  5.822990800000E-01  5.037010200000E-01
  31   6     4.008217800000E-01  1.393972100000E-01  4.984709300000E-01
  32   6     4.548113000000E-01  2.487969500000E-01  4.957897000000E-01
  33   6     2.404956800000E-01  1.414856800000E-01  4.955579600000E-01
  34   6     2.937459000000E-01  8.757626000000E-02  4.962530800000E-01
  35   6     4.017510300000E-01  3.030832400000E-01  4.944656500000E-01
  36   6     2.934084400000E-01  2.488241300000E-01  4.962862200000E-01
  37   8     4.072592100000E-01 -2.661552000000E-02  4.992984800000E-01
  38   8     5.644439500000E-01 -3.012873000000E-02  5.050250700000E-01
  39   8     5.670973400000E-01  1.341282900000E-01  4.963855400000E-01
  40   8     1.268470300000E-01  4.126649500000E-01  4.992985100000E-01
  41   8     1.251062200000E-01  2.501885500000E-01  5.050250700000E-01
  42   8     2.866817700000E-01  4.144402600000E-01  4.963855200000E-01

 *******************************************************************************

 << INFORMATION >>: FROM NOW ON, ALL COORDINATES REFER TO THE PRIMITIVE CELL

 *******************************************************************************

 LATTICE PARAMETERS  (ANGSTROMS AND DEGREES) - PRIMITIVE CELL
       A          B          C        ALPHA      BETA     GAMMA        VOLUME
   15.02361   15.02392    8.81419    38.18139  89.99998 119.99596    723.291008

 COORDINATES OF THE EQUIVALENT ATOMS (FRACTIONAL UNITS)

 N. ATOM EQUIV AT. N.          X                  Y                  Z

   1   1   1    5 B     4.59592570000E-01 -8.08890500000E-02 -4.98715420000E-01

   2   2   1    5 B    -3.81351780000E-01  7.81706000000E-02 -4.98715410000E-01

   3   3   1    5 B     4.60422650000E-01  7.98222700000E-02  4.98570250000E-01

   4   4   1    5 B     7.31672700000E-02  3.05425940000E-01 -4.98715410000E-01

   5   5   1    5 B     2.32275250000E-01  3.05405180000E-01 -4.98715420000E-01

   6   6   1    5 B     2.33089870000E-01  4.66213240000E-01  4.98570260000E-01

   7   7   1    1 H    -2.49314580000E-01  4.18268000000E-03  4.95657210000E-01

   8   8   1    1 H    -5.54591600000E-02  3.86835150000E-01  4.94796690000E-01

   9   9   1    1 H    -2.49081560000E-01  2.89935560000E-01  4.94664260000E-01

  10  10   1    1 H    -5.53269500000E-02  1.01527770000E-01  4.94697290000E-01

  11  11   1    1 H    -4.63991690000E-01 -2.13075580000E-01 -4.95670000000E-01

  12  12   1    1 H     1.53641100000E-01 -4.07171500000E-01 -4.94809430000E-01

  13  13   1    1 H     2.50540630000E-01 -2.13640320000E-01 -4.94676900000E-01

  14  14   1    1 H     4.38993080000E-01 -4.07322530000E-01 -4.94710160000E-01

  15  15   1    1 H    -4.61285470000E-01  2.89306810000E-01  4.95657260000E-01

  16  16   1    1 H     1.56868160000E-01  1.01391070000E-01  4.94796640000E-01

  17  17   1    1 H     2.53787620000E-01  4.68645000000E-03  4.94664160000E-01

  18  18   1    1 H     4.42227720000E-01  3.86800690000E-01  4.94697400000E-01

  19  19   1    6 C    -2.61332790000E-01  1.39466340000E-01  4.98470940000E-01

  20  20   1    6 C    -2.05909790000E-01  8.79568400000E-02  4.95789640000E-01

  21  21   1    6 C    -9.89395900000E-02  3.02498920000E-01  4.95558010000E-01

  22  22   1    6 C    -2.06089270000E-01  2.48578420000E-01  4.96253150000E-01

  23  23   1    6 C    -9.85655700000E-02  1.42235260000E-01  4.94465580000E-01

  24  24   1    6 C    -4.45156500000E-02  2.48901530000E-01  4.96286220000E-01

  25  25   1    6 C     3.99880210000E-01 -2.00181290000E-01 -4.98483680000E-01

  26  26   1    6 C     4.52194470000E-01 -2.56442330000E-01 -4.95802450000E-01

  27  27   1    6 C     2.37744060000E-01 -3.63477580000E-01 -4.95570730000E-01

  28  28   1    6 C     2.91446640000E-01 -2.56110500000E-01 -4.96265840000E-01

  29  29   1    6 C     3.98326480000E-01 -3.64188780000E-01 -4.94478400000E-01

  30  30   1    6 C     2.91097160000E-01 -4.17700920000E-01 -4.96298980000E-01

  31  31   1    6 C     4.00821780000E-01  1.39397210000E-01  4.98470930000E-01

  32  32   1    6 C     4.54811300000E-01  2.48796950000E-01  4.95789700000E-01

  33  33   1    6 C     2.40495680000E-01  1.41485680000E-01  4.95557960000E-01

  34  34   1    6 C     2.93745900000E-01  8.75762600000E-02  4.96253080000E-01

  35  35   1    6 C     4.01751030000E-01  3.03083240000E-01  4.94465650000E-01

  36  36   1    6 C     2.93408440000E-01  2.48824130000E-01  4.96286220000E-01

  37  37   1    8 O     4.07259210000E-01 -2.66155200000E-02  4.99298480000E-01

  38  38   1    8 O    -4.35556050000E-01 -3.01287300000E-02 -4.94974930000E-01

  39  39   1    8 O    -4.32902660000E-01  1.34128290000E-01  4.96385540000E-01

  40  40   1    8 O     1.26847030000E-01  4.12664950000E-01  4.99298510000E-01

  41  41   1    8 O     1.25106220000E-01  2.50188550000E-01 -4.94974930000E-01

  42  42   1    8 O     2.86681770000E-01  4.14440260000E-01  4.96385520000E-01

 NUMBER OF SYMMETRY OPERATORS         :    1
 *******************************************************************************
 * GEOMETRY EDITING - INPUT COORDINATES ARE GIVEN IN ANGSTROM         
 *******************************************************************************

 GCALCO - MAX INDICES DIRECT LATTICE VECTOR     9    15    23
 NO.OF VECTORS CREATED 6999 STARS 3500 RMAX   214.47159 BOHR

 GEOMETRY FOR WAVE FUNCTION - DIMENSIONALITY OF THE SYSTEM    3
 (NON PERIODIC DIRECTION: LATTICE PARAMETER FORMALLY SET TO 500)
 *******************************************************************************
 LATTICE PARAMETERS (ANGSTROMS AND DEGREES) - BOHR = 0.5291772083 ANGSTROM
 PRIMITIVE CELL - CENTRING CODE 1/0 VOLUME=   723.291008 - DENSITY  0.896 g/cm^3
         A              B              C           ALPHA      BETA       GAMMA 
    15.02361100    15.02391600     8.81419300    38.181394  89.999976 119.995964
 *******************************************************************************
 ATOMS IN THE ASYMMETRIC UNIT   42 - ATOMS IN THE UNIT CELL:   42
     ATOM                 X/A                 Y/B                 Z/C    
 *******************************************************************************
      1 T   5 B     4.595925700000E-01 -8.088905000000E-02 -4.987154200000E-01
      2 T   5 B    -3.813517800000E-01  7.817060000000E-02 -4.987154100000E-01
      3 T   5 B     4.604226500000E-01  7.982227000000E-02  4.985702500000E-01
      4 T   5 B     7.316727000000E-02  3.054259400000E-01 -4.987154100000E-01
      5 T   5 B     2.322752500000E-01  3.054051800000E-01 -4.987154200000E-01
      6 T   5 B     2.330898700000E-01  4.662132400000E-01  4.985702600000E-01
      7 T   1 H    -2.493145800000E-01  4.182680000000E-03  4.956572100000E-01
      8 T   1 H    -5.545916000000E-02  3.868351500000E-01  4.947966900000E-01
      9 T   1 H    -2.490815600000E-01  2.899355600000E-01  4.946642600000E-01
     10 T   1 H    -5.532695000000E-02  1.015277700000E-01  4.946972900000E-01
     11 T   1 H    -4.639916900000E-01 -2.130755800000E-01 -4.956700000000E-01
     12 T   1 H     1.536411000000E-01 -4.071715000000E-01 -4.948094300000E-01
     13 T   1 H     2.505406300000E-01 -2.136403200000E-01 -4.946769000000E-01
     14 T   1 H     4.389930800000E-01 -4.073225300000E-01 -4.947101600000E-01
     15 T   1 H    -4.612854700000E-01  2.893068100000E-01  4.956572600000E-01
     16 T   1 H     1.568681600000E-01  1.013910700000E-01  4.947966400000E-01
     17 T   1 H     2.537876200000E-01  4.686450000000E-03  4.946641600000E-01
     18 T   1 H     4.422277200000E-01  3.868006900000E-01  4.946974000000E-01
     19 T   6 C    -2.613327900000E-01  1.394663400000E-01  4.984709400000E-01
     20 T   6 C    -2.059097900000E-01  8.795684000000E-02  4.957896400000E-01
     21 T   6 C    -9.893959000000E-02  3.024989200000E-01  4.955580100000E-01
     22 T   6 C    -2.060892700000E-01  2.485784200000E-01  4.962531500000E-01
     23 T   6 C    -9.856557000000E-02  1.422352600000E-01  4.944655800000E-01
     24 T   6 C    -4.451565000000E-02  2.489015300000E-01  4.962862200000E-01
     25 T   6 C     3.998802100000E-01 -2.001812900000E-01 -4.984836800000E-01
     26 T   6 C     4.521944700000E-01 -2.564423300000E-01 -4.958024500000E-01
     27 T   6 C     2.377440600000E-01 -3.634775800000E-01 -4.955707300000E-01
     28 T   6 C     2.914466400000E-01 -2.561105000000E-01 -4.962658400000E-01
     29 T   6 C     3.983264800000E-01 -3.641887800000E-01 -4.944784000000E-01
     30 T   6 C     2.910971600000E-01 -4.177009200000E-01 -4.962989800000E-01
     31 T   6 C     4.008217800000E-01  1.393972100000E-01  4.984709300000E-01
     32 T   6 C     4.548113000000E-01  2.487969500000E-01  4.957897000000E-01
     33 T   6 C     2.404956800000E-01  1.414856800000E-01  4.955579600000E-01
     34 T   6 C     2.937459000000E-01  8.757626000000E-02  4.962530800000E-01
     35 T   6 C     4.017510300000E-01  3.030832400000E-01  4.944656500000E-01
     36 T   6 C     2.934084400000E-01  2.488241300000E-01  4.962862200000E-01
     37 T   8 O     4.072592100000E-01 -2.661552000000E-02  4.992984800000E-01
     38 T   8 O    -4.355560500000E-01 -3.012873000000E-02 -4.949749300000E-01
     39 T   8 O    -4.329026600000E-01  1.341282900000E-01  4.963855400000E-01
     40 T   8 O     1.268470300000E-01  4.126649500000E-01  4.992985100000E-01
     41 T   8 O     1.251062200000E-01  2.501885500000E-01 -4.949749300000E-01
     42 T   8 O     2.866817700000E-01  4.144402600000E-01  4.963855200000E-01

 T = ATOM BELONGING TO THE ASYMMETRIC UNIT

 ****    1 SYMMOPS - TRANSLATORS IN FRACTIONAL UNITS
 **** MATRICES AND TRANSLATORS IN THE CRYSTALLOGRAPHIC REFERENCE FRAME
   V INV                    ROTATION MATRICES                   TRANSLATORS
   1   1  1.00 -0.00  0.00  0.00  1.00  0.00  0.00 -0.00  1.00  0.00  0.00  0.00

 DIRECT LATTICE VECTORS CARTESIAN COMPONENTS (ANGSTROM)
          X                    Y                    Z
   0.130113578931E+02  -0.751088897922E+01   0.000000000000E+00
   0.000000000000E+00   0.150239160000E+02   0.000000000000E+00
   0.399950412315E+01   0.692846402292E+01   0.370004747177E+01


 CARTESIAN COORDINATES - PRIMITIVE CELL
 *******************************************************************************
 *      ATOM          X(ANGSTROM)         Y(ANGSTROM)         Z(ANGSTROM)
 *******************************************************************************
    1     5 B    -1.419508845165E-02 -2.709892952174E-02 -5.545318200674E+00
    2     5 B     2.055334938606E+00  1.167950631685E+00 -5.545318163674E+00
    3     5 B    -1.027096118139E+00  6.108227138961E-01  5.544781064783E+00
    4     5 B    -1.042608802543E+00  5.838106490400E-01 -1.845270691903E+00
    5     5 B     1.027602028883E+00 -6.115436902282E-01 -1.845270728904E+00
    6     5 B     1.027345407218E+00  1.779498506488E+00 -1.855313841757E+00
    7     1 H    -5.261042296421E+00 -1.558906511477E+00 -1.866092265045E+00
    8     1 H    -2.742161700580E+00  2.728043435495E+00 -1.869276229896E+00
    9     1 H    -1.262477574278E+00 -5.369861028385E+00  1.830281244588E+00
   10     1 H    -2.740839019663E+00 -1.560072379761E+00 -1.869644014614E+00
   11     1 H    -4.020092023568E+00  3.777992715975E+00  1.866044941438E+00
   12     1 H     2.008698372676E-02  4.324355007707E+00 -1.830818380480E+00
   13     1 H     5.280915625652E+00 -1.590384160308E+00  1.869719458582E+00
   14     1 H     3.733300751773E+00  2.179526692517E+00 -1.830451076767E+00
   15     1 H    -4.019567086000E+00 -3.778587341829E+00  1.833955391728E+00
   16     1 H     2.050485043845E-02 -3.155211719320E+00 -1.869276414898E+00
   17     1 H     1.281028776994E+00 -5.336962993911E+00 -1.869766597187E+00
   18     1 H     3.733023303014E+00 -1.011233117936E+00 -1.869643607609E+00
   19     6 C    -5.406162003228E+00  5.833461006495E-01 -1.855681330472E+00
   20     6 C    -4.695757385127E+00 -6.253815910322E-01 -1.865602267758E+00
   21     6 C    -3.304856234175E+00  1.792834460947E+00 -1.866459309754E+00
   22     6 C    -4.696238853485E+00  1.792343001388E+00 -1.863887258755E+00
   23     6 C    -3.304358904385E+00 -6.253313893943E-01 -1.870501352614E+00
   24     6 C    -2.593814393987E+00  5.838649814022E-01 -1.863764898185E+00
   25     6 C    -7.902071299652E-01 -1.369237013834E+00 -5.544460751673E+00
   26     6 C    -9.880397975467E-02 -2.588847946164E+00 -5.534540073390E+00
   27     6 C     1.111335873663E+00  4.343846156453E+00 -1.833635226620E+00
   28     6 C    -2.192204856633E+00 -1.379714036282E+00 -5.536254638388E+00
   29     6 C     3.205099989955E+00  3.134612587866E+00 -1.829593553765E+00
   30     6 C     1.802619513590E+00  3.123424386332E+00 -1.836329786191E+00
   31     6 C     3.209368047570E+00 -4.391062034299E+00 -1.855681367473E+00
   32     6 C     3.901121424324E+00 -3.171535626471E+00 -1.865602045756E+00
   33     6 C     1.111657345346E+00 -3.175675906725E+00 -1.866459494757E+00
   34     6 C     1.807295150956E+00 -4.380746881041E+00 -1.863887517758E+00
   35     6 C     3.205439718018E+00 -1.966586801171E+00 -1.870501093611E+00
   36     6 C     1.803036881688E+00 -1.955408193089E+00 -1.863764898185E+00
   37     8 O    -1.715912103918E+00 -5.839394913409E-01  5.547475550353E+00
   38     8 O     1.365023847487E+00 -2.609136981318E-02 -5.531478210107E+00
   39     8 O     3.521486949287E-01  6.103533585526E-01  5.536697534071E+00
   40     8 O    -3.521055687187E-01  1.778017325586E+00 -1.852619282186E+00
   41     8 O    -3.518524703210E-01 -6.102631644179E-01 -1.831430738336E+00
   42     8 O     1.715910921649E+00  5.840059003234E-01 -1.863397483471E+00

 *******************************************************************************
 STARTING BASIS SET HANDLING 
 *******************************************************************************

 Loading internal basis set: SOLDEF2MSVP         

 Please cite in your publication:
 L. Dona', J. G. Brandenburg and B. Civalleri, J. Chem. Phys., 151, 121101 (2019
 )                                                                              
                                                                                
                    

 *******************************************************************************
 LOCAL ATOMIC FUNCTIONS BASIS SET
 *******************************************************************************
   ATOM   X(AU)   Y(AU)   Z(AU)  N. TYPE  EXPONENT  S COEF   P COEF   D/F/G COEF
 *******************************************************************************
   1 B   -0.027  -0.051 -10.479
                                  1 S  
                                         2.410E+03 1.755E-03 0.000E+00 0.000E+00
                                         3.619E+02 1.344E-02 0.000E+00 0.000E+00
                                         8.231E+01 6.637E-02 0.000E+00 0.000E+00
                                         2.311E+01 2.303E-01 0.000E+00 0.000E+00
                                         7.252E+00 5.150E-01 0.000E+00 0.000E+00
                                  2 S  
                                         2.367E+00 1.000E+00 0.000E+00 0.000E+00
                                  3 S  
                                         5.533E-01 1.000E+00 0.000E+00 0.000E+00
                                  4 S  
                                         1.716E-01 1.000E+00 0.000E+00 0.000E+00
                           5-     7 P  
                                         6.002E+00 0.000E+00-3.555E-02 0.000E+00
                                         1.240E+00 0.000E+00-1.983E-01 0.000E+00
                                         3.367E-01 0.000E+00-5.048E-01 0.000E+00
                           8-    10 P  
                                         1.256E-01 0.000E+00 1.000E+00 0.000E+00
                          11-    15 D  
                                         8.880E-01 0.000E+00 0.000E+00 1.000E+00
   2 B    3.884   2.207 -10.479
   3 B   -1.941   1.154  10.478
   4 B   -1.970   1.103  -3.487
   5 B    1.942  -1.156  -3.487
   6 B    1.941   3.363  -3.506
   7 H   -9.942  -2.946  -3.526
                                 91 S  
                                         1.874E+01 1.968E-02 0.000E+00 0.000E+00
                                         2.826E+00 1.380E-01 0.000E+00 0.000E+00
                                         6.401E-01 4.783E-01 0.000E+00 0.000E+00
                                 92 S  
                                         1.756E-01 1.000E+00 0.000E+00 0.000E+00
   8 H   -5.182   5.155  -3.532
   9 H   -2.386 -10.148   3.459
  10 H   -5.179  -2.948  -3.533
  11 H   -7.597   7.139   3.526
  12 H    0.038   8.172  -3.460
  13 H    9.979  -3.005   3.533
  14 H    7.055   4.119  -3.459
  15 H   -7.596  -7.140   3.466
  16 H    0.039  -5.962  -3.532
  17 H    2.421 -10.085  -3.533
  18 H    7.054  -1.911  -3.533
  19 C  -10.216   1.102  -3.507
                                115 S  
                                         3.624E+03 1.634E-03 0.000E+00 0.000E+00
                                         5.440E+02 1.252E-02 0.000E+00 0.000E+00
                                         1.237E+02 6.211E-02 0.000E+00 0.000E+00
                                         3.476E+01 2.182E-01 0.000E+00 0.000E+00
                                         1.093E+01 4.980E-01 0.000E+00 0.000E+00
                                116 S  
                                         3.574E+00 1.000E+00 0.000E+00 0.000E+00
                                117 S  
                                         7.742E-01 1.000E+00 0.000E+00 0.000E+00
                                118 S  
                                         2.330E-01 1.000E+00 0.000E+00 0.000E+00
                         119-   121 P  
                                         9.443E+00 0.000E+00 3.790E-02 0.000E+00
                                         2.002E+00 0.000E+00 2.082E-01 0.000E+00
                                         5.463E-01 0.000E+00 5.047E-01 0.000E+00
                         122-   124 P  
                                         1.820E-01 0.000E+00 1.000E+00 0.000E+00
                         125-   129 D  
                                         8.880E-01 0.000E+00 0.000E+00 1.000E+00
  20 C   -8.874  -1.182  -3.525
  21 C   -6.245   3.388  -3.527
  22 C   -8.875   3.387  -3.522
  23 C   -6.244  -1.182  -3.535
  24 C   -4.902   1.103  -3.522
  25 C   -1.493  -2.587 -10.478
  26 C   -0.187  -4.892 -10.459
  27 C    2.100   8.209  -3.465
  28 C   -4.143  -2.607 -10.462
  29 C    6.057   5.924  -3.457
  30 C    3.406   5.902  -3.470
  31 C    6.065  -8.298  -3.507
  32 C    7.372  -5.993  -3.525
  33 C    2.101  -6.001  -3.527
  34 C    3.415  -8.278  -3.522
  35 C    6.057  -3.716  -3.535
  36 C    3.407  -3.695  -3.522
  37 O   -3.243  -1.103  10.483
                                385 S  
                                         6.773E+03 1.727E-03 0.000E+00 0.000E+00
                                         1.017E+03 1.325E-02 0.000E+00 0.000E+00
                                         2.313E+02 6.603E-02 0.000E+00 0.000E+00
                                         6.501E+01 2.353E-01 0.000E+00 0.000E+00
                                         2.050E+01 5.498E-01 0.000E+00 0.000E+00
                                386 S  
                                         6.716E+00 1.000E+00 0.000E+00 0.000E+00
                                387 S  
                                         1.147E+00 1.000E+00 0.000E+00 0.000E+00
                                388 S  
                                         3.342E-01 1.000E+00 0.000E+00 0.000E+00
                         389-   391 P  
                                         1.769E+01 0.000E+00 4.359E-02 0.000E+00
                                         3.854E+00 0.000E+00 2.318E-01 0.000E+00
                                         1.047E+00 0.000E+00 5.146E-01 0.000E+00
                         392-   394 P  
                                         2.759E-01 0.000E+00 1.000E+00 0.000E+00
                         395-   399 D  
                                         8.000E-01 0.000E+00 0.000E+00 1.000E+00
  38 O    2.580  -0.049 -10.453
  39 O    0.665   1.153  10.463
  40 O   -0.665   3.360  -3.501
  41 O   -0.665  -1.153  -3.461
  42 O    3.243   1.104  -3.521

 *******************************************************************************
 FINISHED BASIS SET HANDLING 
 *******************************************************************************

 INFORMATION **** SET_MPP **** PCRYSTAL CALCULATION
 INFORMATION **** READM2 **** NEW DEFAULT: FOCK/KS MATRIX MIXING SET TO 30 %
 INFORMATION **** READM2 **** NEW DEFAULT: FULL DIRECT SCF MODE
 INFORMATION **** READM2 **** NEW DEFAULT: COULOMB BIPOLAR BUFFER SET TO 32 Mb
 INFORMATION **** READM2 **** NEW DEFAULT: EXCHANGE BIPOLAR BUFFER SET TO 32 Mb

 *******************************************************************************
 NEW DEFAULT: DFT INTEGRATION GRID INCREASED TO XLGRID
 NEW DEFAULT: DIIS ACCELERATOR ACTIVE
 USE KEYWORD NODIIS TO TURN IT OFF
 *******************************************************************************

 WARNING **** RDDFTP **** HSEsol-HJS ACTIVE
 RANGE SEPARATION - OMEGA:   0.110000000000000     
 WARNING **** RDDFTP **** HSEsol-3c has to be combined with sol-def2-mSVP basis set
 *******************************************************************************
 N. OF ATOMS PER CELL        42  COULOMB OVERLAP TOL         (T1) 10**   -6
 NUMBER OF SHELLS           234  COULOMB PENETRATION TOL     (T2) 10**   -6
 NUMBER OF AO               474  EXCHANGE OVERLAP TOL        (T3) 10**   -6
 N. OF ELECTRONS PER CELL   198  EXCHANGE PSEUDO OVP (F(G))  (T4) 10**   -6
 CORE ELECTRONS PER CELL     60  EXCHANGE PSEUDO OVP (P(G))  (T5) 10**  -12
 N. OF SYMMETRY OPERATORS     1  POLE ORDER IN MONO ZONE                  4
 *******************************************************************************
 TYPE OF CALCULATION :  RESTRICTED CLOSED SHELL
 KOHN-SHAM HAMILTONIAN

 (EXCHANGE)[CORRELATION] FUNCTIONAL:(HSEsol GGA)[PBEsol]

 RANGE-SEPARATED HYBRID FUNCTIONAL 
 OMEGA (SHORT-RANGE)[LONG-RANGE]:(    0.1100)[    0.0000]

 HYBRID EXCHANGE - PERCENTAGE OF FOCK EXCHANGE    25.0000

 CAPPA:IS1  2;IS2  2;IS3  8; K PTS MONK NET  20; SYMMOPS:K SPACE   2;G SPACE   1

 *******************************************************************************
 MAX NUMBER OF SCF CYCLES      50  CONVERGENCE ON DELTAP        10**-16
 WEIGHT OF F(I) IN F(I+1)      30% CONVERGENCE ON ENERGY        10**- 6
 SHRINK. FACT.(MONKH.)    2  2  8  NUMBER OF K POINTS IN THE IBZ     20
 SHRINKING FACTOR(GILAT NET)    8  NUMBER OF K POINTS(GILAT NET)   1028
 *******************************************************************************
 *** K POINTS COORDINATES (OBLIQUE COORDINATES IN UNITS OF IS =  2)
   1-R(  0  0  0)   2-R(  1  0  0)   3-R(  0  1  0)   4-R(  1  1  0)
   5-C(  0  0  1)   6-C(  1  0  1)   7-C(  0  1  1)   8-C(  1  1  1)
   9-C(  0  0  2)  10-C(  1  0  2)  11-C(  0  1  2)  12-C(  1  1  2)
  13-C(  0  0  3)  14-C(  1  0  3)  15-C(  0  1  3)  16-C(  1  1  3)
  17-R(  0  0  4)  18-R(  1  0  4)  19-R(  0  1  4)  20-R(  1  1  4)

 DIRECT LATTICE VECTORS COMPON. (A.U.)     RECIP. LATTICE VECTORS COMPON. (A.U.) 
        X            Y            Z              X            Y            Z
   24.5879030  -14.1935232    0.0000000      0.2555397    0.0000000   -0.2762213
    0.0000000   28.3910867    0.0000000      0.1277517    0.2213084   -0.5524984
    7.5579675   13.0928995    6.9920764      0.0000000    0.0000000    0.8986151

 DISK SPACE FOR EIGENVECTORS (FTN 10)     7189632 REALS

 SYMMETRY ADAPTION OF THE BLOCH FUNCTIONS DISABLED
 TTTTTTTTTTTTTTTTTTTTTTTTTTTTTT gordsh1     TELAPSE        0.04 TCPU        0.04

 MATRIX SIZE: P(G)  315224, F(G)   61719, P(G) IRR  158779, F(G) IRR   62199
 MAX G-VECTOR INDEX FOR 1- AND 2-ELECTRON INTEGRALS  55

 TTTTTTTTTTTTTTTTTTTTTTTTTTTTTT INPUT       TELAPSE        0.41 TCPU        0.41

 NEIGHBORS OF THE NON-EQUIVALENT ATOMS

 N = NUMBER OF NEIGHBORS AT DISTANCE R
    ATOM  N     R/ANG      R/AU   NEIGHBORS (ATOM LABELS AND CELL INDICES)
   1 B    1     1.3791     2.6061   37 O    1 2-3
   1 B    1     1.3793     2.6065   38 O    0 0 0
   1 B    1     1.5503     2.9297   25 C    0 0 0
   1 B    1     2.3895     4.5155    3 B    1 2-3
   1 B    1     2.3898     4.5160    2 B    0 0 0
   1 B    1     2.5632     4.8437   26 C    0 0 0

   2 B    1     1.3793     2.6065   39 O    1 2-3
   2 B    1     1.3793     2.6065   38 O    0 0 0
   2 B    1     1.5504     2.9298   19 C    1 1-1
   2 B    1     2.3895     4.5156    3 B    1 2-3
   2 B    1     2.3898     4.5160    1 B    0 0 0
   2 B    1     2.5634     4.8440   22 C    1 1-1

   3 B    1     1.3791     2.6061   37 O    0 0 0
   3 B    1     1.3793     2.6064   39 O    0 0 0
   3 B    1     1.5502     2.9294   31 C   -1-1 2
   3 B    1     2.3895     4.5155    1 B   -1-2 3
   3 B    1     2.3895     4.5156    2 B   -1-2 3
   3 B    1     2.5629     4.8433   32 C   -1-1 2

   4 B    1     1.3795     2.6068   40 O    0 0 0
   4 B    1     1.3795     2.6070   41 O    0 0 0
   4 B    1     1.5513     2.9316   24 C    0 0 0
   4 B    1     2.3905     4.5174    6 B    0 0 0
   4 B    1     2.3905     4.5175    5 B    0 0 0
   4 B    1     2.5648     4.8468   23 C    0 0 0

   5 B    1     1.3795     2.6069   41 O    0 0 0
   5 B    1     1.3797     2.6072   42 O    0 0 0
   5 B    1     1.5516     2.9322   36 C    0 0 0
   5 B    1     2.3905     4.5175    4 B    0 0 0
   5 B    1     2.3911     4.5185    6 B    0 0 0
   5 B    1     2.5651     4.8473   35 C    0 0 0

   6 B    1     1.3795     2.6068   40 O    0 0 0
   6 B    1     1.3796     2.6071   42 O    0 0 0
   6 B    1     1.5516     2.9322   30 C    0 0 0
   6 B    1     2.3905     4.5174    4 B    0 0 0
   6 B    1     2.3911     4.5185    5 B    0 0 0
   6 B    1     2.5651     4.8473   29 C    0 0 0

   7 H    1     1.0913     2.0623   20 C    0 0 0
   7 H    1     2.1472     4.0576   19 C    0 0 0
   7 H    1     2.1680     4.0969   23 C    0 0 0
   7 H    1     2.5202     4.7625   10 H    0 0 0
   7 H    1     2.5676     4.8520   38 O   -1-1 1
   7 H    1     2.7321     5.1630    2 B   -1-1 1

   8 H    1     1.0914     2.0625   21 C    0 0 0
   8 H    1     2.1493     4.0616   24 C    0 0 0
   8 H    1     2.1666     4.0942   22 C    0 0 0
   8 H    1     2.5198     4.7618    9 H    0 1-1
   8 H    1     2.5720     4.8604   40 O    0 0 0
   8 H    1     2.7362     5.1707    4 B    0 0 0

   9 H    1     1.0914     2.0624   22 C    0-1 1
   9 H    1     2.1471     4.0575   19 C    0-1 1
   9 H    1     2.1680     4.0970   21 C    0-1 1
   9 H    1     2.5198     4.7618    8 H    0-1 1
   9 H    1     2.5665     4.8500   39 O    0 0-1
   9 H    1     2.7315     5.1618    2 B   -1-2 2

  10 H    1     1.0915     2.0626   23 C    0 0 0
  10 H    1     2.1490     4.0610   24 C    0 0 0
  10 H    1     2.1669     4.0948   20 C    0 0 0
  10 H    1     2.5202     4.7625    7 H    0 0 0
  10 H    1     2.5712     4.8588   41 O    0 0 0
  10 H    1     2.7351     5.1686    4 B    0 0 0

  11 H    1     1.0913     2.0623   26 C   -1-1 2
  11 H    1     2.1469     4.0571   25 C   -1-1 2
  11 H    1     2.1680     4.0968   29 C   -1-1 1
  11 H    1     2.5198     4.7617   14 H   -1-1 1
  11 H    1     2.5670     4.8510   38 O   -1-1 2
  11 H    1     2.7310     5.1609    1 B   -1-1 2

  12 H    1     1.0914     2.0625   27 C    0 0 0
  12 H    1     2.1493     4.0617   30 C    0 0 0
  12 H    1     2.1664     4.0939   28 C    0 0 1
  12 H    1     2.5192     4.7606   13 H    0 1-1
  12 H    1     2.5735     4.8632   40 O    0 0 0
  12 H    1     2.7371     5.1723    6 B    0 0 0

  13 H    1     1.0914     2.0624   28 C    0-1 2
  13 H    1     2.1475     4.0581   25 C    0-1 2
  13 H    1     2.1679     4.0967   27 C    0-1 1
  13 H    1     2.5192     4.7606   12 H    0-1 1
  13 H    1     2.5675     4.8519   37 O    1 1-1
  13 H    1     2.7328     5.1643    1 B    0-1 2

  14 H    1     1.0914     2.0625   29 C    0 0 0
  14 H    1     2.1491     4.0612   30 C    0 0 0
  14 H    1     2.1666     4.0942   26 C    0 0 1
  14 H    1     2.5198     4.7617   11 H    1 1-1
  14 H    1     2.5723     4.8609   42 O    0 0 0
  14 H    1     2.7355     5.1693    6 B    0 0 0

  15 H    1     1.0914     2.0624   32 C   -1-1 1
  15 H    1     2.1475     4.0582   31 C   -1-1 1
  15 H    1     2.1678     4.0966   35 C   -1-1 1
  15 H    1     2.5200     4.7621   18 H   -1-1 1
  15 H    1     2.5667     4.8503   39 O    0 0-1
  15 H    1     2.7315     5.1618    3 B    0 0-1

  16 H    1     1.0913     2.0623   33 C    0 0 0
  16 H    1     2.1487     4.0605   36 C    0 0 0
  16 H    1     2.1667     4.0945   34 C    0 0 0
  16 H    1     2.5197     4.7616   17 H    0 0 0
  16 H    1     2.5723     4.8610   41 O    0 0 0
  16 H    1     2.7359     5.1701    5 B    0 0 0

  17 H    1     1.0915     2.0626   34 C    0 0 0
  17 H    1     2.1479     4.0589   31 C    0 0 0
  17 H    1     2.1679     4.0968   33 C    0 0 0
  17 H    1     2.5197     4.7616   16 H    0 0 0
  17 H    1     2.5677     4.8522   37 O    1 1-2
  17 H    1     2.7331     5.1648    3 B    1 1-2

  18 H    1     1.0914     2.0624   35 C    0 0 0
  18 H    1     2.1486     4.0602   36 C    0 0 0
  18 H    1     2.1668     4.0947   32 C    0 0 0
  18 H    1     2.5200     4.7621   15 H    1 1-1
  18 H    1     2.5717     4.8598   42 O    0 0 0
  18 H    1     2.7349     5.1682    5 B    0 0 0

  19 C    1     1.4020     2.6495   22 C    0 0 0
  19 C    1     1.4021     2.6495   20 C    0 0 0
  19 C    1     1.5504     2.9298    2 B   -1-1 1
  19 C    1     2.1471     4.0575    9 H    0 1-1
  19 C    1     2.1472     4.0576    7 H    0 0 0
  19 C    1     2.4246     4.5817   21 C    0 0 0

  20 C    1     1.0913     2.0623    7 H    0 0 0
  20 C    1     1.3914     2.6294   23 C    0 0 0
  20 C    1     1.4021     2.6495   19 C    0 0 0
  20 C    1     2.1669     4.0948   10 H    0 0 0
  20 C    1     2.4177     4.5688   22 C    0 0 0
  20 C    1     2.4250     4.5825   24 C    0 0 0

  21 C    1     1.0914     2.0625    8 H    0 0 0
  21 C    1     1.3914     2.6293   22 C    0 0 0
  21 C    1     1.4026     2.6505   24 C    0 0 0
  21 C    1     2.1680     4.0970    9 H    0 1-1
  21 C    1     2.4182     4.5697   23 C    0 0 0
  21 C    1     2.4246     4.5817   19 C    0 0 0

  22 C    1     1.0914     2.0624    9 H    0 1-1
  22 C    1     1.3914     2.6293   21 C    0 0 0
  22 C    1     1.4020     2.6495   19 C    0 0 0
  22 C    1     2.1666     4.0942    8 H    0 0 0
  22 C    1     2.4177     4.5688   20 C    0 0 0
  22 C    1     2.4250     4.5826   24 C    0 0 0

  23 C    1     1.0915     2.0626   10 H    0 0 0
  23 C    1     1.3914     2.6294   20 C    0 0 0
  23 C    1     1.4025     2.6504   24 C    0 0 0
  23 C    1     2.1680     4.0969    7 H    0 0 0
  23 C    1     2.4182     4.5697   21 C    0 0 0
  23 C    1     2.4246     4.5818   19 C    0 0 0

  24 C    1     1.4025     2.6504   23 C    0 0 0
  24 C    1     1.4026     2.6505   21 C    0 0 0
  24 C    1     1.5513     2.9316    4 B    0 0 0
  24 C    1     2.1490     4.0610   10 H    0 0 0
  24 C    1     2.1493     4.0616    8 H    0 0 0
  24 C    1     2.4250     4.5825   20 C    0 0 0

  25 C    1     1.4020     2.6494   26 C    0 0 0
  25 C    1     1.4021     2.6495   28 C    0 0 0
  25 C    1     1.5503     2.9297    1 B    0 0 0
  25 C    1     2.1469     4.0571   11 H    1 1-2
  25 C    1     2.1475     4.0581   13 H    0 1-2
  25 C    1     2.4246     4.5818   27 C    0 0-1

  26 C    1     1.0913     2.0623   11 H    1 1-2
  26 C    1     1.3914     2.6293   29 C    0 0-1
  26 C    1     1.4020     2.6494   25 C    0 0 0
  26 C    1     2.1666     4.0942   14 H    0 0-1
  26 C    1     2.4175     4.5684   28 C    0 0 0
  26 C    1     2.4251     4.5828   30 C    0 0-1

  27 C    1     1.0914     2.0625   12 H    0 0 0
  27 C    1     1.3915     2.6295   28 C    0 0 1
  27 C    1     1.4026     2.6505   30 C    0 0 0
  27 C    1     2.1679     4.0967   13 H    0 1-1
  27 C    1     2.4179     4.5691   29 C    0 0 0
  27 C    1     2.4246     4.5818   25 C    0 0 1

  28 C    1     1.0914     2.0624   13 H    0 1-2
  28 C    1     1.3915     2.6295   27 C    0 0-1
  28 C    1     1.4021     2.6495   25 C    0 0 0
  28 C    1     2.1664     4.0939   12 H    0 0-1
  28 C    1     2.4175     4.5684   26 C    0 0 0
  28 C    1     2.4253     4.5832   30 C    0 0-1

  29 C    1     1.0914     2.0625   14 H    0 0 0
  29 C    1     1.3914     2.6293   26 C    0 0 1
  29 C    1     1.4025     2.6504   30 C    0 0 0
  29 C    1     2.1680     4.0968   11 H    1 1-1
  29 C    1     2.4179     4.5691   27 C    0 0 0
  29 C    1     2.4247     4.5819   25 C    0 0 1

  30 C    1     1.4025     2.6504   29 C    0 0 0
  30 C    1     1.4026     2.6505   27 C    0 0 0
  30 C    1     1.5516     2.9322    6 B    0 0 0
  30 C    1     2.1491     4.0612   14 H    0 0 0
  30 C    1     2.1493     4.0617   12 H    0 0 0
  30 C    1     2.4251     4.5828   26 C    0 0 1

  31 C    1     1.4021     2.6496   32 C    0 0 0
  31 C    1     1.4021     2.6497   34 C    0 0 0
  31 C    1     1.5502     2.9294    3 B    1 1-2
  31 C    1     2.1475     4.0582   15 H    1 1-1
  31 C    1     2.1479     4.0589   17 H    0 0 0
  31 C    1     2.4244     4.5814   33 C    0 0 0

  32 C    1     1.0914     2.0624   15 H    1 1-1
  32 C    1     1.3914     2.6293   35 C    0 0 0
  32 C    1     1.4021     2.6496   31 C    0 0 0
  32 C    1     2.1668     4.0947   18 H    0 0 0
  32 C    1     2.4179     4.5692   34 C    0 0 0
  32 C    1     2.4251     4.5827   36 C    0 0 0

  33 C    1     1.0913     2.0623   16 H    0 0 0
  33 C    1     1.3914     2.6294   34 C    0 0 0
  33 C    1     1.4025     2.6504   36 C    0 0 0
  33 C    1     2.1679     4.0968   17 H    0 0 0
  33 C    1     2.4178     4.5690   35 C    0 0 0
  33 C    1     2.4244     4.5814   31 C    0 0 0

  34 C    1     1.0915     2.0626   17 H    0 0 0
  34 C    1     1.3914     2.6294   33 C    0 0 0
  34 C    1     1.4021     2.6497   31 C    0 0 0
  34 C    1     2.1667     4.0945   16 H    0 0 0
  34 C    1     2.4179     4.5692   32 C    0 0 0
  34 C    1     2.4253     4.5832   36 C    0 0 0

  35 C    1     1.0914     2.0624   18 H    0 0 0
  35 C    1     1.3914     2.6293   32 C    0 0 0
  35 C    1     1.4025     2.6503   36 C    0 0 0
  35 C    1     2.1678     4.0966   15 H    1 1-1
  35 C    1     2.4178     4.5690   33 C    0 0 0
  35 C    1     2.4245     4.5817   31 C    0 0 0

  36 C    1     1.4025     2.6503   35 C    0 0 0
  36 C    1     1.4025     2.6504   33 C    0 0 0
  36 C    1     1.5516     2.9322    5 B    0 0 0
  36 C    1     2.1486     4.0602   18 H    0 0 0
  36 C    1     2.1487     4.0605   16 H    0 0 0
  36 C    1     2.4251     4.5827   32 C    0 0 0

  37 O    1     1.3791     2.6061    1 B   -1-2 3
  37 O    1     1.3791     2.6061    3 B    0 0 0
  37 O    1     2.3880     4.5126   38 O   -1-2 3
  37 O    1     2.3882     4.5130   39 O    0 0 0
  37 O    1     2.5383     4.7966   31 C   -1-1 2
  37 O    1     2.5384     4.7968   25 C   -1-2 3

  38 O    1     1.3793     2.6065    1 B    0 0 0
  38 O    1     1.3793     2.6065    2 B    0 0 0
  38 O    1     2.3880     4.5126   37 O    1 2-3
  38 O    1     2.3882     4.5131   39 O    1 2-3
  38 O    1     2.5391     4.7981   19 C    1 1-1
  38 O    1     2.5395     4.7990   25 C    0 0 0

  39 O    1     1.3793     2.6064    3 B    0 0 0
  39 O    1     1.3793     2.6065    2 B   -1-2 3
  39 O    1     2.3882     4.5130   37 O    0 0 0
  39 O    1     2.3882     4.5131   38 O   -1-2 3
  39 O    1     2.5390     4.7980   19 C    0-1 2
  39 O    1     2.5391     4.7982   31 C   -1-1 2

  40 O    1     1.3795     2.6068    6 B    0 0 0
  40 O    1     1.3795     2.6068    4 B    0 0 0
  40 O    1     2.3880     4.5126   42 O    0 0 0
  40 O    1     2.3884     4.5134   41 O    0 0 0
  40 O    1     2.5400     4.7998   24 C    0 0 0
  40 O    1     2.5403     4.8005   30 C    0 0 0

  41 O    1     1.3795     2.6069    5 B    0 0 0
  41 O    1     1.3795     2.6070    4 B    0 0 0
  41 O    1     2.3881     4.5128   42 O    0 0 0
  41 O    1     2.3884     4.5134   40 O    0 0 0
  41 O    1     2.5404     4.8006   24 C    0 0 0
  41 O    1     2.5405     4.8008   36 C    0 0 0

  42 O    1     1.3796     2.6071    6 B    0 0 0
  42 O    1     1.3797     2.6072    5 B    0 0 0
  42 O    1     2.3880     4.5126   40 O    0 0 0
  42 O    1     2.3881     4.5128   41 O    0 0 0
  42 O    1     2.5409     4.8016   36 C    0 0 0
  42 O    1     2.5410     4.8019   30 C    0 0 0


 SYMMETRY ALLOWED INTERNAL DEGREE(S) OF FREEDOM: 123
 TTTTTTTTTTTTTTTTTTTTTTTTTTTTTT SYMM        TELAPSE        0.42 TCPU        0.41
 TTTTTTTTTTTTTTTTTTTTTTTTTTTTTT INT_SCREEN  TELAPSE        0.45 TCPU        0.45

 DFT PARAMETERS

     ATOM       ELECTRONS   NET CHARGE   R(ANGSTROM)
   1   5  B       5.0000      0.0000     0.89000000
   7   1  H       1.0000      0.0000     1.11000000
  19   6  C       6.0000      0.0000     0.77000000
  37   8  O       8.0000      0.0000     0.74000000

 SIZE OF GRID=    1308459
 TTTTTTTTTTTTTTTTTTTTTTTTTTTTTT MAKE_GRID2  TELAPSE        8.93 TCPU        8.92
 BECKE WEIGHT FUNCTION
 RADSAFE =     2.00
 TOLERANCES - DENSITY:10**- 6; POTENTIAL:10**- 9; GRID WGT:10**-14

 RADIAL INTEGRATION  - INTERVALS (POINTS,UPPER LIMIT):            1( 75,  4.0*R)

 ANGULAR INTEGRATION - INTERVALS (ACCURACY LEVEL [N. POINTS] UPPER LIMIT):
  1(  4[  86]   0.2)  2(  8[ 194]   0.5)  3( 12[ 350]   0.9)  4( 16[ 974]   3.5)
  5( 12[ 350]9999.0)
 TTTTTTTTTTTTTTTTTTTTTTTTTTTTTT INT_CALC    TELAPSE        9.00 TCPU        8.99
 EEEEEEEEEE INT_CALC TERMINATION  DATE 19 02 2026 TIME 18:53:52.2

 *******************************************************************************
 cof-1_z37_L080_incl                                                             
 CRYSTAL - SCF - TYPE OF CALCULATION :  RESTRICTED CLOSED SHELL
 *******************************************************************************

 CAPPA:IS1  2;IS2  2;IS3  8; K PTS MONK NET  20; SYMMOPS:K SPACE   2;G SPACE   1

 TTTTTTTTTTTTTTTTTTTTTTTTTTTTTT SDIK        TELAPSE        9.59 TCPU       17.13

 AAAAAAAAAAAAAAAAAAAAAAAAAAAAAAAAAAAAAAAAAAAAAAAAAAAAAAAAAAAAAAAAAAAAAAAAAAAAAAA
         ATOMIC WAVEFUNCTION(S)


 NUCLEAR CHARGE  5.0  SYMMETRY SPECIES            S    P
 N. ELECTRONS    5.0  NUMBER OF PRIMITIVE GTOS    8    4
                      NUMBER OF CONTRACTED GTOS   4    2
                      NUMBER OF CLOSED SHELLS     2    0
                      OPEN SHELL OCCUPATION       0    1

  ZNUC  SCFIT    TOTAL HF ENERGY   KINETIC ENERGY   VIRIAL THEOREM ACCURACY
   5.0    11    -2.451164084E+01  2.462155050E+01 -1.995536038E+00  1.5E-06

 NUCLEAR CHARGE  1.0  SYMMETRY SPECIES            S
 N. ELECTRONS    1.0  NUMBER OF PRIMITIVE GTOS    4
                      NUMBER OF CONTRACTED GTOS   2
                      NUMBER OF CLOSED SHELLS     0
                      OPEN SHELL OCCUPATION       1

  ZNUC  SCFIT    TOTAL HF ENERGY   KINETIC ENERGY   VIRIAL THEOREM ACCURACY
   1.0     1    -4.977266687E-01  5.190767460E-01 -1.958869132E+00  0.0E+00

 NUCLEAR CHARGE  6.0  SYMMETRY SPECIES            S    P
 N. ELECTRONS    6.0  NUMBER OF PRIMITIVE GTOS    8    4
                      NUMBER OF CONTRACTED GTOS   4    2
                      NUMBER OF CLOSED SHELLS     2    0
                      OPEN SHELL OCCUPATION       0    2

  ZNUC  SCFIT    TOTAL HF ENERGY   KINETIC ENERGY   VIRIAL THEOREM ACCURACY
   6.0     9    -3.766704647E+01  3.775180683E+01 -1.997754800E+00  1.1E-06

 NUCLEAR CHARGE  8.0  SYMMETRY SPECIES            S    P
 N. ELECTRONS    8.0  NUMBER OF PRIMITIVE GTOS    8    4
                      NUMBER OF CONTRACTED GTOS   4    2
                      NUMBER OF CLOSED SHELLS     2    0
                      OPEN SHELL OCCUPATION       0    4

  ZNUC  SCFIT    TOTAL HF ENERGY   KINETIC ENERGY   VIRIAL THEOREM ACCURACY
   8.0    12    -7.477373220E+01  7.477365593E+01 -2.000001020E+00  3.8E-06

 AAAAAAAAAAAAAAAAAAAAAAAAAAAAAAAAAAAAAAAAAAAAAAAAAAAAAAAAAAAAAAAAAAAAAAAAAAAAAAA

 CHARGE NORMALIZATION FACTOR   1.00000000
 TOTAL ATOMIC CHARGES:
   5.0000000   5.0000000   5.0000000   5.0000000   5.0000000   5.0000000
   1.0000000   1.0000000   1.0000000   1.0000000   1.0000000   1.0000000
   1.0000000   1.0000000   1.0000000   1.0000000   1.0000000   1.0000000
   6.0000000   6.0000000   6.0000000   6.0000000   6.0000000   6.0000000
   6.0000000   6.0000000   6.0000000   6.0000000   6.0000000   6.0000000
   6.0000000   6.0000000   6.0000000   6.0000000   6.0000000   6.0000000
   8.0000000   8.0000000   8.0000000   8.0000000   8.0000000   8.0000000
 TTTTTTTTTTTTTTTTTTTTTTTTTTTTTT MOQGAD      TELAPSE        9.64 TCPU       18.55
 TTTTTTTTTTTTTTTTTTTTTTTTTTTTTT SHELLXN     TELAPSE       16.06 TCPU      223.95
 TTTTTTTTTTTTTTTTTTTTTTTTTTTTTT MONMO3      TELAPSE       16.20 TCPU      228.34
 NUMERICALLY INTEGRATED DENSITY    197.9999546882
 TTTTTTTTTTTTTTTTTTTTTTTTTTTTTT NUMDFT      TELAPSE       16.82 TCPU      248.21
 CYC   0 ETOT(AU) -1.295958778150E+03 DETOT -1.30E+03 tst  0.00E+00 PX  1.00E+00
 TTTTTTTTTTTTTTTTTTTTTTTTTTTTTT DIIS        TELAPSE       16.86 TCPU      249.43
 TTTTTTTTTTTTTTTTTTTTTTTTTTTTTT FDIK        TELAPSE       17.34 TCPU      264.68
 INSULATING STATE
 TOP OF VALENCE BANDS -    BAND     99; K    1; EIG -3.1004883E-01 AU
 BOTTOM OF VIRTUAL BANDS - BAND    100; K    1; EIG -1.5924085E-01 AU
 DIRECT ENERGY BAND GAP:   4.1037 eV
 TTTTTTTTTTTTTTTTTTTTTTTTTTTTTT PDIG        TELAPSE       17.68 TCPU      270.87
 CHARGE NORMALIZATION FACTOR   1.00000000
 TOTAL ATOMIC CHARGES:
   4.1513002   4.1590166   4.1595112   4.1589766   4.1586635   4.1504971
   0.7853634   0.7854903   0.7853934   0.7855530   0.7855616   0.7857126
   0.7855510   0.7856701   0.7853974   0.7856216   0.7853153   0.7854813
   6.0434842   6.2662427   6.2661946   6.2656614   6.2656471   6.0429703
   6.0465903   6.2664062   6.2665283   6.2663316   6.2665140   6.0452506
   6.0439606   6.2653850   6.2660208   6.2658372   6.2664700   6.0425396
   8.6959671   8.6962337   8.6960753   8.6964478   8.6964137   8.6967515
 TTTTTTTTTTTTTTTTTTTTTTTTTTTTTT MOQGAD      TELAPSE       17.72 TCPU      270.91
 TTTTTTTTTTTTTTTTTTTTTTTTTTTTTT SHELLXN     TELAPSE       24.42 TCPU      484.25
 TTTTTTTTTTTTTTTTTTTTTTTTTTTTTT MONMO3      TELAPSE       24.56 TCPU      488.63
 NUMERICALLY INTEGRATED DENSITY    197.9999821988
 TTTTTTTTTTTTTTTTTTTTTTTTTTTTTT NUMDFT      TELAPSE       25.19 TCPU      508.79
 CYC   1 ETOT(AU) -1.288816365478E+03 DETOT  7.14E+00 tst  0.00E+00 PX  1.00E+00
 TTTTTTTTTTTTTTTTTTTTTTTTTTTTTT DIIS        TELAPSE       25.24 TCPU      510.36
 DIIS TEST: 0.11143E+01 AT SCF   CYCLE   1 - MIX   30 %
 TTTTTTTTTTTTTTTTTTTTTTTTTTTTTT FDIK        TELAPSE       25.72 TCPU      525.78
 INSULATING STATE
 TOP OF VALENCE BANDS -    BAND     99; K    1; EIG -2.2136166E-01 AU
 BOTTOM OF VIRTUAL BANDS - BAND    100; K    1; EIG -8.4813031E-02 AU
 DIRECT ENERGY BAND GAP:   3.7157 eV
 TTTTTTTTTTTTTTTTTTTTTTTTTTTTTT PDIG        TELAPSE       26.06 TCPU      531.97
 CHARGE NORMALIZATION FACTOR   1.00000000
 TOTAL ATOMIC CHARGES:
   4.7107538   4.7053429   4.7061245   4.7059705   4.7051882   4.7109529
   0.9063379   0.9064536   0.9063309   0.9059910   0.9054815   0.9058611
   0.9054802   0.9057348   0.9062239   0.9060564   0.9064046   0.9064681
   5.8721200   6.1387547   6.1389645   6.1309325   6.1311567   5.8750363
   5.8820016   6.1285764   6.1302483   6.1290887   6.1302983   5.8851911
   5.8723613   6.1310616   6.1311652   6.1390649   6.1384410   5.8748000
   8.3385744   8.3391285   8.3342814   8.3387279   8.3335019   8.3393657
 TTTTTTTTTTTTTTTTTTTTTTTTTTTTTT MOQGAD      TELAPSE       26.10 TCPU      532.01
 TTTTTTTTTTTTTTTTTTTTTTTTTTTTTT SHELLXN     TELAPSE       32.80 TCPU      745.13
 TTTTTTTTTTTTTTTTTTTTTTTTTTTTTT MONMO3      TELAPSE       32.93 TCPU      749.50
 NUMERICALLY INTEGRATED DENSITY    197.9999763370
 TTTTTTTTTTTTTTTTTTTTTTTTTTTTTT NUMDFT      TELAPSE       33.56 TCPU      769.64
 CYC   2 ETOT(AU) -1.289010272852E+03 DETOT -1.94E-01 tst  3.55E-03 PX  1.59E-01
 TTTTTTTTTTTTTTTTTTTTTTTTTTTTTT DIIS        TELAPSE       33.61 TCPU      771.25
 DIIS TEST: 0.46376E+00 AT SCF   CYCLE   2 - DIIS ACTIVE - HISTORY:     2 CYCLES
 TTTTTTTTTTTTTTTTTTTTTTTTTTTTTT FDIK        TELAPSE       34.11 TCPU      786.89
 INSULATING STATE
 TOP OF VALENCE BANDS -    BAND     99; K    1; EIG -2.3466395E-01 AU
 BOTTOM OF VIRTUAL BANDS - BAND    100; K    1; EIG -7.9028897E-02 AU
 DIRECT ENERGY BAND GAP:   4.2350 eV
 TTTTTTTTTTTTTTTTTTTTTTTTTTTTTT PDIG        TELAPSE       34.44 TCPU      793.08
 CHARGE NORMALIZATION FACTOR   1.00000000
 TOTAL ATOMIC CHARGES:
   4.4981061   4.4973893   4.4980631   4.4979805   4.4973098   4.4978043
   0.8854556   0.8856925   0.8855627   0.8854144   0.8840783   0.8847002
   0.8841190   0.8845522   0.8854809   0.8854555   0.8855783   0.8856080
   5.8905677   6.1637856   6.1630979   6.1631878   6.1632382   5.8904508
   5.8916712   6.1642119   6.1638146   6.1641742   6.1639539   5.8900008
   5.8905860   6.1631417   6.1634700   6.1634302   6.1632797   5.8904604
   8.5132065   8.5136746   8.5153357   8.5134485   8.5155708   8.5138906
 TTTTTTTTTTTTTTTTTTTTTTTTTTTTTT MOQGAD      TELAPSE       34.49 TCPU      793.12
 TTTTTTTTTTTTTTTTTTTTTTTTTTTTTT SHELLXN     TELAPSE       41.19 TCPU     1006.30
 TTTTTTTTTTTTTTTTTTTTTTTTTTTTTT MONMO3      TELAPSE       41.32 TCPU     1010.68
 NUMERICALLY INTEGRATED DENSITY    197.9999777944
 TTTTTTTTTTTTTTTTTTTTTTTTTTTTTT NUMDFT      TELAPSE       41.95 TCPU     1030.85
 CYC   3 ETOT(AU) -1.289105608136E+03 DETOT -9.53E-02 tst  7.28E-04 PX  6.37E-02
 TTTTTTTTTTTTTTTTTTTTTTTTTTTTTT DIIS        TELAPSE       42.02 TCPU     1032.78
 DIIS TEST: 0.13341E-01 AT SCF   CYCLE   3 - DIIS ACTIVE - HISTORY:     3 CYCLES
 TTTTTTTTTTTTTTTTTTTTTTTTTTTTTT FDIK        TELAPSE       42.50 TCPU     1048.29
 INSULATING STATE
 TOP OF VALENCE BANDS -    BAND     99; K    1; EIG -2.4362855E-01 AU
 BOTTOM OF VIRTUAL BANDS - BAND    100; K    1; EIG -8.7438607E-02 AU
 DIRECT ENERGY BAND GAP:   4.2501 eV
 TTTTTTTTTTTTTTTTTTTTTTTTTTTTTT PDIG        TELAPSE       42.84 TCPU     1054.48
 CHARGE NORMALIZATION FACTOR   1.00000000
 TOTAL ATOMIC CHARGES:
   4.5044136   4.5026408   4.5033642   4.5031147   4.5023158   4.5040667
   0.8687250   0.8688106   0.8690302   0.8688771   0.8681158   0.8683920
   0.8681179   0.8682761   0.8689583   0.8689408   0.8687719   0.8688096
   5.9412532   6.1699731   6.1703230   6.1650667   6.1651356   5.9429693
   5.9475311   6.1639608   6.1653499   6.1642644   6.1653254   5.9496731
   5.9417187   6.1650264   6.1652838   6.1701079   6.1700470   5.9425266
   8.4828184   8.4832467   8.4792363   8.4831128   8.4786984   8.4836103
 TTTTTTTTTTTTTTTTTTTTTTTTTTTTTT MOQGAD      TELAPSE       42.88 TCPU     1054.52
 TTTTTTTTTTTTTTTTTTTTTTTTTTTTTT SHELLXN     TELAPSE       49.58 TCPU     1267.89
 TTTTTTTTTTTTTTTTTTTTTTTTTTTTTT MONMO3      TELAPSE       49.72 TCPU     1272.28
 NUMERICALLY INTEGRATED DENSITY    197.9999779331
 TTTTTTTTTTTTTTTTTTTTTTTTTTTTTT NUMDFT      TELAPSE       50.35 TCPU     1292.40
 CYC   4 ETOT(AU) -1.289108408231E+03 DETOT -2.80E-03 tst  3.38E-05 PX  1.29E-02
 TTTTTTTTTTTTTTTTTTTTTTTTTTTTTT DIIS        TELAPSE       50.41 TCPU     1294.41
 DIIS TEST: 0.38157E-02 AT SCF   CYCLE   4 - DIIS ACTIVE - HISTORY:     4 CYCLES
 TTTTTTTTTTTTTTTTTTTTTTTTTTTTTT FDIK        TELAPSE       50.90 TCPU     1309.88
 INSULATING STATE
 TOP OF VALENCE BANDS -    BAND     99; K    1; EIG -2.4212427E-01 AU
 BOTTOM OF VIRTUAL BANDS - BAND    100; K    1; EIG -8.7280213E-02 AU
 DIRECT ENERGY BAND GAP:   4.2135 eV
 TTTTTTTTTTTTTTTTTTTTTTTTTTTTTT PDIG        TELAPSE       51.23 TCPU     1316.07
 CHARGE NORMALIZATION FACTOR   1.00000000
 TOTAL ATOMIC CHARGES:
   4.5077821   4.5051352   4.5058546   4.5057494   4.5050006   4.5075761
   0.8715008   0.8717185   0.8716437   0.8714719   0.8704073   0.8709474
   0.8704330   0.8708077   0.8715656   0.8715227   0.8716030   0.8716643
   5.9219425   6.1704741   6.1699557   6.1670998   6.1671657   5.9224586
   5.9263995   6.1671288   6.1671895   6.1671989   6.1673427   5.9257235
   5.9219920   6.1670576   6.1673656   6.1702331   6.1700272   5.9224265
   8.4912070   8.4917076   8.4910875   8.4914149   8.4910879   8.4919299
 TTTTTTTTTTTTTTTTTTTTTTTTTTTTTT MOQGAD      TELAPSE       51.28 TCPU     1316.11
 TTTTTTTTTTTTTTTTTTTTTTTTTTTTTT SHELLXN     TELAPSE       57.98 TCPU     1529.31
 TTTTTTTTTTTTTTTTTTTTTTTTTTTTTT MONMO3      TELAPSE       58.11 TCPU     1533.69
 NUMERICALLY INTEGRATED DENSITY    197.9999780270
 TTTTTTTTTTTTTTTTTTTTTTTTTTTTTT NUMDFT      TELAPSE       58.74 TCPU     1553.87
 CYC   5 ETOT(AU) -1.289109284321E+03 DETOT -8.76E-04 tst  6.76E-06 PX  6.75E-03
 TTTTTTTTTTTTTTTTTTTTTTTTTTTTTT DIIS        TELAPSE       58.81 TCPU     1556.13
 DIIS TEST: 0.72948E-04 AT SCF   CYCLE   5 - DIIS ACTIVE - HISTORY:     5 CYCLES
 TTTTTTTTTTTTTTTTTTTTTTTTTTTTTT FDIK        TELAPSE       59.30 TCPU     1571.68
 INSULATING STATE
 TOP OF VALENCE BANDS -    BAND     99; K    1; EIG -2.4199776E-01 AU
 BOTTOM OF VIRTUAL BANDS - BAND    100; K    1; EIG -8.6701263E-02 AU
 DIRECT ENERGY BAND GAP:   4.2258 eV
 TTTTTTTTTTTTTTTTTTTTTTTTTTTTTT PDIG        TELAPSE       59.64 TCPU     1577.88
 CHARGE NORMALIZATION FACTOR   1.00000000
 TOTAL ATOMIC CHARGES:
   4.5068545   4.5050078   4.5057213   4.5055065   4.5047579   4.5064991
   0.8724242   0.8725279   0.8725357   0.8723702   0.8714450   0.8718038
   0.8714466   0.8716877   0.8724524   0.8724265   0.8724819   0.8725181
   5.9219769   6.1697598   6.1699388   6.1664280   6.1664809   5.9232135
   5.9257224   6.1659829   6.1670833   6.1662402   6.1670497   5.9271258
   5.9223950   6.1664077   6.1666485   6.1698166   6.1697216   5.9228118
   8.4911914   8.4915909   8.4894321   8.4915081   8.4890594   8.4919478
 TTTTTTTTTTTTTTTTTTTTTTTTTTTTTT MOQGAD      TELAPSE       59.68 TCPU     1577.92
 TTTTTTTTTTTTTTTTTTTTTTTTTTTTTT SHELLXN     TELAPSE       66.38 TCPU     1791.15
 TTTTTTTTTTTTTTTTTTTTTTTTTTTTTT MONMO3      TELAPSE       66.52 TCPU     1795.52
 NUMERICALLY INTEGRATED DENSITY    197.9999779810
 TTTTTTTTTTTTTTTTTTTTTTTTTTTTTT NUMDFT      TELAPSE       67.15 TCPU     1815.73
 CYC   6 ETOT(AU) -1.289109305151E+03 DETOT -2.08E-05 tst  2.46E-07 PX  1.17E-03
 TTTTTTTTTTTTTTTTTTTTTTTTTTTTTT DIIS        TELAPSE       67.22 TCPU     1817.97
 DIIS TEST: 0.68031E-05 AT SCF   CYCLE   6 - DIIS ACTIVE - HISTORY:     6 CYCLES
 TTTTTTTTTTTTTTTTTTTTTTTTTTTTTT FDIK        TELAPSE       67.70 TCPU     1833.39
 INSULATING STATE
 TOP OF VALENCE BANDS -    BAND     99; K    1; EIG -2.4197289E-01 AU
 BOTTOM OF VIRTUAL BANDS - BAND    100; K    1; EIG -8.6798507E-02 AU
 DIRECT ENERGY BAND GAP:   4.2225 eV
 TTTTTTTTTTTTTTTTTTTTTTTTTTTTTT PDIG        TELAPSE       68.04 TCPU     1839.58
 CHARGE NORMALIZATION FACTOR   1.00000000
 TOTAL ATOMIC CHARGES:
   4.5073380   4.5049686   4.5056861   4.5055755   4.5048247   4.5071021
   0.8723636   0.8725664   0.8725390   0.8723623   0.8713004   0.8718336
   0.8713275   0.8716914   0.8724622   0.8724116   0.8724664   0.8725117
   5.9224185   6.1697412   6.1692793   6.1662757   6.1663772   5.9230569
   5.9270260   6.1662737   6.1663610   6.1663386   6.1665213   5.9265036
   5.9224684   6.1662235   6.1665828   6.1695050   6.1693505   5.9230256
   8.4908382   8.4913478   8.4902833   8.4910399   8.4902601   8.4915709
 TTTTTTTTTTTTTTTTTTTTTTTTTTTTTT MOQGAD      TELAPSE       68.09 TCPU     1839.63
 TTTTTTTTTTTTTTTTTTTTTTTTTTTTTT SHELLXN     TELAPSE       74.79 TCPU     2052.91
 TTTTTTTTTTTTTTTTTTTTTTTTTTTTTT MONMO3      TELAPSE       74.93 TCPU     2057.30
 NUMERICALLY INTEGRATED DENSITY    197.9999779873
 TTTTTTTTTTTTTTTTTTTTTTTTTTTTTT NUMDFT      TELAPSE       75.56 TCPU     2077.44
 CYC   7 ETOT(AU) -1.289109305674E+03 DETOT -5.23E-07 tst  2.39E-08 PX  4.72E-04
 TTTTTTTTTTTTTTTTTTTTTTTTTTTTTT DIIS        TELAPSE       75.64 TCPU     2080.05
 DIIS TEST: 0.13175E-05 AT SCF   CYCLE   7 - DIIS ACTIVE - HISTORY:     7 CYCLES
 TTTTTTTTTTTTTTTTTTTTTTTTTTTTTT FDIK        TELAPSE       76.12 TCPU     2095.54
 INSULATING STATE
 TOP OF VALENCE BANDS -    BAND     99; K    1; EIG -2.4198362E-01 AU
 BOTTOM OF VIRTUAL BANDS - BAND    100; K    1; EIG -8.6800893E-02 AU
 DIRECT ENERGY BAND GAP:   4.2227 eV
 TTTTTTTTTTTTTTTTTTTTTTTTTTTTTT PDIG        TELAPSE       76.46 TCPU     2101.73
 CHARGE NORMALIZATION FACTOR   1.00000000
 TOTAL ATOMIC CHARGES:
   4.5073125   4.5050763   4.5057914   4.5056285   4.5048786   4.5070279
   0.8723504   0.8725070   0.8724950   0.8723283   0.8713248   0.8717665
   0.8713370   0.8716395   0.8724137   0.8723827   0.8724290   0.8724767
   5.9221809   6.1697232   6.1695772   6.1663333   6.1663788   5.9230715
   5.9263416   6.1660827   6.1667087   6.1662601   6.1667568   5.9267878
   5.9224377   6.1663058   6.1665578   6.1696471   6.1694888   5.9228330
   8.4910074   8.4914510   8.4900423   8.4912760   8.4898373   8.4917477
 TTTTTTTTTTTTTTTTTTTTTTTTTTTTTT MOQGAD      TELAPSE       76.50 TCPU     2101.78
 TTTTTTTTTTTTTTTTTTTTTTTTTTTTTT SHELLXN     TELAPSE       83.20 TCPU     2315.03
 +++ ENERGIES IN A.U. +++
 ::: EXT EL-POLE                                  -1.4155728638764E+03
 ::: EXT EL-SPHEROPOLE                             1.5462332183313E+01
 ::: BIELET ZONE E-E                               2.0671652471008E+03
 ::: TOTAL E-E                                     6.6705471540768E+02
 ::: TOTAL E-N + N-E                              -3.1615938388943E+03
 ::: TOTAL N-N                                     5.9202964660423E+01
 ::: KINETIC ENERGY                                1.2799455465312E+03
 ::: PSEUDO TOTAL   ENERGY                        -1.1553906122951E+03
 ::: VIRIAL COEFFICIENT                            1.0511448630140E+00
 TTTTTTTTTTTTTTTTTTTTTTTTTTTTTT MONMO3      TELAPSE       83.34 TCPU     2319.41
 NUMERICALLY INTEGRATED DENSITY    197.9999779856
 EXCHANGE ENERGY: -0.126027422147E+03  CORRELATION ENERGY: -0.769127153851E+01
 TTTTTTTTTTTTTTTTTTTTTTTTTTTTTT NUMDFT      TELAPSE       83.97 TCPU     2339.56
 CYC   8 ETOT(AU) -1.289109305981E+03 DETOT -3.07E-07 tst  6.28E-09 PX  4.72E-04

 == SCF ENDED - CONVERGENCE ON ENERGY      E(AU) -1.2891093059809E+03 CYCLES   8


 ENERGY EXPRESSION=HARTREE+FOCK EXCH*0.00000+(HSESOL     EXCH)*1.00000+PBESOL     CORR


 TOTAL ENERGY(DFT)(AU)(  8) -1.2891093059809E+03 DE-3.1E-07 tester 6.3E-09
 TTTTTTTTTTTTTTTTTTTTTTTTTTTTTT EDFT        TELAPSE       83.97 TCPU     2339.57
 
 INFORMATION **** DFTD3 ENERGY **** CALCULATE DFTD3 ENERGY

           DFT-D V3(BJ)
 DF                                         hsesol3c  
 parameters
 s6       :    1.0000
 s8       :    0.0000
 a1       :    0.5196
 a2       :    4.9385
 k1 k3    :   16.0000   -4.0000
 Cutoff   :   50.2022
 CN-Cutoff:   21.1671
 ABC-Cutoff:   21.1671
 
 Edisp /kcal,au:   -24.6270 -0.03924563

 E6    /kcal :   -25.9932
 E8    /kcal :     0.0000
 E6(ABC) "   :   1.366204
 
 INFORMATION **** DFTD3 ENERGY **** NORMAL TERMINATION OF DFTD3 MODULE

 GCP ENERGY CALCULATION
  level        hsesol3c            basis:hsesol3c
  Nbf            474
  Atoms           42

  Parameters: 
  sigma     1.0000
  eta       1.4281
  alpha     0.2936
  beta      1.9467

  dmp_scal      4.0000
  dmp_exp       6.0000
 cutoffs: 
   distance [bohr] 60.0
   noise    [a.u.] 2.2E-16
 SR-damping   T
 ** gCP correction **
  Egcp:        0.0830610487 / (a.u.) ||      52.1216 / (kcal/mol)
 INFORMATION **** GCP **** NORMAL TERMINATION OF GCP MODULE

 *******************************************************************************

 DFT-D3-GCP DISPERSION AND COUNTERPOISE CORRECTION

 D3 DISPERSION ENERGY (AU)      -3.9245628129016E-02
 GCP ENERGY (AU)                 8.3061048665653E-02
 TOTAL ENERGY + DISP + GCP (AU) -1.2890654905603E+03

 *******************************************************************************

 EIGENVECTORS IN FORTRAN UNIT  8
 TTTTTTTTTTTTTTTTTTTTTTTTTTTTTT END         TELAPSE       85.77 TCPU     2347.30
 EEEEEEEEEE TERMINATION  DATE 19 02 2026 TIME 18:55:09.0
