 Default number of threads is:           32

         
 *******************************************************************************
 *                                                                             *
 *                               CRYSTAL23                                     *
 *                      public : 1.0.1 - October 2022                          *
 *                       HTTP://WWW.CRYSTAL.UNITO.IT                           *
 *                                                                             *
 *                              MAIN AUTHORS                                   *
 *                                                                             *
 *  R. DOVESI(1,11), V.R. SAUNDERS(2), C. ROETTI(1,11), R. ORLANDO(1,11),      *
 *  C.M. ZICOVICH-WILSON(1,3), F. PASCALE(4), B. CIVALLERI(1,11),              *
 *  K. DOLL(5), N.M. HARRISON(6), I.J. BUSH(7), Ph. D'ARCO(8),                 *
 *  M. LLUNELL(9), M. CAUSA'(10), Y. NOEL(8), L. MASCHIO(1,11), A. ERBA(1,11)  *
 *  M. RE'RAT(14), S. CASASSA(1,11), B.G. SEARLE(2), J.K. DESMARAIS(1)         *
 *                                                                             *
 *        CONTRIBUTIONS TO THE CODE HAVE ALSO BEEN GIVEN BY                    *
 *                                                                             *
 *  M. FERRABONE(1,11), M. DE LA PIERRE(1,11), M. FERRERO(1,11),               *
 *  J. BAIMA(1,11), E. ALBANESE(1,11), M.F. PEINTINGER(12), R. BAST(13),       *
 *  B. KIRTMAN(15), V. LACIVITA(1,11), R. DEMICHELIS(1,16)                     *
 *  G. BRANDEBURG(17), S. SALUSTRO(1,11), G. SANSONE(1,11)                     *
 *  M.T. RUGGIERO(18), L.E. DAGA(1), L. DONA'(1), A. COSSARD(1)                *
 *                                                                             *
 * (1) THEORETICAL CHEMISTRY GROUP - UNIVERSITA' DI TORINO - TORINO (ITALY)    *
 * (2) SCIENTIFIC COMPUTING DEPARTMENT - STFC DARESBURY (UK)                   *
 * (3) UNIVERSIDAD AUTONOMA DEL ESTADO DE MORELOS - CUERNAVACA (MEXICO)        *
 * (4) UNIVERSITE' DE LORRAINE - NANCY (FRANCE)                                *
 * (5) UNIVERSITAET STUTTGART- STUTTGART (GERMANY)                             *
 * (6) IMPERIAL COLLEGE - LONDON (UK)                                          *
 * (7) SCIENTIFIC COMPUTING DEPARTMENT - STFC RAL (UK)                         *
 * (8) UPMC - SORBONNE UNIVERSITES - PARIS (FRANCE)                            *
 * (9) UNIVERSIDAD DE BARCELONA - BARCELONA (SPAIN)                            *
 *(10) UNIVERSITA' DI NAPOLI "FEDERICO II" - NAPOLI (ITALY)                    *
 *(11) NIS - NANOSTRUCTURED INTERFACES AND SURFACES - TORINO (ITALY)           *
 *(12) MPI FUER CHEMISCHE ENERGIEKONVERSION - MUELHEIM AN DER RUHR (GERMANY)   *
 *(13) UNIVERSITY OF TROMSO - TROMSO (NORWAY)                                  *
 *(14) UNIVERSITE' DE PAU ET DES PAYS DE L'ADOUR - PAU (FRANCE)                *
 *(15) UNIVERSITY OF CALIFORNIA SANTA BARBARA - SANTA BARBARA (USA)            *
 *(16) CURTIN UNIVERSITY - PERTH (AUSTRALIA)                                   *
 *(17) UNIVERSITY COLLEGE LONDON - LONDON (UK)                                 *
 *(18) UNIVERSITY OF VERMONT - BURLINGTON (USA)                                *
 *                                                                             *
 *******************************************************************************
 EEEEEEEEEE STARTING  DATE 19 02 2026 TIME 18:27:56.4
 cof-1_z35_L040_incl                                                             

 CRYSTAL CALCULATION
 (INPUT ACCORDING TO THE INTERNATIONAL TABLES FOR X-RAY CRYSTALLOGRAPHY)
 CRYSTAL FAMILY                       :  TRICLINIC   
 CRYSTAL CLASS  (GROTH - 1921)        :  TRICLINIC PEDIAL                     

 SPACE GROUP (NONCENTROSYMMETRIC)     :  P 1             

 LATTICE PARAMETERS  (ANGSTROMS AND DEGREES) - CONVENTIONAL CELL
        A           B           C        ALPHA        BETA       GAMMA
    15.02361    15.02392     5.31507    49.32456    89.99996   119.99596


 NUMBER OF IRREDUCIBLE ATOMS IN THE CONVENTIONAL CELL:   42

 INPUT COORDINATES

 ATOM AT. N.              COORDINATES
   1   5     5.366247500000E-01  7.319097000000E-02  5.013613800000E-01
   2   5     6.956804100000E-01  2.322506300000E-01  5.013614000000E-01
   3   5     5.370614900000E-01  2.331155400000E-01  4.984919300000E-01
   4   5     1.501994600000E-01  4.595059700000E-01  5.013613900000E-01
   5   5     3.093074300000E-01  4.594852000000E-01  5.013613800000E-01
   6   5     3.097287200000E-01  6.195065200000E-01  4.984919300000E-01
   7   1     8.269021400000E-01  1.566316200000E-01  4.954124200000E-01
   8   1     2.063287000000E-02  5.390346700000E-01  4.945027200000E-01
   9   1     8.269912800000E-01  4.420966900000E-01  4.943627200000E-01
  10   1     2.075067000000E-02  2.536984700000E-01  4.943976400000E-01
  11   1     6.134818000000E-01 -5.811284000000E-02  5.045808400000E-01
  12   1     2.312393000000E-01  7.480406700000E-01  5.054906000000E-01
  13   1     3.281580400000E-01 -5.838973000000E-02  5.056306900000E-01
  14   1     5.166056600000E-01  7.479184200000E-01  5.055955400000E-01
  15   1     6.149312600000E-01  4.417557600000E-01  4.954124700000E-01
  16   1     2.329601800000E-01  2.535905700000E-01  4.945026700000E-01
  17   1     3.298604400000E-01  1.568475500000E-01  4.943626000000E-01
  18   1     5.183053500000E-01  5.389714300000E-01  4.943977500000E-01
  19   6     8.152916700000E-01  2.927308400000E-01  4.983869400000E-01
  20   6     8.703261200000E-01  2.404441600000E-01  4.955524100000E-01
  21   6    -2.273724000000E-02  4.549191100000E-01  4.953075500000E-01
  22   6     8.702138100000E-01  4.012000900000E-01  4.960424100000E-01
  23   6    -2.252152000000E-02  2.943388000000E-01  4.941526800000E-01
  24   6     3.179222000000E-02  4.015327800000E-01  4.960773700000E-01
  25   6     4.769459800000E-01 -4.603410000000E-02  5.016063600000E-01
  26   6     5.296487700000E-01 -1.015179800000E-01  5.044408300000E-01
  27   6     3.152319400000E-01  7.915139300000E-01  5.046857900000E-01
  28   6     3.688337900000E-01 -1.013204700000E-01  5.039509500000E-01
  29   6     4.759726400000E-01  7.911193400000E-01  5.058405400000E-01
  30   6     3.684795100000E-01  7.370795100000E-01  5.039159100000E-01
  31   6     4.774462300000E-01  2.926617000000E-01  4.983869300000E-01
  32   6     5.310472200000E-01  4.012842900000E-01  4.955524700000E-01
  33   6     3.166980200000E-01  2.939058600000E-01  4.953074900000E-01
  34   6     3.700489700000E-01  2.401979100000E-01  4.960423300000E-01
  35   6     4.777950900000E-01  4.551868100000E-01  4.941527500000E-01
  36   6     3.697163100000E-01  4.014553800000E-01  4.960773700000E-01
  37   8     4.840035800000E-01  1.268888400000E-01  4.992617800000E-01
  38   8     6.420181700000E-01  1.250354700000E-01  5.053156400000E-01
  39   8     6.434196100000E-01  2.867883300000E-01  4.961823800000E-01
  40   8     2.035914100000E-01  5.661693100000E-01  4.992618100000E-01
  41   8     2.026804400000E-01  4.053527500000E-01  5.053156400000E-01
  42   8     3.630040300000E-01  5.671003000000E-01  4.961823500000E-01

 *******************************************************************************

 << INFORMATION >>: FROM NOW ON, ALL COORDINATES REFER TO THE PRIMITIVE CELL

 *******************************************************************************

 LATTICE PARAMETERS  (ANGSTROMS AND DEGREES) - PRIMITIVE CELL
       A          B          C        ALPHA      BETA     GAMMA        VOLUME
   15.02361   15.02392    5.31507    49.32456  89.99996 119.99596    684.190078

 COORDINATES OF THE EQUIVALENT ATOMS (FRACTIONAL UNITS)

 N. ATOM EQUIV AT. N.          X                  Y                  Z

   1   1   1    5 B    -4.63375250000E-01  7.31909700000E-02 -4.98638620000E-01

   2   2   1    5 B    -3.04319590000E-01  2.32250630000E-01 -4.98638600000E-01

   3   3   1    5 B    -4.62938510000E-01  2.33115540000E-01  4.98491930000E-01

   4   4   1    5 B     1.50199460000E-01  4.59505970000E-01 -4.98638610000E-01

   5   5   1    5 B     3.09307430000E-01  4.59485200000E-01 -4.98638620000E-01

   6   6   1    5 B     3.09728720000E-01 -3.80493480000E-01  4.98491930000E-01

   7   7   1    1 H    -1.73097860000E-01  1.56631620000E-01  4.95412420000E-01

   8   8   1    1 H     2.06328700000E-02 -4.60965330000E-01  4.94502720000E-01

   9   9   1    1 H    -1.73008720000E-01  4.42096690000E-01  4.94362720000E-01

  10  10   1    1 H     2.07506700000E-02  2.53698470000E-01  4.94397640000E-01

  11  11   1    1 H    -3.86518200000E-01 -5.81128400000E-02 -4.95419160000E-01

  12  12   1    1 H     2.31239300000E-01 -2.51959330000E-01 -4.94509400000E-01

  13  13   1    1 H     3.28158040000E-01 -5.83897300000E-02 -4.94369310000E-01

  14  14   1    1 H    -4.83394340000E-01 -2.52081580000E-01 -4.94404460000E-01

  15  15   1    1 H    -3.85068740000E-01  4.41755760000E-01  4.95412470000E-01

  16  16   1    1 H     2.32960180000E-01  2.53590570000E-01  4.94502670000E-01

  17  17   1    1 H     3.29860440000E-01  1.56847550000E-01  4.94362600000E-01

  18  18   1    1 H    -4.81694650000E-01 -4.61028570000E-01  4.94397750000E-01

  19  19   1    6 C    -1.84708330000E-01  2.92730840000E-01  4.98386940000E-01

  20  20   1    6 C    -1.29673880000E-01  2.40444160000E-01  4.95552410000E-01

  21  21   1    6 C    -2.27372400000E-02  4.54919110000E-01  4.95307550000E-01

  22  22   1    6 C    -1.29786190000E-01  4.01200090000E-01  4.96042410000E-01

  23  23   1    6 C    -2.25215200000E-02  2.94338800000E-01  4.94152680000E-01

  24  24   1    6 C     3.17922200000E-02  4.01532780000E-01  4.96077370000E-01

  25  25   1    6 C     4.76945980000E-01 -4.60341000000E-02 -4.98393640000E-01

  26  26   1    6 C    -4.70351230000E-01 -1.01517980000E-01 -4.95559170000E-01

  27  27   1    6 C     3.15231940000E-01 -2.08486070000E-01 -4.95314210000E-01

  28  28   1    6 C     3.68833790000E-01 -1.01320470000E-01 -4.96049050000E-01

  29  29   1    6 C     4.75972640000E-01 -2.08880660000E-01 -4.94159460000E-01

  30  30   1    6 C     3.68479510000E-01 -2.62920490000E-01 -4.96084090000E-01

  31  31   1    6 C     4.77446230000E-01  2.92661700000E-01  4.98386930000E-01

  32  32   1    6 C    -4.68952780000E-01  4.01284290000E-01  4.95552470000E-01

  33  33   1    6 C     3.16698020000E-01  2.93905860000E-01  4.95307490000E-01

  34  34   1    6 C     3.70048970000E-01  2.40197910000E-01  4.96042330000E-01

  35  35   1    6 C     4.77795090000E-01  4.55186810000E-01  4.94152750000E-01

  36  36   1    6 C     3.69716310000E-01  4.01455380000E-01  4.96077370000E-01

  37  37   1    8 O     4.84003580000E-01  1.26888840000E-01  4.99261780000E-01

  38  38   1    8 O    -3.57981830000E-01  1.25035470000E-01 -4.94684360000E-01

  39  39   1    8 O    -3.56580390000E-01  2.86788330000E-01  4.96182380000E-01

  40  40   1    8 O     2.03591410000E-01 -4.33830690000E-01  4.99261810000E-01

  41  41   1    8 O     2.02680440000E-01  4.05352750000E-01 -4.94684360000E-01

  42  42   1    8 O     3.63004030000E-01 -4.32899700000E-01  4.96182350000E-01

 NUMBER OF SYMMETRY OPERATORS         :    1
 *******************************************************************************
 * GEOMETRY EDITING - INPUT COORDINATES ARE GIVEN IN ANGSTROM         
 *******************************************************************************

 GCALCO - MAX INDICES DIRECT LATTICE VECTOR     9    11    29
 NO.OF VECTORS CREATED 6999 STARS 3500 RMAX   197.96865 BOHR

 GEOMETRY FOR WAVE FUNCTION - DIMENSIONALITY OF THE SYSTEM    3
 (NON PERIODIC DIRECTION: LATTICE PARAMETER FORMALLY SET TO 500)
 *******************************************************************************
 LATTICE PARAMETERS (ANGSTROMS AND DEGREES) - BOHR = 0.5291772083 ANGSTROM
 PRIMITIVE CELL - CENTRING CODE 1/0 VOLUME=   684.190078 - DENSITY  0.947 g/cm^3
         A              B              C           ALPHA      BETA       GAMMA 
    15.02361100    15.02391600     5.31507300    49.324563  89.999963 119.995964
 *******************************************************************************
 ATOMS IN THE ASYMMETRIC UNIT   42 - ATOMS IN THE UNIT CELL:   42
     ATOM                 X/A                 Y/B                 Z/C    
 *******************************************************************************
      1 T   5 B    -4.633752500000E-01  7.319097000000E-02 -4.986386200000E-01
      2 T   5 B    -3.043195900000E-01  2.322506300000E-01 -4.986386000000E-01
      3 T   5 B    -4.629385100000E-01  2.331155400000E-01  4.984919300000E-01
      4 T   5 B     1.501994600000E-01  4.595059700000E-01 -4.986386100000E-01
      5 T   5 B     3.093074300000E-01  4.594852000000E-01 -4.986386200000E-01
      6 T   5 B     3.097287200000E-01 -3.804934800000E-01  4.984919300000E-01
      7 T   1 H    -1.730978600000E-01  1.566316200000E-01  4.954124200000E-01
      8 T   1 H     2.063287000000E-02 -4.609653300000E-01  4.945027200000E-01
      9 T   1 H    -1.730087200000E-01  4.420966900000E-01  4.943627200000E-01
     10 T   1 H     2.075067000000E-02  2.536984700000E-01  4.943976400000E-01
     11 T   1 H    -3.865182000000E-01 -5.811284000000E-02 -4.954191600000E-01
     12 T   1 H     2.312393000000E-01 -2.519593300000E-01 -4.945094000000E-01
     13 T   1 H     3.281580400000E-01 -5.838973000000E-02 -4.943693100000E-01
     14 T   1 H    -4.833943400000E-01 -2.520815800000E-01 -4.944044600000E-01
     15 T   1 H    -3.850687400000E-01  4.417557600000E-01  4.954124700000E-01
     16 T   1 H     2.329601800000E-01  2.535905700000E-01  4.945026700000E-01
     17 T   1 H     3.298604400000E-01  1.568475500000E-01  4.943626000000E-01
     18 T   1 H    -4.816946500000E-01 -4.610285700000E-01  4.943977500000E-01
     19 T   6 C    -1.847083300000E-01  2.927308400000E-01  4.983869400000E-01
     20 T   6 C    -1.296738800000E-01  2.404441600000E-01  4.955524100000E-01
     21 T   6 C    -2.273724000000E-02  4.549191100000E-01  4.953075500000E-01
     22 T   6 C    -1.297861900000E-01  4.012000900000E-01  4.960424100000E-01
     23 T   6 C    -2.252152000000E-02  2.943388000000E-01  4.941526800000E-01
     24 T   6 C     3.179222000000E-02  4.015327800000E-01  4.960773700000E-01
     25 T   6 C     4.769459800000E-01 -4.603410000000E-02 -4.983936400000E-01
     26 T   6 C    -4.703512300000E-01 -1.015179800000E-01 -4.955591700000E-01
     27 T   6 C     3.152319400000E-01 -2.084860700000E-01 -4.953142100000E-01
     28 T   6 C     3.688337900000E-01 -1.013204700000E-01 -4.960490500000E-01
     29 T   6 C     4.759726400000E-01 -2.088806600000E-01 -4.941594600000E-01
     30 T   6 C     3.684795100000E-01 -2.629204900000E-01 -4.960840900000E-01
     31 T   6 C     4.774462300000E-01  2.926617000000E-01  4.983869300000E-01
     32 T   6 C    -4.689527800000E-01  4.012842900000E-01  4.955524700000E-01
     33 T   6 C     3.166980200000E-01  2.939058600000E-01  4.953074900000E-01
     34 T   6 C     3.700489700000E-01  2.401979100000E-01  4.960423300000E-01
     35 T   6 C     4.777950900000E-01  4.551868100000E-01  4.941527500000E-01
     36 T   6 C     3.697163100000E-01  4.014553800000E-01  4.960773700000E-01
     37 T   8 O     4.840035800000E-01  1.268888400000E-01  4.992617800000E-01
     38 T   8 O    -3.579818300000E-01  1.250354700000E-01 -4.946843600000E-01
     39 T   8 O    -3.565803900000E-01  2.867883300000E-01  4.961823800000E-01
     40 T   8 O     2.035914100000E-01 -4.338306900000E-01  4.992618100000E-01
     41 T   8 O     2.026804400000E-01  4.053527500000E-01 -4.946843600000E-01
     42 T   8 O     3.630040300000E-01 -4.328997000000E-01  4.961823500000E-01

 T = ATOM BELONGING TO THE ASYMMETRIC UNIT

 ****    1 SYMMOPS - TRANSLATORS IN FRACTIONAL UNITS
 **** MATRICES AND TRANSLATORS IN THE CRYSTALLOGRAPHIC REFERENCE FRAME
   V INV                    ROTATION MATRICES                   TRANSLATORS
   1   1  1.00 -0.00  0.00  0.00  1.00  0.00  0.00  0.00  1.00  0.00  0.00  0.00

 DIRECT LATTICE VECTORS CARTESIAN COMPONENTS (ANGSTROM)
          X                    Y                    Z
   0.130113578931E+02  -0.751088897922E+01   0.000000000000E+00
   0.000000000000E+00   0.150239160000E+02   0.000000000000E+00
   0.199974858535E+01   0.346422281653E+01   0.350002383823E+01


 CARTESIAN COORDINATES - PRIMITIVE CELL
 *******************************************************************************
 *      ATOM          X(ANGSTROM)         Y(ANGSTROM)         Z(ANGSTROM)
 *******************************************************************************
    1     5 B    -7.026293091480E+00  2.852579759099E+00 -1.745247056661E+00
    2     5 B    -4.956762934309E+00  4.047629395436E+00 -1.745246986661E+00
    3     5 B     5.985009203444E+00 -2.268836633915E+00 -1.755290200064E+00
    4     5 B     9.571470744556E-01  4.048052376016E+00 -1.745247021661E+00
    5     5 B     3.027357795766E+00  2.852697996260E+00 -1.745247056661E+00
    6     5 B     3.027101172154E+00  5.243740189570E+00 -1.755290200064E+00
    7     1 H    -3.261286506272E+00  1.905335303251E+00 -1.766068558474E+00
    8     1 H     1.257342770702E+00 -5.367407987266E+00  1.730771308069E+00
    9     1 H     7.372713607797E-01 -1.905637746412E+00  5.230305142960E+00
   10     1 H    -7.410832102688E-01  1.904169292392E+00 -1.769620312664E+00
   11     1 H    -4.020091811395E+00  3.777993320676E+00  1.766044968313E+00
   12     1 H     4.019591403497E+00 -3.771096449207E+00  1.769229150000E+00
   13     1 H     5.280915960961E+00 -1.590383631825E+00  1.769719468340E+00
   14     1 H    -5.278552795344E+00  1.594964343457E+00  1.769596442502E+00
   15     1 H    -2.019818218172E+00 -3.143640150422E-01  5.233979292984E+00
   16     1 H     2.020260706245E+00  3.090299892337E-01 -1.769252705161E+00
   17     1 H     3.280784564251E+00 -1.872721345440E+00 -1.769742953500E+00
   18     1 H    -5.278830285158E+00 -1.595795505257E+00  1.730403910566E+00
   19     6 C    -3.406406194587E+00  4.047587903415E+00 -1.755657667567E+00
   20     6 C    -2.696001616547E+00  2.838860127694E+00 -1.765578590137E+00
   21     6 C    -1.305100380064E+00  5.257076280149E+00 -1.766435605974E+00
   22     6 C     1.303014125354E+00 -2.838885633306E+00  5.236184098000E+00
   23     6 C    -1.304603019589E+00  2.838910215480E+00 -1.770477678504E+00
   24     6 C    -5.940586138334E-01  4.048106650533E+00 -1.763741217623E+00
   25     6 C     7.208801450247E+00 -2.536224559172E+00  1.755634217407E+00
   26     6 C    -5.111153352784E+00  3.755053698633E+00  1.765554929976E+00
   27     6 C     5.110840285261E+00 -3.751605277998E+00  1.766412295815E+00
   28     6 C     5.806803644091E+00 -2.546701499433E+00  1.763840338298E+00
   29     6 C    -5.806753622436E+00  2.550050173360E+00  1.770453948342E+00
   30     6 C     1.802626738326E+00  3.123443312812E+00 -5.236329978994E+00
   31     6 C     5.209123746095E+00 -9.268202720210E-01 -1.755657702567E+00
   32     6 C    -3.110983519325E+00 -2.918752779563E-01  5.234469296321E+00
   33     6 C     3.111413149333E+00  2.885659759172E-01 -1.766435815975E+00
   34     6 C     3.807050948968E+00 -9.165051663062E-01 -1.763863858458E+00
   35     6 C     5.205195592945E+00  1.497654936815E+00 -1.770477433502E+00
   36     6 C     3.802792661842E+00  1.508833476042E+00 -1.763741217623E+00
   37     8 O     5.296193253825E+00 -3.463598648258E+00 -1.752595706712E+00
   38     8 O    -5.647074058446E+00  2.853587333116E+00 -1.731407052399E+00
   39     8 O    -1.647606474106E+00 -2.853887360361E+00  5.236673996337E+00
   40     8 O     1.647650212379E+00  5.242259014681E+00 -1.752595601711E+00
   41     8 O     1.647903393658E+00  2.853978536379E+00 -1.731407052399E+00
   42     8 O     3.715666718090E+00  4.048247703937E+00 -1.763373785120E+00

 *******************************************************************************
 STARTING BASIS SET HANDLING 
 *******************************************************************************

 Loading internal basis set: SOLDEF2MSVP         

 Please cite in your publication:
 L. Dona', J. G. Brandenburg and B. Civalleri, J. Chem. Phys., 151, 121101 (2019
 )                                                                              
                                                                                
                    

 *******************************************************************************
 LOCAL ATOMIC FUNCTIONS BASIS SET
 *******************************************************************************
   ATOM   X(AU)   Y(AU)   Z(AU)  N. TYPE  EXPONENT  S COEF   P COEF   D/F/G COEF
 *******************************************************************************
   1 B  -13.278   5.391  -3.298
                                  1 S  
                                         2.410E+03 1.755E-03 0.000E+00 0.000E+00
                                         3.619E+02 1.344E-02 0.000E+00 0.000E+00
                                         8.231E+01 6.637E-02 0.000E+00 0.000E+00
                                         2.311E+01 2.303E-01 0.000E+00 0.000E+00
                                         7.252E+00 5.150E-01 0.000E+00 0.000E+00
                                  2 S  
                                         2.367E+00 1.000E+00 0.000E+00 0.000E+00
                                  3 S  
                                         5.533E-01 1.000E+00 0.000E+00 0.000E+00
                                  4 S  
                                         1.716E-01 1.000E+00 0.000E+00 0.000E+00
                           5-     7 P  
                                         6.002E+00 0.000E+00-3.555E-02 0.000E+00
                                         1.240E+00 0.000E+00-1.983E-01 0.000E+00
                                         3.367E-01 0.000E+00-5.048E-01 0.000E+00
                           8-    10 P  
                                         1.256E-01 0.000E+00 1.000E+00 0.000E+00
                          11-    15 D  
                                         8.880E-01 0.000E+00 0.000E+00 1.000E+00
   2 B   -9.367   7.649  -3.298
   3 B   11.310  -4.287  -3.317
   4 B    1.809   7.650  -3.298
   5 B    5.721   5.391  -3.298
   6 B    5.720   9.909  -3.317
   7 H   -6.163   3.601  -3.337
                                 91 S  
                                         1.874E+01 1.968E-02 0.000E+00 0.000E+00
                                         2.826E+00 1.380E-01 0.000E+00 0.000E+00
                                         6.401E-01 4.783E-01 0.000E+00 0.000E+00
                                 92 S  
                                         1.756E-01 1.000E+00 0.000E+00 0.000E+00
   8 H    2.376 -10.143   3.271
   9 H    1.393  -3.601   9.884
  10 H   -1.400   3.598  -3.344
  11 H   -7.597   7.139   3.337
  12 H    7.596  -7.126   3.343
  13 H    9.979  -3.005   3.344
  14 H   -9.975   3.014   3.344
  15 H   -3.817  -0.594   9.891
  16 H    3.818   0.584  -3.343
  17 H    6.200  -3.539  -3.344
  18 H   -9.976  -3.016   3.270
  19 C   -6.437   7.649  -3.318
                                115 S  
                                         3.624E+03 1.634E-03 0.000E+00 0.000E+00
                                         5.440E+02 1.252E-02 0.000E+00 0.000E+00
                                         1.237E+02 6.211E-02 0.000E+00 0.000E+00
                                         3.476E+01 2.182E-01 0.000E+00 0.000E+00
                                         1.093E+01 4.980E-01 0.000E+00 0.000E+00
                                116 S  
                                         3.574E+00 1.000E+00 0.000E+00 0.000E+00
                                117 S  
                                         7.742E-01 1.000E+00 0.000E+00 0.000E+00
                                118 S  
                                         2.330E-01 1.000E+00 0.000E+00 0.000E+00
                         119-   121 P  
                                         9.443E+00 0.000E+00 3.790E-02 0.000E+00
                                         2.002E+00 0.000E+00 2.082E-01 0.000E+00
                                         5.463E-01 0.000E+00 5.047E-01 0.000E+00
                         122-   124 P  
                                         1.820E-01 0.000E+00 1.000E+00 0.000E+00
                         125-   129 D  
                                         8.880E-01 0.000E+00 0.000E+00 1.000E+00
  20 C   -5.095   5.365  -3.336
  21 C   -2.466   9.934  -3.338
  22 C    2.462  -5.365   9.895
  23 C   -2.465   5.365  -3.346
  24 C   -1.123   7.650  -3.333
  25 C   13.623  -4.793   3.318
  26 C   -9.659   7.096   3.336
  27 C    9.658  -7.090   3.338
  28 C   10.973  -4.813   3.333
  29 C  -10.973   4.819   3.346
  30 C    3.406   5.902  -9.895
  31 C    9.844  -1.751  -3.318
  32 C   -5.879  -0.552   9.892
  33 C    5.880   0.545  -3.338
  34 C    7.194  -1.732  -3.333
  35 C    9.836   2.830  -3.346
  36 C    7.186   2.851  -3.333
  37 O   10.008  -6.545  -3.312
                                385 S  
                                         6.773E+03 1.727E-03 0.000E+00 0.000E+00
                                         1.017E+03 1.325E-02 0.000E+00 0.000E+00
                                         2.313E+02 6.603E-02 0.000E+00 0.000E+00
                                         6.501E+01 2.353E-01 0.000E+00 0.000E+00
                                         2.050E+01 5.498E-01 0.000E+00 0.000E+00
                                386 S  
                                         6.716E+00 1.000E+00 0.000E+00 0.000E+00
                                387 S  
                                         1.147E+00 1.000E+00 0.000E+00 0.000E+00
                                388 S  
                                         3.342E-01 1.000E+00 0.000E+00 0.000E+00
                         389-   391 P  
                                         1.769E+01 0.000E+00 4.359E-02 0.000E+00
                                         3.854E+00 0.000E+00 2.318E-01 0.000E+00
                                         1.047E+00 0.000E+00 5.146E-01 0.000E+00
                         392-   394 P  
                                         2.759E-01 0.000E+00 1.000E+00 0.000E+00
                         395-   399 D  
                                         8.000E-01 0.000E+00 0.000E+00 1.000E+00
  38 O  -10.671   5.392  -3.272
  39 O   -3.114  -5.393   9.896
  40 O    3.114   9.906  -3.312
  41 O    3.114   5.393  -3.272
  42 O    7.022   7.650  -3.332

 *******************************************************************************
 FINISHED BASIS SET HANDLING 
 *******************************************************************************

 INFORMATION **** SET_MPP **** PCRYSTAL CALCULATION
 INFORMATION **** READM2 **** NEW DEFAULT: FOCK/KS MATRIX MIXING SET TO 30 %
 INFORMATION **** READM2 **** NEW DEFAULT: FULL DIRECT SCF MODE
 INFORMATION **** READM2 **** NEW DEFAULT: COULOMB BIPOLAR BUFFER SET TO 32 Mb
 INFORMATION **** READM2 **** NEW DEFAULT: EXCHANGE BIPOLAR BUFFER SET TO 32 Mb

 *******************************************************************************
 NEW DEFAULT: DFT INTEGRATION GRID INCREASED TO XLGRID
 NEW DEFAULT: DIIS ACCELERATOR ACTIVE
 USE KEYWORD NODIIS TO TURN IT OFF
 *******************************************************************************

 WARNING **** RDDFTP **** HSEsol-HJS ACTIVE
 RANGE SEPARATION - OMEGA:   0.110000000000000     
 WARNING **** RDDFTP **** HSEsol-3c has to be combined with sol-def2-mSVP basis set
 *******************************************************************************
 N. OF ATOMS PER CELL        42  COULOMB OVERLAP TOL         (T1) 10**   -6
 NUMBER OF SHELLS           234  COULOMB PENETRATION TOL     (T2) 10**   -6
 NUMBER OF AO               474  EXCHANGE OVERLAP TOL        (T3) 10**   -6
 N. OF ELECTRONS PER CELL   198  EXCHANGE PSEUDO OVP (F(G))  (T4) 10**   -6
 CORE ELECTRONS PER CELL     60  EXCHANGE PSEUDO OVP (P(G))  (T5) 10**  -12
 N. OF SYMMETRY OPERATORS     1  POLE ORDER IN MONO ZONE                  4
 *******************************************************************************
 TYPE OF CALCULATION :  RESTRICTED CLOSED SHELL
 KOHN-SHAM HAMILTONIAN

 (EXCHANGE)[CORRELATION] FUNCTIONAL:(HSEsol GGA)[PBEsol]

 RANGE-SEPARATED HYBRID FUNCTIONAL 
 OMEGA (SHORT-RANGE)[LONG-RANGE]:(    0.1100)[    0.0000]

 HYBRID EXCHANGE - PERCENTAGE OF FOCK EXCHANGE    25.0000

 CAPPA:IS1  2;IS2  2;IS3  8; K PTS MONK NET  20; SYMMOPS:K SPACE   2;G SPACE   1

 *******************************************************************************
 MAX NUMBER OF SCF CYCLES      50  CONVERGENCE ON DELTAP        10**-16
 WEIGHT OF F(I) IN F(I+1)      30% CONVERGENCE ON ENERGY        10**- 6
 SHRINK. FACT.(MONKH.)    2  2  8  NUMBER OF K POINTS IN THE IBZ     20
 SHRINKING FACTOR(GILAT NET)    8  NUMBER OF K POINTS(GILAT NET)   1028
 *******************************************************************************
 *** K POINTS COORDINATES (OBLIQUE COORDINATES IN UNITS OF IS =  2)
   1-R(  0  0  0)   2-R(  1  0  0)   3-R(  0  1  0)   4-R(  1  1  0)
   5-C(  0  0  1)   6-C(  1  0  1)   7-C(  0  1  1)   8-C(  1  1  1)
   9-C(  0  0  2)  10-C(  1  0  2)  11-C(  0  1  2)  12-C(  1  1  2)
  13-C(  0  0  3)  14-C(  1  0  3)  15-C(  0  1  3)  16-C(  1  1  3)
  17-R(  0  0  4)  18-R(  1  0  4)  19-R(  0  1  4)  20-R(  1  1  4)

 DIRECT LATTICE VECTORS COMPON. (A.U.)     RECIP. LATTICE VECTORS COMPON. (A.U.) 
        X            Y            Z              X            Y            Z
   24.5879030  -14.1935232    0.0000000      0.2555397    0.0000000   -0.1460033
    0.0000000   28.3910867    0.0000000      0.1277517    0.2213084   -0.2920359
    3.7789772    6.5464324    6.6140865      0.0000000    0.0000000    0.9499702

 DISK SPACE FOR EIGENVECTORS (FTN 10)     7189632 REALS

 SYMMETRY ADAPTION OF THE BLOCH FUNCTIONS DISABLED
 TTTTTTTTTTTTTTTTTTTTTTTTTTTTTT gordsh1     TELAPSE        0.04 TCPU        0.04

 MATRIX SIZE: P(G)  350298, F(G)   71462, P(G) IRR  176448, F(G) IRR   72086
 MAX G-VECTOR INDEX FOR 1- AND 2-ELECTRON INTEGRALS  49

 TTTTTTTTTTTTTTTTTTTTTTTTTTTTTT INPUT       TELAPSE        0.38 TCPU        0.37

 NEIGHBORS OF THE NON-EQUIVALENT ATOMS

 N = NUMBER OF NEIGHBORS AT DISTANCE R
    ATOM  N     R/ANG      R/AU   NEIGHBORS (ATOM LABELS AND CELL INDICES)
   1 B    1     1.3791     2.6061   37 O   -1 0 0
   1 B    1     1.3793     2.6065   38 O    0 0 0
   1 B    1     1.5503     2.9297   25 C   -1 0-1
   1 B    1     2.3895     4.5155    3 B   -1 0 0
   1 B    1     2.3898     4.5160    2 B    0 0 0
   1 B    1     2.5632     4.8437   26 C    0 0-1

   2 B    1     1.3793     2.6065   39 O    0 1-2
   2 B    1     1.3793     2.6065   38 O    0 0 0
   2 B    1     1.5504     2.9298   19 C    0 0 0
   2 B    1     2.3895     4.5156    3 B   -1 0 0
   2 B    1     2.3898     4.5160    1 B    0 0 0
   2 B    1     2.5634     4.8440   22 C    0 1-2

   3 B    1     1.3791     2.6061   37 O    0 0 0
   3 B    1     1.3793     2.6064   39 O    1 1-2
   3 B    1     1.5502     2.9294   31 C    0 0 0
   3 B    1     2.3895     4.5155    1 B    1 0 0
   3 B    1     2.3895     4.5156    2 B    1 0 0
   3 B    1     2.5629     4.8433   32 C    1 1-2

   4 B    1     1.3795     2.6068   40 O    0 0 0
   4 B    1     1.3795     2.6070   41 O    0 0 0
   4 B    1     1.5513     2.9316   24 C    0 0 0
   4 B    1     2.3905     4.5174    6 B    0 0 0
   4 B    1     2.3905     4.5175    5 B    0 0 0
   4 B    1     2.5648     4.8468   23 C    0 0 0

   5 B    1     1.3795     2.6069   41 O    0 0 0
   5 B    1     1.3797     2.6072   42 O    0 0 0
   5 B    1     1.5516     2.9322   36 C    0 0 0
   5 B    1     2.3905     4.5175    4 B    0 0 0
   5 B    1     2.3911     4.5185    6 B    0 0 0
   5 B    1     2.5651     4.8473   35 C    0 0 0

   6 B    1     1.3795     2.6068   40 O    0 0 0
   6 B    1     1.3796     2.6071   42 O    0 0 0
   6 B    1     1.5516     2.9322   30 C    0 0 1
   6 B    1     2.3905     4.5174    4 B    0 0 0
   6 B    1     2.3911     4.5185    5 B    0 0 0
   6 B    1     2.5651     4.8473   29 C    1 1-1

   7 H    1     1.0913     2.0623   20 C    0 0 0
   7 H    1     2.1472     4.0576   19 C    0 0 0
   7 H    1     2.1680     4.0969   23 C    0 0 0
   7 H    1     2.5202     4.7625   10 H    0 0 0
   7 H    1     2.5676     4.8520   38 O    0 0 0
   7 H    1     2.7321     5.1630    2 B    0 0 0

   8 H    1     1.0914     2.0625   21 C    0-1 1
   8 H    1     2.1493     4.0616   24 C    0-1 1
   8 H    1     2.1666     4.0942   22 C    0 0-1
   8 H    1     2.5198     4.7618    9 H    0 0-1
   8 H    1     2.5720     4.8604   40 O    0-1 1
   8 H    1     2.7362     5.1707    4 B    0-1 1

   9 H    1     1.0914     2.0624   22 C    0 0 0
   9 H    1     2.1471     4.0575   19 C    0-1 2
   9 H    1     2.1680     4.0970   21 C    0-1 2
   9 H    1     2.5198     4.7618    8 H    0 0 1
   9 H    1     2.5665     4.8500   39 O    0 0 0
   9 H    1     2.7315     5.1618    2 B    0-1 2

  10 H    1     1.0915     2.0626   23 C    0 0 0
  10 H    1     2.1490     4.0610   24 C    0 0 0
  10 H    1     2.1669     4.0948   20 C    0 0 0
  10 H    1     2.5202     4.7625    7 H    0 0 0
  10 H    1     2.5712     4.8588   41 O    0 0 0
  10 H    1     2.7351     5.1686    4 B    0 0 0

  11 H    1     1.0913     2.0623   26 C    0 0 0
  11 H    1     2.1469     4.0571   25 C   -1 0 0
  11 H    1     2.1680     4.0968   29 C    0 0 0
  11 H    1     2.5198     4.7617   14 H    0 0 0
  11 H    1     2.5670     4.8510   38 O    0 0 1
  11 H    1     2.7310     5.1609    1 B    0 0 1

  12 H    1     1.0914     2.0625   27 C    0 0 0
  12 H    1     2.1493     4.0617   30 C    0-1 2
  12 H    1     2.1664     4.0939   28 C    0 0 0
  12 H    1     2.5192     4.7606   13 H    0 0 0
  12 H    1     2.5735     4.8632   40 O    0-1 1
  12 H    1     2.7371     5.1723    6 B    0-1 1

  13 H    1     1.0914     2.0624   28 C    0 0 0
  13 H    1     2.1475     4.0581   25 C    0 0 0
  13 H    1     2.1679     4.0967   27 C    0 0 0
  13 H    1     2.5192     4.7606   12 H    0 0 0
  13 H    1     2.5675     4.8519   37 O    0 0 1
  13 H    1     2.7328     5.1643    1 B    1 0 1

  14 H    1     1.0914     2.0625   29 C    0 0 0
  14 H    1     2.1491     4.0612   30 C   -1-1 2
  14 H    1     2.1666     4.0942   26 C    0 0 0
  14 H    1     2.5198     4.7617   11 H    0 0 0
  14 H    1     2.5723     4.8609   42 O   -1-1 1
  14 H    1     2.7355     5.1693    6 B   -1-1 1

  15 H    1     1.0914     2.0624   32 C    0 0 0
  15 H    1     2.1475     4.0582   31 C   -1-1 2
  15 H    1     2.1678     4.0966   35 C   -1-1 2
  15 H    1     2.5200     4.7621   18 H    0 0 1
  15 H    1     2.5667     4.8503   39 O    0 0 0
  15 H    1     2.7315     5.1618    3 B   -1-1 2

  16 H    1     1.0913     2.0623   33 C    0 0 0
  16 H    1     2.1487     4.0605   36 C    0 0 0
  16 H    1     2.1667     4.0945   34 C    0 0 0
  16 H    1     2.5197     4.7616   17 H    0 0 0
  16 H    1     2.5723     4.8610   41 O    0 0 0
  16 H    1     2.7359     5.1701    5 B    0 0 0

  17 H    1     1.0915     2.0626   34 C    0 0 0
  17 H    1     2.1479     4.0589   31 C    0 0 0
  17 H    1     2.1679     4.0968   33 C    0 0 0
  17 H    1     2.5197     4.7616   16 H    0 0 0
  17 H    1     2.5677     4.8522   37 O    0 0 0
  17 H    1     2.7331     5.1648    3 B    0 0 0

  18 H    1     1.0914     2.0624   35 C   -1-1 1
  18 H    1     2.1486     4.0602   36 C   -1-1 1
  18 H    1     2.1668     4.0947   32 C    0 0-1
  18 H    1     2.5200     4.7621   15 H    0 0-1
  18 H    1     2.5717     4.8598   42 O   -1-1 1
  18 H    1     2.7349     5.1682    5 B   -1-1 1

  19 C    1     1.4020     2.6495   22 C    0 1-2
  19 C    1     1.4021     2.6495   20 C    0 0 0
  19 C    1     1.5504     2.9298    2 B    0 0 0
  19 C    1     2.1471     4.0575    9 H    0 1-2
  19 C    1     2.1472     4.0576    7 H    0 0 0
  19 C    1     2.4246     4.5817   21 C    0 0 0

  20 C    1     1.0913     2.0623    7 H    0 0 0
  20 C    1     1.3914     2.6294   23 C    0 0 0
  20 C    1     1.4021     2.6495   19 C    0 0 0
  20 C    1     2.1669     4.0948   10 H    0 0 0
  20 C    1     2.4177     4.5688   22 C    0 1-2
  20 C    1     2.4250     4.5825   24 C    0 0 0

  21 C    1     1.0914     2.0625    8 H    0 1-1
  21 C    1     1.3914     2.6293   22 C    0 1-2
  21 C    1     1.4026     2.6505   24 C    0 0 0
  21 C    1     2.1680     4.0970    9 H    0 1-2
  21 C    1     2.4182     4.5697   23 C    0 0 0
  21 C    1     2.4246     4.5817   19 C    0 0 0

  22 C    1     1.0914     2.0624    9 H    0 0 0
  22 C    1     1.3914     2.6293   21 C    0-1 2
  22 C    1     1.4020     2.6495   19 C    0-1 2
  22 C    1     2.1666     4.0942    8 H    0 0 1
  22 C    1     2.4177     4.5688   20 C    0-1 2
  22 C    1     2.4250     4.5826   24 C    0-1 2

  23 C    1     1.0915     2.0626   10 H    0 0 0
  23 C    1     1.3914     2.6294   20 C    0 0 0
  23 C    1     1.4025     2.6504   24 C    0 0 0
  23 C    1     2.1680     4.0969    7 H    0 0 0
  23 C    1     2.4182     4.5697   21 C    0 0 0
  23 C    1     2.4246     4.5818   19 C    0 0 0

  24 C    1     1.4025     2.6504   23 C    0 0 0
  24 C    1     1.4026     2.6505   21 C    0 0 0
  24 C    1     1.5513     2.9316    4 B    0 0 0
  24 C    1     2.1490     4.0610   10 H    0 0 0
  24 C    1     2.1493     4.0616    8 H    0 1-1
  24 C    1     2.4250     4.5825   20 C    0 0 0

  25 C    1     1.4020     2.6494   26 C    1 0 0
  25 C    1     1.4021     2.6495   28 C    0 0 0
  25 C    1     1.5503     2.9297    1 B    1 0 1
  25 C    1     2.1469     4.0571   11 H    1 0 0
  25 C    1     2.1475     4.0581   13 H    0 0 0
  25 C    1     2.4246     4.5818   27 C    0 0 0

  26 C    1     1.0913     2.0623   11 H    0 0 0
  26 C    1     1.3914     2.6293   29 C    0 0 0
  26 C    1     1.4020     2.6494   25 C   -1 0 0
  26 C    1     2.1666     4.0942   14 H    0 0 0
  26 C    1     2.4175     4.5684   28 C   -1 0 0
  26 C    1     2.4251     4.5828   30 C   -1-1 2

  27 C    1     1.0914     2.0625   12 H    0 0 0
  27 C    1     1.3915     2.6295   28 C    0 0 0
  27 C    1     1.4026     2.6505   30 C    0-1 2
  27 C    1     2.1679     4.0967   13 H    0 0 0
  27 C    1     2.4179     4.5691   29 C    1 0 0
  27 C    1     2.4246     4.5818   25 C    0 0 0

  28 C    1     1.0914     2.0624   13 H    0 0 0
  28 C    1     1.3915     2.6295   27 C    0 0 0
  28 C    1     1.4021     2.6495   25 C    0 0 0
  28 C    1     2.1664     4.0939   12 H    0 0 0
  28 C    1     2.4175     4.5684   26 C    1 0 0
  28 C    1     2.4253     4.5832   30 C    0-1 2

  29 C    1     1.0914     2.0625   14 H    0 0 0
  29 C    1     1.3914     2.6293   26 C    0 0 0
  29 C    1     1.4025     2.6504   30 C   -1-1 2
  29 C    1     2.1680     4.0968   11 H    0 0 0
  29 C    1     2.4179     4.5691   27 C   -1 0 0
  29 C    1     2.4247     4.5819   25 C   -1 0 0

  30 C    1     1.4025     2.6504   29 C    1 1-2
  30 C    1     1.4026     2.6505   27 C    0 1-2
  30 C    1     1.5516     2.9322    6 B    0 0-1
  30 C    1     2.1491     4.0612   14 H    1 1-2
  30 C    1     2.1493     4.0617   12 H    0 1-2
  30 C    1     2.4251     4.5828   26 C    1 1-2

  31 C    1     1.4021     2.6496   32 C    1 1-2
  31 C    1     1.4021     2.6497   34 C    0 0 0
  31 C    1     1.5502     2.9294    3 B    0 0 0
  31 C    1     2.1475     4.0582   15 H    1 1-2
  31 C    1     2.1479     4.0589   17 H    0 0 0
  31 C    1     2.4244     4.5814   33 C    0 0 0

  32 C    1     1.0914     2.0624   15 H    0 0 0
  32 C    1     1.3914     2.6293   35 C   -1-1 2
  32 C    1     1.4021     2.6496   31 C   -1-1 2
  32 C    1     2.1668     4.0947   18 H    0 0 1
  32 C    1     2.4179     4.5692   34 C   -1-1 2
  32 C    1     2.4251     4.5827   36 C   -1-1 2

  33 C    1     1.0913     2.0623   16 H    0 0 0
  33 C    1     1.3914     2.6294   34 C    0 0 0
  33 C    1     1.4025     2.6504   36 C    0 0 0
  33 C    1     2.1679     4.0968   17 H    0 0 0
  33 C    1     2.4178     4.5690   35 C    0 0 0
  33 C    1     2.4244     4.5814   31 C    0 0 0

  34 C    1     1.0915     2.0626   17 H    0 0 0
  34 C    1     1.3914     2.6294   33 C    0 0 0
  34 C    1     1.4021     2.6497   31 C    0 0 0
  34 C    1     2.1667     4.0945   16 H    0 0 0
  34 C    1     2.4179     4.5692   32 C    1 1-2
  34 C    1     2.4253     4.5832   36 C    0 0 0

  35 C    1     1.0914     2.0624   18 H    1 1-1
  35 C    1     1.3914     2.6293   32 C    1 1-2
  35 C    1     1.4025     2.6503   36 C    0 0 0
  35 C    1     2.1678     4.0966   15 H    1 1-2
  35 C    1     2.4178     4.5690   33 C    0 0 0
  35 C    1     2.4245     4.5817   31 C    0 0 0

  36 C    1     1.4025     2.6503   35 C    0 0 0
  36 C    1     1.4025     2.6504   33 C    0 0 0
  36 C    1     1.5516     2.9322    5 B    0 0 0
  36 C    1     2.1486     4.0602   18 H    1 1-1
  36 C    1     2.1487     4.0605   16 H    0 0 0
  36 C    1     2.4251     4.5827   32 C    1 1-2

  37 O    1     1.3791     2.6061    3 B    0 0 0
  37 O    1     1.3791     2.6061    1 B    1 0 0
  37 O    1     2.3880     4.5126   38 O    1 0 0
  37 O    1     2.3882     4.5130   39 O    1 1-2
  37 O    1     2.5383     4.7966   31 C    0 0 0
  37 O    1     2.5384     4.7968   25 C    0 0-1

  38 O    1     1.3793     2.6065    1 B    0 0 0
  38 O    1     1.3793     2.6065    2 B    0 0 0
  38 O    1     2.3880     4.5126   37 O   -1 0 0
  38 O    1     2.3882     4.5131   39 O    0 1-2
  38 O    1     2.5391     4.7981   19 C    0 0 0
  38 O    1     2.5395     4.7990   25 C   -1 0-1

  39 O    1     1.3793     2.6064    3 B   -1-1 2
  39 O    1     1.3793     2.6065    2 B    0-1 2
  39 O    1     2.3882     4.5130   37 O   -1-1 2
  39 O    1     2.3882     4.5131   38 O    0-1 2
  39 O    1     2.5390     4.7980   19 C    0-1 2
  39 O    1     2.5391     4.7982   31 C   -1-1 2

  40 O    1     1.3795     2.6068    6 B    0 0 0
  40 O    1     1.3795     2.6068    4 B    0 0 0
  40 O    1     2.3880     4.5126   42 O    0 0 0
  40 O    1     2.3884     4.5134   41 O    0 0 0
  40 O    1     2.5400     4.7998   24 C    0 0 0
  40 O    1     2.5403     4.8005   30 C    0 0 1

  41 O    1     1.3795     2.6069    5 B    0 0 0
  41 O    1     1.3795     2.6070    4 B    0 0 0
  41 O    1     2.3881     4.5128   42 O    0 0 0
  41 O    1     2.3884     4.5134   40 O    0 0 0
  41 O    1     2.5404     4.8006   24 C    0 0 0
  41 O    1     2.5405     4.8008   36 C    0 0 0

  42 O    1     1.3796     2.6071    6 B    0 0 0
  42 O    1     1.3797     2.6072    5 B    0 0 0
  42 O    1     2.3880     4.5126   40 O    0 0 0
  42 O    1     2.3881     4.5128   41 O    0 0 0
  42 O    1     2.5409     4.8016   36 C    0 0 0
  42 O    1     2.5410     4.8019   30 C    0 0 1


 SYMMETRY ALLOWED INTERNAL DEGREE(S) OF FREEDOM: 123
 TTTTTTTTTTTTTTTTTTTTTTTTTTTTTT SYMM        TELAPSE        0.38 TCPU        0.38
 TTTTTTTTTTTTTTTTTTTTTTTTTTTTTT INT_SCREEN  TELAPSE        0.41 TCPU        0.41

 DFT PARAMETERS

     ATOM       ELECTRONS   NET CHARGE   R(ANGSTROM)
   1   5  B       5.0000      0.0000     0.89000000
   7   1  H       1.0000      0.0000     1.11000000
  19   6  C       6.0000      0.0000     0.77000000
  37   8  O       8.0000      0.0000     0.74000000

 SIZE OF GRID=    1276089
 TTTTTTTTTTTTTTTTTTTTTTTTTTTTTT MAKE_GRID2  TELAPSE       10.44 TCPU       10.43
 BECKE WEIGHT FUNCTION
 RADSAFE =     2.00
 TOLERANCES - DENSITY:10**- 6; POTENTIAL:10**- 9; GRID WGT:10**-14

 RADIAL INTEGRATION  - INTERVALS (POINTS,UPPER LIMIT):            1( 75,  4.0*R)

 ANGULAR INTEGRATION - INTERVALS (ACCURACY LEVEL [N. POINTS] UPPER LIMIT):
  1(  4[  86]   0.2)  2(  8[ 194]   0.5)  3( 12[ 350]   0.9)  4( 16[ 974]   3.5)
  5( 12[ 350]9999.0)
 TTTTTTTTTTTTTTTTTTTTTTTTTTTTTT INT_CALC    TELAPSE       10.54 TCPU       10.53
 EEEEEEEEEE INT_CALC TERMINATION  DATE 19 02 2026 TIME 18:28:06.9

 *******************************************************************************
 cof-1_z35_L040_incl                                                             
 CRYSTAL - SCF - TYPE OF CALCULATION :  RESTRICTED CLOSED SHELL
 *******************************************************************************

 CAPPA:IS1  2;IS2  2;IS3  8; K PTS MONK NET  20; SYMMOPS:K SPACE   2;G SPACE   1

 TTTTTTTTTTTTTTTTTTTTTTTTTTTTTT SDIK        TELAPSE       11.14 TCPU       18.61

 AAAAAAAAAAAAAAAAAAAAAAAAAAAAAAAAAAAAAAAAAAAAAAAAAAAAAAAAAAAAAAAAAAAAAAAAAAAAAAA
         ATOMIC WAVEFUNCTION(S)


 NUCLEAR CHARGE  5.0  SYMMETRY SPECIES            S    P
 N. ELECTRONS    5.0  NUMBER OF PRIMITIVE GTOS    8    4
                      NUMBER OF CONTRACTED GTOS   4    2
                      NUMBER OF CLOSED SHELLS     2    0
                      OPEN SHELL OCCUPATION       0    1

  ZNUC  SCFIT    TOTAL HF ENERGY   KINETIC ENERGY   VIRIAL THEOREM ACCURACY
   5.0    11    -2.451164084E+01  2.462155050E+01 -1.995536038E+00  1.5E-06

 NUCLEAR CHARGE  1.0  SYMMETRY SPECIES            S
 N. ELECTRONS    1.0  NUMBER OF PRIMITIVE GTOS    4
                      NUMBER OF CONTRACTED GTOS   2
                      NUMBER OF CLOSED SHELLS     0
                      OPEN SHELL OCCUPATION       1

  ZNUC  SCFIT    TOTAL HF ENERGY   KINETIC ENERGY   VIRIAL THEOREM ACCURACY
   1.0     1    -4.977266687E-01  5.190767460E-01 -1.958869132E+00  0.0E+00

 NUCLEAR CHARGE  6.0  SYMMETRY SPECIES            S    P
 N. ELECTRONS    6.0  NUMBER OF PRIMITIVE GTOS    8    4
                      NUMBER OF CONTRACTED GTOS   4    2
                      NUMBER OF CLOSED SHELLS     2    0
                      OPEN SHELL OCCUPATION       0    2

  ZNUC  SCFIT    TOTAL HF ENERGY   KINETIC ENERGY   VIRIAL THEOREM ACCURACY
   6.0     9    -3.766704647E+01  3.775180683E+01 -1.997754800E+00  1.1E-06

 NUCLEAR CHARGE  8.0  SYMMETRY SPECIES            S    P
 N. ELECTRONS    8.0  NUMBER OF PRIMITIVE GTOS    8    4
                      NUMBER OF CONTRACTED GTOS   4    2
                      NUMBER OF CLOSED SHELLS     2    0
                      OPEN SHELL OCCUPATION       0    4

  ZNUC  SCFIT    TOTAL HF ENERGY   KINETIC ENERGY   VIRIAL THEOREM ACCURACY
   8.0    12    -7.477373220E+01  7.477365593E+01 -2.000001020E+00  3.8E-06

 AAAAAAAAAAAAAAAAAAAAAAAAAAAAAAAAAAAAAAAAAAAAAAAAAAAAAAAAAAAAAAAAAAAAAAAAAAAAAAA

 CHARGE NORMALIZATION FACTOR   1.00000000
 TOTAL ATOMIC CHARGES:
   5.0000000   5.0000000   5.0000000   5.0000000   5.0000000   5.0000000
   1.0000000   1.0000000   1.0000000   1.0000000   1.0000000   1.0000000
   1.0000000   1.0000000   1.0000000   1.0000000   1.0000000   1.0000000
   6.0000000   6.0000000   6.0000000   6.0000000   6.0000000   6.0000000
   6.0000000   6.0000000   6.0000000   6.0000000   6.0000000   6.0000000
   6.0000000   6.0000000   6.0000000   6.0000000   6.0000000   6.0000000
   8.0000000   8.0000000   8.0000000   8.0000000   8.0000000   8.0000000
 TTTTTTTTTTTTTTTTTTTTTTTTTTTTTT MOQGAD      TELAPSE       11.19 TCPU       20.20
 TTTTTTTTTTTTTTTTTTTTTTTTTTTTTT SHELLXN     TELAPSE       20.18 TCPU      307.29
 TTTTTTTTTTTTTTTTTTTTTTTTTTTTTT MONMO3      TELAPSE       20.33 TCPU      312.20
 NUMERICALLY INTEGRATED DENSITY    197.9999826556
 TTTTTTTTTTTTTTTTTTTTTTTTTTTTTT NUMDFT      TELAPSE       20.97 TCPU      332.77
 CYC   0 ETOT(AU) -1.295970630052E+03 DETOT -1.30E+03 tst  0.00E+00 PX  1.00E+00
 TTTTTTTTTTTTTTTTTTTTTTTTTTTTTT DIIS        TELAPSE       21.01 TCPU      333.95
 TTTTTTTTTTTTTTTTTTTTTTTTTTTTTT FDIK        TELAPSE       21.50 TCPU      349.62
 INSULATING STATE
 TOP OF VALENCE BANDS -    BAND     99; K   17; EIG -3.1032193E-01 AU
 TOP OF VALENCE BANDS -    BAND     99; K    1; EIG -3.1394008E-01 AU
 BOTTOM OF VIRTUAL BANDS - BAND    100; K   17; EIG -1.6477426E-01 AU
 DIRECT ENERGY BAND GAP:   3.9606 eV
 BOTTOM OF VIRTUAL BANDS - BAND    100; K    1; EIG -1.6085571E-01 AU
 TTTTTTTTTTTTTTTTTTTTTTTTTTTTTT PDIG        TELAPSE       21.82 TCPU      355.79
 CHARGE NORMALIZATION FACTOR   1.00000000
 TOTAL ATOMIC CHARGES:
   4.1427143   4.1600159   4.1603671   4.1595042   4.1592121   4.1428671
   0.7855763   0.7857322   0.7844644   0.7844983   0.7860445   0.7861893
   0.7860630   0.7861591   0.7844323   0.7845448   0.7855251   0.7857190
   6.0448110   6.2676303   6.2675280   6.2659320   6.2660052   6.0442666
   6.0497871   6.2628824   6.2632924   6.2627912   6.2633837   6.0480886
   6.0452451   6.2656648   6.2663699   6.2672336   6.2678147   6.0438607
   8.6974291   8.6976350   8.6977567   8.6982092   8.6983062   8.6984475
 TTTTTTTTTTTTTTTTTTTTTTTTTTTTTT MOQGAD      TELAPSE       21.87 TCPU      355.84
 TTTTTTTTTTTTTTTTTTTTTTTTTTTTTT SHELLXN     TELAPSE       31.23 TCPU      654.17
 TTTTTTTTTTTTTTTTTTTTTTTTTTTTTT MONMO3      TELAPSE       31.38 TCPU      659.06
 NUMERICALLY INTEGRATED DENSITY    197.9999969260
 TTTTTTTTTTTTTTTTTTTTTTTTTTTTTT NUMDFT      TELAPSE       32.03 TCPU      680.03
 CYC   1 ETOT(AU) -1.288830093373E+03 DETOT  7.14E+00 tst  0.00E+00 PX  1.00E+00
 TTTTTTTTTTTTTTTTTTTTTTTTTTTTTT DIIS        TELAPSE       32.08 TCPU      681.45
 DIIS TEST: 0.10851E+01 AT SCF   CYCLE   1 - MIX   30 %
 TTTTTTTTTTTTTTTTTTTTTTTTTTTTTT FDIK        TELAPSE       32.58 TCPU      697.42
 INSULATING STATE
 TOP OF VALENCE BANDS -    BAND     99; K   17; EIG -2.2285061E-01 AU
 TOP OF VALENCE BANDS -    BAND     99; K    1; EIG -2.3003948E-01 AU
 BOTTOM OF VIRTUAL BANDS - BAND    100; K   17; EIG -9.0403549E-02 AU
 DIRECT ENERGY BAND GAP:   3.6041 eV
 BOTTOM OF VIRTUAL BANDS - BAND    100; K    1; EIG -8.3893432E-02 AU
 TTTTTTTTTTTTTTTTTTTTTTTTTTTTTT PDIG        TELAPSE       32.90 TCPU      703.59
 CHARGE NORMALIZATION FACTOR   1.00000000
 TOTAL ATOMIC CHARGES:
   4.6567213   4.6946684   4.6946750   4.6944480   4.6946265   4.6567279
   0.9045615   0.9047045   0.9167294   0.9170844   0.8970375   0.8966572
   0.8970134   0.8966998   0.9167563   0.9171195   0.9044771   0.9045502
   5.8728899   6.1331111   6.1336938   6.1429673   6.1427883   5.8754594
   5.9039499   6.1470673   6.1492120   6.1481656   6.1475158   5.9048728
   5.8725575   6.1422458   6.1434422   6.1336122   6.1335249   5.8756603
   8.3326027   8.3327098   8.3509954   8.3325334   8.3506406   8.3325241
 TTTTTTTTTTTTTTTTTTTTTTTTTTTTTT MOQGAD      TELAPSE       32.95 TCPU      703.64
 TTTTTTTTTTTTTTTTTTTTTTTTTTTTTT SHELLXN     TELAPSE       42.30 TCPU     1001.93
 TTTTTTTTTTTTTTTTTTTTTTTTTTTTTT MONMO3      TELAPSE       42.46 TCPU     1006.83
 NUMERICALLY INTEGRATED DENSITY    197.9999952423
 TTTTTTTTTTTTTTTTTTTTTTTTTTTTTT NUMDFT      TELAPSE       43.11 TCPU     1027.70
 CYC   2 ETOT(AU) -1.289022684523E+03 DETOT -1.93E-01 tst  3.39E-03 PX  1.59E-01
 TTTTTTTTTTTTTTTTTTTTTTTTTTTTTT DIIS        TELAPSE       43.16 TCPU     1029.32
 DIIS TEST: 0.44494E+00 AT SCF   CYCLE   2 - DIIS ACTIVE - HISTORY:     2 CYCLES
 TTTTTTTTTTTTTTTTTTTTTTTTTTTTTT FDIK        TELAPSE       43.66 TCPU     1045.18
 INSULATING STATE
 TOP OF VALENCE BANDS -    BAND     99; K   17; EIG -2.3457050E-01 AU
 TOP OF VALENCE BANDS -    BAND     99; K    1; EIG -2.4008694E-01 AU
 BOTTOM OF VIRTUAL BANDS - BAND    100; K   17; EIG -8.5843427E-02 AU
 DIRECT ENERGY BAND GAP:   4.0471 eV
 BOTTOM OF VIRTUAL BANDS - BAND    100; K    1; EIG -8.0087548E-02 AU
 TTTTTTTTTTTTTTTTTTTTTTTTTTTTTT PDIG        TELAPSE       43.97 TCPU     1051.36
 CHARGE NORMALIZATION FACTOR   1.00000000
 TOTAL ATOMIC CHARGES:
   4.4583674   4.4943375   4.4943625   4.4935815   4.4934423   4.4585909
   0.8848449   0.8851672   0.8938807   0.8940687   0.8813492   0.8813648
   0.8815183   0.8811915   0.8937768   0.8942050   0.8848066   0.8850090
   5.8957596   6.1652493   6.1649747   6.1560646   6.1551077   5.8956696
   5.9159609   6.1643311   6.1644312   6.1639767   6.1645848   5.9150272
   5.8961090   6.1559781   6.1551937   6.1649752   6.1654157   5.8953733
   8.5192666   8.5197055   8.5164603   8.5198813   8.5163141   8.5203253
 TTTTTTTTTTTTTTTTTTTTTTTTTTTTTT MOQGAD      TELAPSE       44.03 TCPU     1051.41
 TTTTTTTTTTTTTTTTTTTTTTTTTTTTTT SHELLXN     TELAPSE       53.38 TCPU     1349.77
 TTTTTTTTTTTTTTTTTTTTTTTTTTTTTT MONMO3      TELAPSE       53.53 TCPU     1354.67
 NUMERICALLY INTEGRATED DENSITY    197.9999957266
 TTTTTTTTTTTTTTTTTTTTTTTTTTTTTT NUMDFT      TELAPSE       54.19 TCPU     1375.55
 CYC   3 ETOT(AU) -1.289114358726E+03 DETOT -9.17E-02 tst  6.61E-04 PX  6.67E-02
 TTTTTTTTTTTTTTTTTTTTTTTTTTTTTT DIIS        TELAPSE       54.24 TCPU     1377.37
 DIIS TEST: 0.15271E-01 AT SCF   CYCLE   3 - DIIS ACTIVE - HISTORY:     3 CYCLES
 TTTTTTTTTTTTTTTTTTTTTTTTTTTTTT FDIK        TELAPSE       54.74 TCPU     1393.29
 INSULATING STATE
 TOP OF VALENCE BANDS -    BAND     99; K   17; EIG -2.4435180E-01 AU
 TOP OF VALENCE BANDS -    BAND     99; K    1; EIG -2.5170833E-01 AU
 BOTTOM OF VIRTUAL BANDS - BAND    100; K   17; EIG -9.4925690E-02 AU
 DIRECT ENERGY BAND GAP:   4.0661 eV
 BOTTOM OF VIRTUAL BANDS - BAND    100; K    1; EIG -8.7940185E-02 AU
 TTTTTTTTTTTTTTTTTTTTTTTTTTTTTT PDIG        TELAPSE       55.06 TCPU     1399.46
 CHARGE NORMALIZATION FACTOR   1.00000000
 TOTAL ATOMIC CHARGES:
   4.4652164   4.4981275   4.4981276   4.4976853   4.4976134   4.4656135
   0.8683943   0.8686325   0.8761622   0.8763694   0.8617505   0.8615006
   0.8616998   0.8615526   0.8762087   0.8763870   0.8683375   0.8685079
   5.9404253   6.1663367   6.1666563   6.1705311   6.1707859   5.9428016
   5.9669532   6.1746312   6.1770952   6.1758429   6.1754860   5.9670741
   5.9404759   6.1697078   6.1715680   6.1666661   6.1665427   5.9427156
   8.4789777   8.4789721   8.4918225   8.4790763   8.4919521   8.4790170
 TTTTTTTTTTTTTTTTTTTTTTTTTTTTTT MOQGAD      TELAPSE       55.11 TCPU     1399.51
 TTTTTTTTTTTTTTTTTTTTTTTTTTTTTT SHELLXN     TELAPSE       64.46 TCPU     1697.88
 TTTTTTTTTTTTTTTTTTTTTTTTTTTTTT MONMO3      TELAPSE       64.62 TCPU     1702.79
 NUMERICALLY INTEGRATED DENSITY    197.9999956957
 TTTTTTTTTTTTTTTTTTTTTTTTTTTTTT NUMDFT      TELAPSE       65.27 TCPU     1723.69
 CYC   4 ETOT(AU) -1.289117660695E+03 DETOT -3.30E-03 tst  3.21E-05 PX  1.42E-02
 TTTTTTTTTTTTTTTTTTTTTTTTTTTTTT DIIS        TELAPSE       65.33 TCPU     1725.62
 DIIS TEST: 0.41896E-02 AT SCF   CYCLE   4 - DIIS ACTIVE - HISTORY:     4 CYCLES
 TTTTTTTTTTTTTTTTTTTTTTTTTTTTTT FDIK        TELAPSE       65.83 TCPU     1741.46
 INSULATING STATE
 TOP OF VALENCE BANDS -    BAND     99; K   17; EIG -2.4284252E-01 AU
 TOP OF VALENCE BANDS -    BAND     99; K    1; EIG -2.4958997E-01 AU
 BOTTOM OF VIRTUAL BANDS - BAND    100; K   17; EIG -9.4171804E-02 AU
 DIRECT ENERGY BAND GAP:   4.0455 eV
 BOTTOM OF VIRTUAL BANDS - BAND    100; K    1; EIG -8.7877925E-02 AU
 TTTTTTTTTTTTTTTTTTTTTTTTTTTTTT PDIG        TELAPSE       66.14 TCPU     1747.63
 CHARGE NORMALIZATION FACTOR   1.00000000
 TOTAL ATOMIC CHARGES:
   4.4650959   4.5012346   4.5012488   4.5006955   4.5006321   4.4652771
   0.8705962   0.8708648   0.8796864   0.8799706   0.8653189   0.8652959
   0.8654428   0.8651686   0.8796298   0.8800857   0.8705504   0.8707200
   5.9254910   6.1690741   6.1688902   6.1681558   6.1670532   5.9253222
   5.9487840   6.1745060   6.1748677   6.1743005   6.1747589   5.9476871
   5.9255399   6.1678856   6.1672896   6.1688742   6.1692976   5.9252501
   8.4915399   8.4919291   8.4960080   8.4919445   8.4957191   8.4923178
 TTTTTTTTTTTTTTTTTTTTTTTTTTTTTT MOQGAD      TELAPSE       66.19 TCPU     1747.68
 TTTTTTTTTTTTTTTTTTTTTTTTTTTTTT SHELLXN     TELAPSE       75.54 TCPU     2045.99
 TTTTTTTTTTTTTTTTTTTTTTTTTTTTTT MONMO3      TELAPSE       75.70 TCPU     2050.90
 NUMERICALLY INTEGRATED DENSITY    197.9999957729
 TTTTTTTTTTTTTTTTTTTTTTTTTTTTTT NUMDFT      TELAPSE       76.35 TCPU     2071.77
 CYC   5 ETOT(AU) -1.289118613246E+03 DETOT -9.53E-04 tst  6.82E-06 PX  6.54E-03
 TTTTTTTTTTTTTTTTTTTTTTTTTTTTTT DIIS        TELAPSE       76.42 TCPU     2073.97
 DIIS TEST: 0.62201E-04 AT SCF   CYCLE   5 - DIIS ACTIVE - HISTORY:     5 CYCLES
 TTTTTTTTTTTTTTTTTTTTTTTTTTTTTT FDIK        TELAPSE       76.92 TCPU     2089.83
 INSULATING STATE
 TOP OF VALENCE BANDS -    BAND     99; K   17; EIG -2.4259450E-01 AU
 TOP OF VALENCE BANDS -    BAND     99; K    1; EIG -2.4936418E-01 AU
 BOTTOM OF VIRTUAL BANDS - BAND    100; K   17; EIG -9.3741860E-02 AU
 DIRECT ENERGY BAND GAP:   4.0505 eV
 BOTTOM OF VIRTUAL BANDS - BAND    100; K    1; EIG -8.7409368E-02 AU
 TTTTTTTTTTTTTTTTTTTTTTTTTTTTTT PDIG        TELAPSE       77.24 TCPU     2096.01
 CHARGE NORMALIZATION FACTOR   1.00000000
 TOTAL ATOMIC CHARGES:
   4.4661363   4.5005152   4.5005413   4.5000152   4.4999350   4.4664612
   0.8716571   0.8719064   0.8806050   0.8807607   0.8664830   0.8661893
   0.8664344   0.8662385   0.8806205   0.8808008   0.8715847   0.8717867
   5.9236546   6.1677959   6.1681688   6.1667118   6.1674083   5.9266259
   5.9482305   6.1723276   6.1749324   6.1736118   6.1733188   5.9488289
   5.9240010   6.1660301   6.1680620   6.1681832   6.1679826   5.9262690
   8.4905031   8.4904629   8.4983024   8.4907096   8.4985833   8.4906245
 TTTTTTTTTTTTTTTTTTTTTTTTTTTTTT MOQGAD      TELAPSE       77.29 TCPU     2096.06
 TTTTTTTTTTTTTTTTTTTTTTTTTTTTTT SHELLXN     TELAPSE       86.64 TCPU     2394.14
 TTTTTTTTTTTTTTTTTTTTTTTTTTTTTT MONMO3      TELAPSE       86.79 TCPU     2399.05
 NUMERICALLY INTEGRATED DENSITY    197.9999957747
 TTTTTTTTTTTTTTTTTTTTTTTTTTTTTT NUMDFT      TELAPSE       87.44 TCPU     2419.93
 CYC   6 ETOT(AU) -1.289118626592E+03 DETOT -1.33E-05 tst  1.15E-07 PX  9.13E-04
 TTTTTTTTTTTTTTTTTTTTTTTTTTTTTT DIIS        TELAPSE       87.51 TCPU     2422.21
 DIIS TEST: 0.22974E-04 AT SCF   CYCLE   6 - DIIS ACTIVE - HISTORY:     6 CYCLES
 TTTTTTTTTTTTTTTTTTTTTTTTTTTTTT FDIK        TELAPSE       88.01 TCPU     2438.11
 INSULATING STATE
 TOP OF VALENCE BANDS -    BAND     99; K   17; EIG -2.4262107E-01 AU
 TOP OF VALENCE BANDS -    BAND     99; K    1; EIG -2.4937037E-01 AU
 BOTTOM OF VIRTUAL BANDS - BAND    100; K   17; EIG -9.3782599E-02 AU
 DIRECT ENERGY BAND GAP:   4.0501 eV
 BOTTOM OF VIRTUAL BANDS - BAND    100; K    1; EIG -8.7441873E-02 AU
 TTTTTTTTTTTTTTTTTTTTTTTTTTTTTT PDIG        TELAPSE       88.33 TCPU     2444.29
 CHARGE NORMALIZATION FACTOR   1.00000000
 TOTAL ATOMIC CHARGES:
   4.4656994   4.5009015   4.5009136   4.5003613   4.5002883   4.4659472
   0.8715950   0.8718689   0.8804817   0.8807567   0.8662676   0.8662035
   0.8663631   0.8661084   0.8804498   0.8808440   0.8715490   0.8717224
   5.9251654   6.1681830   6.1680744   6.1674485   6.1664735   5.9253326
   5.9488196   6.1734620   6.1741595   6.1735089   6.1737878   5.9478665
   5.9251727   6.1670359   6.1668563   6.1680653   6.1683999   5.9253100
   8.4908818   8.4912094   8.4969479   8.4912405   8.4967326   8.4915446
 TTTTTTTTTTTTTTTTTTTTTTTTTTTTTT MOQGAD      TELAPSE       88.38 TCPU     2444.34
 TTTTTTTTTTTTTTTTTTTTTTTTTTTTTT SHELLXN     TELAPSE       97.72 TCPU     2742.25
 TTTTTTTTTTTTTTTTTTTTTTTTTTTTTT MONMO3      TELAPSE       97.87 TCPU     2747.15
 NUMERICALLY INTEGRATED DENSITY    197.9999957693
 TTTTTTTTTTTTTTTTTTTTTTTTTTTTTT NUMDFT      TELAPSE       98.53 TCPU     2768.02
 CYC   7 ETOT(AU) -1.289118631476E+03 DETOT -4.88E-06 tst  7.25E-08 PX  7.00E-04
 TTTTTTTTTTTTTTTTTTTTTTTTTTTTTT DIIS        TELAPSE       98.61 TCPU     2770.61
 DIIS TEST: 0.16961E-05 AT SCF   CYCLE   7 - DIIS ACTIVE - HISTORY:     7 CYCLES
 TTTTTTTTTTTTTTTTTTTTTTTTTTTTTT FDIK        TELAPSE       99.11 TCPU     2786.56
 INSULATING STATE
 TOP OF VALENCE BANDS -    BAND     99; K   17; EIG -2.4262230E-01 AU
 TOP OF VALENCE BANDS -    BAND     99; K    1; EIG -2.4937918E-01 AU
 BOTTOM OF VIRTUAL BANDS - BAND    100; K   17; EIG -9.3801584E-02 AU
 DIRECT ENERGY BAND GAP:   4.0496 eV
 BOTTOM OF VIRTUAL BANDS - BAND    100; K    1; EIG -8.7463764E-02 AU
 TTTTTTTTTTTTTTTTTTTTTTTTTTTTTT PDIG        TELAPSE       99.43 TCPU     2792.74
 CHARGE NORMALIZATION FACTOR   1.00000000
 TOTAL ATOMIC CHARGES:
   4.4656688   4.5009702   4.5009886   4.5004487   4.5003744   4.4659268
   0.8715660   0.8718301   0.8804937   0.8807072   0.8662599   0.8661117
   0.8663081   0.8660633   0.8804649   0.8807924   0.8715092   0.8716951
   5.9245436   6.1680669   6.1681317   6.1671119   6.1668889   5.9258758
   5.9484528   6.1731590   6.1745611   6.1736283   6.1737683   5.9481621
   5.9247525   6.1666780   6.1672923   6.1681341   6.1682701   5.9256511
   8.4909976   8.4911899   8.4968754   8.4913075   8.4968507   8.4914712
 TTTTTTTTTTTTTTTTTTTTTTTTTTTTTT MOQGAD      TELAPSE       99.48 TCPU     2792.79
 TTTTTTTTTTTTTTTTTTTTTTTTTTTTTT SHELLXN     TELAPSE      108.83 TCPU     3091.08
 TTTTTTTTTTTTTTTTTTTTTTTTTTTTTT MONMO3      TELAPSE      108.98 TCPU     3095.97
 NUMERICALLY INTEGRATED DENSITY    197.9999957688
 TTTTTTTTTTTTTTTTTTTTTTTTTTTTTT NUMDFT      TELAPSE      109.63 TCPU     3116.85
 CYC   8 ETOT(AU) -1.289118631594E+03 DETOT -1.18E-07 tst  1.30E-08 PX  1.58E-04
 TTTTTTTTTTTTTTTTTTTTTTTTTTTTTT DIIS        TELAPSE      109.72 TCPU     3119.44
 DIIS TEST: 0.35306E-06 AT SCF   CYCLE   8 - DIIS ACTIVE - HISTORY:     8 CYCLES
 TTTTTTTTTTTTTTTTTTTTTTTTTTTTTT FDIK        TELAPSE      110.21 TCPU     3135.30
 INSULATING STATE
 TOP OF VALENCE BANDS -    BAND     99; K   17; EIG -2.4262243E-01 AU
 TOP OF VALENCE BANDS -    BAND     99; K    1; EIG -2.4938142E-01 AU
 BOTTOM OF VIRTUAL BANDS - BAND    100; K   17; EIG -9.3800124E-02 AU
 DIRECT ENERGY BAND GAP:   4.0497 eV
 BOTTOM OF VIRTUAL BANDS - BAND    100; K    1; EIG -8.7463853E-02 AU
 TTTTTTTTTTTTTTTTTTTTTTTTTTTTTT PDIG        TELAPSE      110.53 TCPU     3141.48
 CHARGE NORMALIZATION FACTOR   1.00000000
 TOTAL ATOMIC CHARGES:
   4.4657245   4.5009390   4.5009549   4.5004108   4.5003382   4.4659802
   0.8715577   0.8718238   0.8804803   0.8807211   0.8662511   0.8661277
   0.8663105   0.8660682   0.8804570   0.8808006   0.8715039   0.8716857
   5.9247388   6.1680897   6.1681087   6.1672615   6.1667540   5.9256619
   5.9486068   6.1732403   6.1744318   6.1735995   6.1737485   5.9480817
   5.9248574   6.1668004   6.1671849   6.1681060   6.1682983   5.9255276
   8.4909032   8.4911345   8.4970787   8.4912271   8.4969931   8.4914304
 TTTTTTTTTTTTTTTTTTTTTTTTTTTTTT MOQGAD      TELAPSE      110.58 TCPU     3141.53
 TTTTTTTTTTTTTTTTTTTTTTTTTTTTTT SHELLXN     TELAPSE      119.93 TCPU     3439.87
 +++ ENERGIES IN A.U. +++
 ::: EXT EL-POLE                                  -1.4804303257175E+03
 ::: EXT EL-SPHEROPOLE                             1.6388747328891E+01
 ::: BIELET ZONE E-E                               2.2341658792845E+03
 ::: TOTAL E-E                                     7.7012430089587E+02
 ::: TOTAL E-N + N-E                              -3.3657372223976E+03
 ::: TOTAL N-N                                     1.6028550419532E+02
 ::: KINETIC ENERGY                                1.2799261987765E+03
 ::: PSEUDO TOTAL   ENERGY                        -1.1554012185299E+03
 ::: VIRIAL COEFFICIENT                            1.0511327468174E+00
 TTTTTTTTTTTTTTTTTTTTTTTTTTTTTT MONMO3      TELAPSE      120.09 TCPU     3444.77
 NUMERICALLY INTEGRATED DENSITY    197.9999957687
 EXCHANGE ENERGY: -0.126020705003E+03  CORRELATION ENERGY: -0.769670813128E+01
 TTTTTTTTTTTTTTTTTTTTTTTTTTTTTT NUMDFT      TELAPSE      120.74 TCPU     3465.67
 CYC   9 ETOT(AU) -1.289118631664E+03 DETOT -7.06E-08 tst  1.60E-09 PX  1.58E-04

 == SCF ENDED - CONVERGENCE ON ENERGY      E(AU) -1.2891186316642E+03 CYCLES   9


 ENERGY EXPRESSION=HARTREE+FOCK EXCH*0.00000+(HSESOL     EXCH)*1.00000+PBESOL     CORR


 TOTAL ENERGY(DFT)(AU)(  9) -1.2891186316642E+03 DE-7.1E-08 tester 1.6E-09
 TTTTTTTTTTTTTTTTTTTTTTTTTTTTTT EDFT        TELAPSE      120.74 TCPU     3465.68
 
 INFORMATION **** DFTD3 ENERGY **** CALCULATE DFTD3 ENERGY

           DFT-D V3(BJ)
 DF                                         hsesol3c  
 parameters
 s6       :    1.0000
 s8       :    0.0000
 a1       :    0.5196
 a2       :    4.9385
 k1 k3    :   16.0000   -4.0000
 Cutoff   :   50.2022
 CN-Cutoff:   21.1671
 ABC-Cutoff:   21.1671
 
 Edisp /kcal,au:   -28.0319 -0.04467161

 E6    /kcal :   -29.8059
 E8    /kcal :     0.0000
 E6(ABC) "   :   1.774077
 
 INFORMATION **** DFTD3 ENERGY **** NORMAL TERMINATION OF DFTD3 MODULE

 GCP ENERGY CALCULATION
  level        hsesol3c            basis:hsesol3c
  Nbf            474
  Atoms           42

  Parameters: 
  sigma     1.0000
  eta       1.4281
  alpha     0.2936
  beta      1.9467

  dmp_scal      4.0000
  dmp_exp       6.0000
 cutoffs: 
   distance [bohr] 60.0
   noise    [a.u.] 2.2E-16
 SR-damping   T
 ** gCP correction **
  Egcp:        0.0834139966 / (a.u.) ||      52.3431 / (kcal/mol)
 INFORMATION **** GCP **** NORMAL TERMINATION OF GCP MODULE

 *******************************************************************************

 DFT-D3-GCP DISPERSION AND COUNTERPOISE CORRECTION

 D3 DISPERSION ENERGY (AU)      -4.4671612037176E-02
 GCP ENERGY (AU)                 8.3413996604641E-02
 TOTAL ENERGY + DISP + GCP (AU) -1.2890798892796E+03

 *******************************************************************************

 EIGENVECTORS IN FORTRAN UNIT 10
 TTTTTTTTTTTTTTTTTTTTTTTTTTTTTT END         TELAPSE      122.16 TCPU     3473.07
 EEEEEEEEEE TERMINATION  DATE 19 02 2026 TIME 18:29:58.5
