 Default number of threads is:           32

         
 *******************************************************************************
 *                                                                             *
 *                               CRYSTAL23                                     *
 *                      public : 1.0.1 - October 2022                          *
 *                       HTTP://WWW.CRYSTAL.UNITO.IT                           *
 *                                                                             *
 *                              MAIN AUTHORS                                   *
 *                                                                             *
 *  R. DOVESI(1,11), V.R. SAUNDERS(2), C. ROETTI(1,11), R. ORLANDO(1,11),      *
 *  C.M. ZICOVICH-WILSON(1,3), F. PASCALE(4), B. CIVALLERI(1,11),              *
 *  K. DOLL(5), N.M. HARRISON(6), I.J. BUSH(7), Ph. D'ARCO(8),                 *
 *  M. LLUNELL(9), M. CAUSA'(10), Y. NOEL(8), L. MASCHIO(1,11), A. ERBA(1,11)  *
 *  M. RE'RAT(14), S. CASASSA(1,11), B.G. SEARLE(2), J.K. DESMARAIS(1)         *
 *                                                                             *
 *        CONTRIBUTIONS TO THE CODE HAVE ALSO BEEN GIVEN BY                    *
 *                                                                             *
 *  M. FERRABONE(1,11), M. DE LA PIERRE(1,11), M. FERRERO(1,11),               *
 *  J. BAIMA(1,11), E. ALBANESE(1,11), M.F. PEINTINGER(12), R. BAST(13),       *
 *  B. KIRTMAN(15), V. LACIVITA(1,11), R. DEMICHELIS(1,16)                     *
 *  G. BRANDEBURG(17), S. SALUSTRO(1,11), G. SANSONE(1,11)                     *
 *  M.T. RUGGIERO(18), L.E. DAGA(1), L. DONA'(1), A. COSSARD(1)                *
 *                                                                             *
 * (1) THEORETICAL CHEMISTRY GROUP - UNIVERSITA' DI TORINO - TORINO (ITALY)    *
 * (2) SCIENTIFIC COMPUTING DEPARTMENT - STFC DARESBURY (UK)                   *
 * (3) UNIVERSIDAD AUTONOMA DEL ESTADO DE MORELOS - CUERNAVACA (MEXICO)        *
 * (4) UNIVERSITE' DE LORRAINE - NANCY (FRANCE)                                *
 * (5) UNIVERSITAET STUTTGART- STUTTGART (GERMANY)                             *
 * (6) IMPERIAL COLLEGE - LONDON (UK)                                          *
 * (7) SCIENTIFIC COMPUTING DEPARTMENT - STFC RAL (UK)                         *
 * (8) UPMC - SORBONNE UNIVERSITES - PARIS (FRANCE)                            *
 * (9) UNIVERSIDAD DE BARCELONA - BARCELONA (SPAIN)                            *
 *(10) UNIVERSITA' DI NAPOLI "FEDERICO II" - NAPOLI (ITALY)                    *
 *(11) NIS - NANOSTRUCTURED INTERFACES AND SURFACES - TORINO (ITALY)           *
 *(12) MPI FUER CHEMISCHE ENERGIEKONVERSION - MUELHEIM AN DER RUHR (GERMANY)   *
 *(13) UNIVERSITY OF TROMSO - TROMSO (NORWAY)                                  *
 *(14) UNIVERSITE' DE PAU ET DES PAYS DE L'ADOUR - PAU (FRANCE)                *
 *(15) UNIVERSITY OF CALIFORNIA SANTA BARBARA - SANTA BARBARA (USA)            *
 *(16) CURTIN UNIVERSITY - PERTH (AUSTRALIA)                                   *
 *(17) UNIVERSITY COLLEGE LONDON - LONDON (UK)                                 *
 *(18) UNIVERSITY OF VERMONT - BURLINGTON (USA)                                *
 *                                                                             *
 *******************************************************************************
 EEEEEEEEEE STARTING  DATE 02 12 2025 TIME 08:05:52.6
 COF-5_z44_inc_L070                                                              

 CRYSTAL CALCULATION
 (INPUT ACCORDING TO THE INTERNATIONAL TABLES FOR X-RAY CRYSTALLOGRAPHY)
 CRYSTAL FAMILY                       :  TRICLINIC   
 CRYSTAL CLASS  (GROTH - 1921)        :  TRICLINIC PEDIAL                     

 SPACE GROUP (NONCENTROSYMMETRIC)     :  P 1             

 LATTICE PARAMETERS  (ANGSTROMS AND DEGREES) - CONVENTIONAL CELL
        A           B           C        ALPHA        BETA       GAMMA
    15.02070    15.04439     8.26801    42.87958    89.99962   120.05310


 NUMBER OF IRREDUCIBLE ATOMS IN THE CONVENTIONAL CELL:   42

 INPUT COORDINATES

 ATOM AT. N.              COORDINATES
   1   5     4.806309900000E-01 -4.103885000000E-02  5.006227800000E-01
   2   5     6.394077000000E-01  1.179825000000E-01  5.006327700000E-01
   3   5     4.805615400000E-01  1.184385400000E-01  4.992028900000E-01
   4   5     9.251169000000E-02  3.426676500000E-01  5.054174900000E-01
   5   5     2.499959700000E-01  3.399931300000E-01  5.094611400000E-01
   6   5     2.518769700000E-01  5.025383200000E-01  5.034958600000E-01
   7   1     7.683849100000E-01  3.833919000000E-02  5.045209500000E-01
   8   1    -3.404220000000E-02  4.264606700000E-01  4.929313200000E-01
   9   1     7.716128100000E-01  3.292355300000E-01  4.927930300000E-01
  10   1    -3.705939000000E-02  1.357848500000E-01  5.040895500000E-01
  11   1     4.584471600000E-01  6.321860000000E-01  5.042116000000E-01
  12   1     2.749089900000E-01 -1.672206700000E-01  4.945634500000E-01
  13   1     1.762163500000E-01  6.383650200000E-01  4.958702100000E-01
  14   1     5.570505800000E-01 -1.731234700000E-01  5.023503900000E-01
  15   1     4.597821800000E-01  4.229858900000E-01  4.977675700000E-01
  16   1     2.702386300000E-01  3.692034000000E-02  5.060502000000E-01
  17   1     1.729729600000E-01  1.330379400000E-01  5.056853500000E-01
  18   1     5.573219100000E-01  3.266249000000E-01  4.987009700000E-01
  19   6     7.587676100000E-01  1.775459700000E-01  5.003828000000E-01
  20   6     8.128156500000E-01  1.234201700000E-01  5.021487800000E-01
  21   6    -7.844363000000E-02  3.411928200000E-01  4.957562700000E-01
  22   6     8.144869900000E-01  2.874866800000E-01  4.960934100000E-01
  23   6    -7.998015000000E-02  1.773311300000E-01  5.015051100000E-01
  24   6    -2.489020000000E-02  2.861767900000E-01  4.993219800000E-01
  25   6     3.112800000000E-01  6.227915300000E-01  5.018641700000E-01
  26   6     4.190480600000E-01  6.770638400000E-01  5.022543200000E-01
  27   6     3.140111900000E-01 -2.125549100000E-01  4.969782800000E-01
  28   6     2.595912600000E-01  6.798885600000E-01  4.980968800000E-01
  29   6     4.735189100000E-01 -2.152969900000E-01  5.008170100000E-01
  30   6     4.212773600000E-01 -1.594306800000E-01  4.991928500000E-01
  31   6     3.113929900000E-01  2.847594800000E-01  4.999640200000E-01
  32   6     4.193908700000E-01  3.383109000000E-01  4.994125700000E-01
  33   6     3.113336700000E-01  1.218499500000E-01  5.039358200000E-01
  34   6     2.575961200000E-01  1.752223300000E-01  5.033279200000E-01
  35   6     4.729515100000E-01  2.847419800000E-01  5.003508700000E-01
  36   6     4.198620700000E-01  1.763511500000E-01  5.015926400000E-01
  37   8     4.277920000000E-01  1.233030000000E-02  4.995927300000E-01
  38   8     5.861452800000E-01  1.102029000000E-02  5.025825900000E-01
  39   8     5.869723100000E-01  1.721935400000E-01  4.980631600000E-01
  40   8     1.460751600000E-01  4.499744000000E-01  5.027292600000E-01
  41   8     1.438165500000E-01  2.868879200000E-01  5.102165400000E-01
  42   8     3.042172400000E-01  4.483561300000E-01  5.052008300000E-01

 *******************************************************************************

 << INFORMATION >>: FROM NOW ON, ALL COORDINATES REFER TO THE PRIMITIVE CELL

 *******************************************************************************

 LATTICE PARAMETERS  (ANGSTROMS AND DEGREES) - PRIMITIVE CELL
       A          B          C        ALPHA      BETA     GAMMA        VOLUME
   15.02070   15.04439    8.26801    42.87958  89.99962 120.05310    860.709186

 COORDINATES OF THE EQUIVALENT ATOMS (FRACTIONAL UNITS)

 N. ATOM EQUIV AT. N.          X                  Y                  Z

   1   1   1    5 B     4.80630990000E-01 -4.10388500000E-02 -4.99377220000E-01

   2   2   1    5 B    -3.60592300000E-01  1.17982500000E-01 -4.99367230000E-01

   3   3   1    5 B     4.80561540000E-01  1.18438540000E-01  4.99202890000E-01

   4   4   1    5 B     9.25116900000E-02  3.42667650000E-01 -4.94582510000E-01

   5   5   1    5 B     2.49995970000E-01  3.39993130000E-01 -4.90538860000E-01

   6   6   1    5 B     2.51876970000E-01 -4.97461680000E-01 -4.96504140000E-01

   7   7   1    1 H    -2.31615090000E-01  3.83391900000E-02 -4.95479050000E-01

   8   8   1    1 H    -3.40422000000E-02  4.26460670000E-01  4.92931320000E-01

   9   9   1    1 H    -2.28387190000E-01  3.29235530000E-01  4.92793030000E-01

  10  10   1    1 H    -3.70593900000E-02  1.35784850000E-01 -4.95910450000E-01

  11  11   1    1 H     4.58447160000E-01 -3.67814000000E-01 -4.95788400000E-01

  12  12   1    1 H     2.74908990000E-01 -1.67220670000E-01  4.94563450000E-01

  13  13   1    1 H     1.76216350000E-01 -3.61634980000E-01  4.95870210000E-01

  14  14   1    1 H    -4.42949420000E-01 -1.73123470000E-01 -4.97649610000E-01

  15  15   1    1 H     4.59782180000E-01  4.22985890000E-01  4.97767570000E-01

  16  16   1    1 H     2.70238630000E-01  3.69203400000E-02 -4.93949800000E-01

  17  17   1    1 H     1.72972960000E-01  1.33037940000E-01 -4.94314650000E-01

  18  18   1    1 H    -4.42678090000E-01  3.26624900000E-01  4.98700970000E-01

  19  19   1    6 C    -2.41232390000E-01  1.77545970000E-01 -4.99617200000E-01

  20  20   1    6 C    -1.87184350000E-01  1.23420170000E-01 -4.97851220000E-01

  21  21   1    6 C    -7.84436300000E-02  3.41192820000E-01  4.95756270000E-01

  22  22   1    6 C    -1.85513010000E-01  2.87486680000E-01  4.96093410000E-01

  23  23   1    6 C    -7.99801500000E-02  1.77331130000E-01 -4.98494890000E-01

  24  24   1    6 C    -2.48902000000E-02  2.86176790000E-01  4.99321980000E-01

  25  25   1    6 C     3.11280000000E-01 -3.77208470000E-01 -4.98135830000E-01

  26  26   1    6 C     4.19048060000E-01 -3.22936160000E-01 -4.97745680000E-01

  27  27   1    6 C     3.14011190000E-01 -2.12554910000E-01  4.96978280000E-01

  28  28   1    6 C     2.59591260000E-01 -3.20111440000E-01  4.98096880000E-01

  29  29   1    6 C     4.73518910000E-01 -2.15296990000E-01 -4.99182990000E-01

  30  30   1    6 C     4.21277360000E-01 -1.59430680000E-01  4.99192850000E-01

  31  31   1    6 C     3.11392990000E-01  2.84759480000E-01  4.99964020000E-01

  32  32   1    6 C     4.19390870000E-01  3.38310900000E-01  4.99412570000E-01

  33  33   1    6 C     3.11333670000E-01  1.21849950000E-01 -4.96064180000E-01

  34  34   1    6 C     2.57596120000E-01  1.75222330000E-01 -4.96672080000E-01

  35  35   1    6 C     4.72951510000E-01  2.84741980000E-01 -4.99649130000E-01

  36  36   1    6 C     4.19862070000E-01  1.76351150000E-01 -4.98407360000E-01

  37  37   1    8 O     4.27792000000E-01  1.23303000000E-02  4.99592730000E-01

  38  38   1    8 O    -4.13854720000E-01  1.10202900000E-02 -4.97417410000E-01

  39  39   1    8 O    -4.13027690000E-01  1.72193540000E-01  4.98063160000E-01

  40  40   1    8 O     1.46075160000E-01  4.49974400000E-01 -4.97270740000E-01

  41  41   1    8 O     1.43816550000E-01  2.86887920000E-01 -4.89783460000E-01

  42  42   1    8 O     3.04217240000E-01  4.48356130000E-01 -4.94799170000E-01

 NUMBER OF SYMMETRY OPERATORS         :    1
 *******************************************************************************
 * GEOMETRY EDITING - INPUT COORDINATES ARE GIVEN IN ANGSTROM         
 *******************************************************************************

 GCALCO - MAX INDICES DIRECT LATTICE VECTOR     9    14    23
 NO.OF VECTORS CREATED 6999 STARS 3500 RMAX   218.55376 BOHR

 GEOMETRY FOR WAVE FUNCTION - DIMENSIONALITY OF THE SYSTEM    3
 (NON PERIODIC DIRECTION: LATTICE PARAMETER FORMALLY SET TO 500)
 *******************************************************************************
 LATTICE PARAMETERS (ANGSTROMS AND DEGREES) - BOHR = 0.5291772083 ANGSTROM
 PRIMITIVE CELL - CENTRING CODE 1/0 VOLUME=   860.709186 - DENSITY  0.753 g/cm^3
         A              B              C           ALPHA      BETA       GAMMA 
    15.02070100    15.04438700     8.26801100    42.879585  89.999620 120.053104
 *******************************************************************************
 ATOMS IN THE ASYMMETRIC UNIT   42 - ATOMS IN THE UNIT CELL:   42
     ATOM                 X/A                 Y/B                 Z/C    
 *******************************************************************************
      1 T   5 B     4.806309900000E-01 -4.103885000000E-02 -4.993772200000E-01
      2 T   5 B    -3.605923000000E-01  1.179825000000E-01 -4.993672300000E-01
      3 T   5 B     4.805615400000E-01  1.184385400000E-01  4.992028900000E-01
      4 T   5 B     9.251169000000E-02  3.426676500000E-01 -4.945825100000E-01
      5 T   5 B     2.499959700000E-01  3.399931300000E-01 -4.905388600000E-01
      6 T   5 B     2.518769700000E-01 -4.974616800000E-01 -4.965041400000E-01
      7 T   1 H    -2.316150900000E-01  3.833919000000E-02 -4.954790500000E-01
      8 T   1 H    -3.404220000000E-02  4.264606700000E-01  4.929313200000E-01
      9 T   1 H    -2.283871900000E-01  3.292355300000E-01  4.927930300000E-01
     10 T   1 H    -3.705939000000E-02  1.357848500000E-01 -4.959104500000E-01
     11 T   1 H     4.584471600000E-01 -3.678140000000E-01 -4.957884000000E-01
     12 T   1 H     2.749089900000E-01 -1.672206700000E-01  4.945634500000E-01
     13 T   1 H     1.762163500000E-01 -3.616349800000E-01  4.958702100000E-01
     14 T   1 H    -4.429494200000E-01 -1.731234700000E-01 -4.976496100000E-01
     15 T   1 H     4.597821800000E-01  4.229858900000E-01  4.977675700000E-01
     16 T   1 H     2.702386300000E-01  3.692034000000E-02 -4.939498000000E-01
     17 T   1 H     1.729729600000E-01  1.330379400000E-01 -4.943146500000E-01
     18 T   1 H    -4.426780900000E-01  3.266249000000E-01  4.987009700000E-01
     19 T   6 C    -2.412323900000E-01  1.775459700000E-01 -4.996172000000E-01
     20 T   6 C    -1.871843500000E-01  1.234201700000E-01 -4.978512200000E-01
     21 T   6 C    -7.844363000000E-02  3.411928200000E-01  4.957562700000E-01
     22 T   6 C    -1.855130100000E-01  2.874866800000E-01  4.960934100000E-01
     23 T   6 C    -7.998015000000E-02  1.773311300000E-01 -4.984948900000E-01
     24 T   6 C    -2.489020000000E-02  2.861767900000E-01  4.993219800000E-01
     25 T   6 C     3.112800000000E-01 -3.772084700000E-01 -4.981358300000E-01
     26 T   6 C     4.190480600000E-01 -3.229361600000E-01 -4.977456800000E-01
     27 T   6 C     3.140111900000E-01 -2.125549100000E-01  4.969782800000E-01
     28 T   6 C     2.595912600000E-01 -3.201114400000E-01  4.980968800000E-01
     29 T   6 C     4.735189100000E-01 -2.152969900000E-01 -4.991829900000E-01
     30 T   6 C     4.212773600000E-01 -1.594306800000E-01  4.991928500000E-01
     31 T   6 C     3.113929900000E-01  2.847594800000E-01  4.999640200000E-01
     32 T   6 C     4.193908700000E-01  3.383109000000E-01  4.994125700000E-01
     33 T   6 C     3.113336700000E-01  1.218499500000E-01 -4.960641800000E-01
     34 T   6 C     2.575961200000E-01  1.752223300000E-01 -4.966720800000E-01
     35 T   6 C     4.729515100000E-01  2.847419800000E-01 -4.996491300000E-01
     36 T   6 C     4.198620700000E-01  1.763511500000E-01 -4.984073600000E-01
     37 T   8 O     4.277920000000E-01  1.233030000000E-02  4.995927300000E-01
     38 T   8 O    -4.138547200000E-01  1.102029000000E-02 -4.974174100000E-01
     39 T   8 O    -4.130276900000E-01  1.721935400000E-01  4.980631600000E-01
     40 T   8 O     1.460751600000E-01  4.499744000000E-01 -4.972707400000E-01
     41 T   8 O     1.438165500000E-01  2.868879200000E-01 -4.897834600000E-01
     42 T   8 O     3.042172400000E-01  4.483561300000E-01 -4.947991700000E-01

 T = ATOM BELONGING TO THE ASYMMETRIC UNIT

 ****    1 SYMMOPS - TRANSLATORS IN FRACTIONAL UNITS
 **** MATRICES AND TRANSLATORS IN THE CRYSTALLOGRAPHIC REFERENCE FRAME
   V INV                    ROTATION MATRICES                   TRANSLATORS
   1   1  1.00 -0.00  0.00  0.00  1.00  0.00 -0.00 -0.00  1.00  0.00  0.00  0.00

 DIRECT LATTICE VECTORS CARTESIAN COMPONENTS (ANGSTROM)
          X                    Y                    Z
   0.130013421718E+02  -0.752240388864E+01   0.000000000000E+00
   0.000000000000E+00   0.150443870000E+02   0.000000000000E+00
   0.350553381862E+01   0.605867774148E+01   0.440041618117E+01


 CARTESIAN COORDINATES - PRIMITIVE CELL
 *******************************************************************************
 *      ATOM          X(ANGSTROM)         Y(ANGSTROM)         Z(ANGSTROM)
 *******************************************************************************
    1     5 B     9.927304077700E-01  1.727238841485E+00 -6.597883780561E+00
    2     5 B    -6.438732589482E+00  1.461990187734E+00 -2.197423639237E+00
    3     5 B    -1.497890723771E+00 -2.719386974989E-01  6.597116656008E+00
    4     5 B    -5.309995783239E-01  1.462798397715E+00 -2.176368879926E+00
    5     5 B     1.530682584457E+00  2.624006957734E-01 -2.158575137035E+00
    6     5 B     1.534226618305E+00  2.657502088250E+00 -2.184824851672E+00
    7     1 H    -4.748225603429E+00 -6.828560262960E-01 -2.180314029049E+00
    8     1 H    -2.220140696583E+00  3.599752812497E+00 -2.231313224435E+00
    9     1 H    -1.241837372595E+00 -5.387545424338E+00  2.168494423178E+00
   10     1 H    -2.220252663549E+00 -6.829860736008E-01 -2.182212368590E+00
   11     1 H     4.222425391758E+00  3.058403997295E+00 -2.181675297795E+00
   12     1 H     5.307894744515E+00 -1.587308363011E+00  2.176285007994E+00
   13     1 H     5.238050347923E-01  5.223879914168E+00 -2.218380885324E+00
   14     1 H    -3.997930693267E+00  3.771087084336E+00  2.210550784772E+00
   15     1 H     4.217192678491E+00 -1.379682787534E-01 -2.210031711679E+00
   16     1 H     1.781907168061E+00 -4.470082896712E+00 -2.173584692604E+00
   17     1 H     5.160439168102E-01 -2.294591379136E+00 -2.175190184448E+00
   18     1 H    -4.007196204324E+00 -3.779043748335E+00  2.194491817952E+00
   19     6 C    -4.887769836269E+00  1.458698142670E+00 -2.198523611269E+00
   20     6 C    -4.178882071902E+00  2.485369782340E-01 -2.190752564302E+00
   21     6 C    -2.787515923168E+00  2.668071229819E+00 -2.218882268744E+00
   22     6 C    -4.178379712996E+00  2.667557018463E+00 -2.217398712433E+00
   23     6 C    -2.787339992404E+00  2.492612439549E-01 -2.193584980185E+00
   24     6 C    -2.078749738274E+00  1.459141741022E+00 -2.203191660763E+00
   25     6 C     2.300825792898E+00  4.009898449729E+00 -2.192004966751E+00
   26     6 C     3.703322900166E+00  4.018081004258E+00 -2.190288144378E+00
   27     6 C     5.824741094615E+00 -2.548846078486E+00  2.186911265001E+00
   28     6 C     1.615596435231E+00  5.234887048306E+00 -2.208582610626E+00
   29     6 C    -5.089329832563E+00  3.755681032261E+00  2.203803274608E+00
   30     6 C     3.721574705650E+00  6.442602566865E+00 -2.203759886504E+00
   31     6 C     2.295633774465E+00 -1.087948881800E+00 -2.200366417558E+00
   32     6 C     3.697818039547E+00 -1.098045325238E+00 -2.202793027061E+00
   33     6 C     2.308785814068E+00 -3.514312811856E+00 -2.182888844569E+00
   34     6 C     1.607994525037E+00 -2.310805587138E+00 -2.185563857566E+00
   35     6 C     4.397467489508E+00 -2.301176798180E+00 -2.198664116558E+00
   36     6 C     3.711586581090E+00 -3.524966697790E+00 -2.193199811757E+00
   37     8 O    -2.182598972255E+00 -1.468956416119E+00  6.598832114252E+00
   38     8 O     2.371427976305E+00  1.728589442353E+00 -6.589259800925E+00
   39     8 O    -1.184032542986E-01 -2.705977211376E-01  6.592101369674E+00
   40     8 O     1.559737418764E-01  2.657949498145E+00 -2.188198210717E+00
   41     8 O     1.528556936833E-01  2.667665718848E-01 -2.155251062652E+00
   42     8 O     2.220697207933E+00  1.458969466590E+00 -2.177322274096E+00

 *******************************************************************************
 STARTING BASIS SET HANDLING 
 *******************************************************************************

 Loading internal basis set: SOLDEF2MSVP         

 Please cite in your publication:
 L. Dona', J. G. Brandenburg and B. Civalleri, J. Chem. Phys., 151, 121101 (2019
 )                                                                              
                                                                                
                    

 *******************************************************************************
 LOCAL ATOMIC FUNCTIONS BASIS SET
 *******************************************************************************
   ATOM   X(AU)   Y(AU)   Z(AU)  N. TYPE  EXPONENT  S COEF   P COEF   D/F/G COEF
 *******************************************************************************
   1 B    1.876   3.264 -12.468
                                  1 S  
                                         2.410E+03 1.755E-03 0.000E+00 0.000E+00
                                         3.619E+02 1.344E-02 0.000E+00 0.000E+00
                                         8.231E+01 6.637E-02 0.000E+00 0.000E+00
                                         2.311E+01 2.303E-01 0.000E+00 0.000E+00
                                         7.252E+00 5.150E-01 0.000E+00 0.000E+00
                                  2 S  
                                         2.367E+00 1.000E+00 0.000E+00 0.000E+00
                                  3 S  
                                         5.533E-01 1.000E+00 0.000E+00 0.000E+00
                                  4 S  
                                         1.716E-01 1.000E+00 0.000E+00 0.000E+00
                           5-     7 P  
                                         6.002E+00 0.000E+00-3.555E-02 0.000E+00
                                         1.240E+00 0.000E+00-1.983E-01 0.000E+00
                                         3.367E-01 0.000E+00-5.048E-01 0.000E+00
                           8-    10 P  
                                         1.256E-01 0.000E+00 1.000E+00 0.000E+00
                          11-    15 D  
                                         8.880E-01 0.000E+00 0.000E+00 1.000E+00
   2 B  -12.167   2.763  -4.153
   3 B   -2.831  -0.514  12.467
   4 B   -1.003   2.764  -4.113
   5 B    2.893   0.496  -4.079
   6 B    2.899   5.022  -4.129
   7 H   -8.973  -1.290  -4.120
                                 91 S  
                                         1.874E+01 1.968E-02 0.000E+00 0.000E+00
                                         2.826E+00 1.380E-01 0.000E+00 0.000E+00
                                         6.401E-01 4.783E-01 0.000E+00 0.000E+00
                                 92 S  
                                         1.756E-01 1.000E+00 0.000E+00 0.000E+00
   8 H   -4.195   6.803  -4.217
   9 H   -2.347 -10.181   4.098
  10 H   -4.196  -1.291  -4.124
  11 H    7.979   5.780  -4.123
  12 H   10.030  -3.000   4.113
  13 H    0.990   9.872  -4.192
  14 H   -7.555   7.126   4.177
  15 H    7.969  -0.261  -4.176
  16 H    3.367  -8.447  -4.107
  17 H    0.975  -4.336  -4.111
  18 H   -7.573  -7.141   4.147
  19 C   -9.237   2.757  -4.155
                                115 S  
                                         3.624E+03 1.634E-03 0.000E+00 0.000E+00
                                         5.440E+02 1.252E-02 0.000E+00 0.000E+00
                                         1.237E+02 6.211E-02 0.000E+00 0.000E+00
                                         3.476E+01 2.182E-01 0.000E+00 0.000E+00
                                         1.093E+01 4.980E-01 0.000E+00 0.000E+00
                                116 S  
                                         3.574E+00 1.000E+00 0.000E+00 0.000E+00
                                117 S  
                                         7.742E-01 1.000E+00 0.000E+00 0.000E+00
                                118 S  
                                         2.330E-01 1.000E+00 0.000E+00 0.000E+00
                         119-   121 P  
                                         9.443E+00 0.000E+00 3.790E-02 0.000E+00
                                         2.002E+00 0.000E+00 2.082E-01 0.000E+00
                                         5.463E-01 0.000E+00 5.047E-01 0.000E+00
                         122-   124 P  
                                         1.820E-01 0.000E+00 1.000E+00 0.000E+00
                         125-   129 D  
                                         8.880E-01 0.000E+00 0.000E+00 1.000E+00
  20 C   -7.897   0.470  -4.140
  21 C   -5.268   5.042  -4.193
  22 C   -7.896   5.041  -4.190
  23 C   -5.267   0.471  -4.145
  24 C   -3.928   2.757  -4.163
  25 C    4.348   7.578  -4.142
  26 C    6.998   7.593  -4.139
  27 C   11.007  -4.817   4.133
  28 C    3.053   9.893  -4.174
  29 C   -9.617   7.097   4.165
  30 C    7.033  12.175  -4.165
  31 C    4.338  -2.056  -4.158
  32 C    6.988  -2.075  -4.163
  33 C    4.363  -6.641  -4.125
  34 C    3.039  -4.367  -4.130
  35 C    8.310  -4.349  -4.155
  36 C    7.014  -6.661  -4.145
  37 O   -4.125  -2.776  12.470
                                385 S  
                                         6.773E+03 1.727E-03 0.000E+00 0.000E+00
                                         1.017E+03 1.325E-02 0.000E+00 0.000E+00
                                         2.313E+02 6.603E-02 0.000E+00 0.000E+00
                                         6.501E+01 2.353E-01 0.000E+00 0.000E+00
                                         2.050E+01 5.498E-01 0.000E+00 0.000E+00
                                386 S  
                                         6.716E+00 1.000E+00 0.000E+00 0.000E+00
                                387 S  
                                         1.147E+00 1.000E+00 0.000E+00 0.000E+00
                                388 S  
                                         3.342E-01 1.000E+00 0.000E+00 0.000E+00
                         389-   391 P  
                                         1.769E+01 0.000E+00 4.359E-02 0.000E+00
                                         3.854E+00 0.000E+00 2.318E-01 0.000E+00
                                         1.047E+00 0.000E+00 5.146E-01 0.000E+00
                         392-   394 P  
                                         2.759E-01 0.000E+00 1.000E+00 0.000E+00
                         395-   399 D  
                                         8.000E-01 0.000E+00 0.000E+00 1.000E+00
  38 O    4.481   3.267 -12.452
  39 O   -0.224  -0.511  12.457
  40 O    0.295   5.023  -4.135
  41 O    0.289   0.504  -4.073
  42 O    4.197   2.757  -4.115

 *******************************************************************************
 FINISHED BASIS SET HANDLING 
 *******************************************************************************

 INFORMATION **** SET_MPP **** PCRYSTAL CALCULATION
 INFORMATION **** READM2 **** NEW DEFAULT: FOCK/KS MATRIX MIXING SET TO 30 %
 INFORMATION **** READM2 **** NEW DEFAULT: FULL DIRECT SCF MODE
 INFORMATION **** READM2 **** NEW DEFAULT: COULOMB BIPOLAR BUFFER SET TO 32 Mb
 INFORMATION **** READM2 **** NEW DEFAULT: EXCHANGE BIPOLAR BUFFER SET TO 32 Mb

 *******************************************************************************
 NEW DEFAULT: DFT INTEGRATION GRID INCREASED TO XLGRID
 NEW DEFAULT: DIIS ACCELERATOR ACTIVE
 USE KEYWORD NODIIS TO TURN IT OFF
 *******************************************************************************

 WARNING **** RDDFTP **** HSEsol-HJS ACTIVE
 RANGE SEPARATION - OMEGA:   0.110000000000000     
 WARNING **** RDDFTP **** HSEsol-3c has to be combined with sol-def2-mSVP basis set
 *******************************************************************************
 N. OF ATOMS PER CELL        42  COULOMB OVERLAP TOL         (T1) 10**   -6
 NUMBER OF SHELLS           234  COULOMB PENETRATION TOL     (T2) 10**   -6
 NUMBER OF AO               474  EXCHANGE OVERLAP TOL        (T3) 10**   -6
 N. OF ELECTRONS PER CELL   198  EXCHANGE PSEUDO OVP (F(G))  (T4) 10**   -6
 CORE ELECTRONS PER CELL     60  EXCHANGE PSEUDO OVP (P(G))  (T5) 10**  -12
 N. OF SYMMETRY OPERATORS     1  POLE ORDER IN MONO ZONE                  4
 *******************************************************************************
 TYPE OF CALCULATION :  RESTRICTED CLOSED SHELL
 KOHN-SHAM HAMILTONIAN

 (EXCHANGE)[CORRELATION] FUNCTIONAL:(HSEsol GGA)[PBEsol]

 RANGE-SEPARATED HYBRID FUNCTIONAL 
 OMEGA (SHORT-RANGE)[LONG-RANGE]:(    0.1100)[    0.0000]

 HYBRID EXCHANGE - PERCENTAGE OF FOCK EXCHANGE    25.0000

 CAPPA:IS1  2;IS2  2;IS3  8; K PTS MONK NET  20; SYMMOPS:K SPACE   2;G SPACE   1

 *******************************************************************************
 MAX NUMBER OF SCF CYCLES      50  CONVERGENCE ON DELTAP        10**-16
 WEIGHT OF F(I) IN F(I+1)      30% CONVERGENCE ON ENERGY        10**- 6
 SHRINK. FACT.(MONKH.)    2  2  8  NUMBER OF K POINTS IN THE IBZ     20
 SHRINKING FACTOR(GILAT NET)    8  NUMBER OF K POINTS(GILAT NET)   1028
 *******************************************************************************
 *** K POINTS COORDINATES (OBLIQUE COORDINATES IN UNITS OF IS =  2)
   1-R(  0  0  0)   2-R(  1  0  0)   3-R(  0  1  0)   4-R(  1  1  0)
   5-C(  0  0  1)   6-C(  1  0  1)   7-C(  0  1  1)   8-C(  1  1  1)
   9-C(  0  0  2)  10-C(  1  0  2)  11-C(  0  1  2)  12-C(  1  1  2)
  13-C(  0  0  3)  14-C(  1  0  3)  15-C(  0  1  3)  16-C(  1  1  3)
  17-R(  0  0  4)  18-R(  1  0  4)  19-R(  0  1  4)  20-R(  1  1  4)

 DIRECT LATTICE VECTORS COMPON. (A.U.)     RECIP. LATTICE VECTORS COMPON. (A.U.) 
        X            Y            Z              X            Y            Z
   24.5689761  -14.2152832    0.0000000      0.2557366    0.0000000   -0.2037292
    0.0000000   28.4297713    0.0000000      0.1278719    0.2210072   -0.4061595
    6.6244989   11.4492417    8.3155815      0.0000000    0.0000000    0.7555918

 DISK SPACE FOR EIGENVECTORS (FTN 10)     7189632 REALS

 SYMMETRY ADAPTION OF THE BLOCH FUNCTIONS DISABLED
 TTTTTTTTTTTTTTTTTTTTTTTTTTTTTT gordsh1     TELAPSE        0.04 TCPU        0.04

 MATRIX SIZE: P(G)  271790, F(G)   53576, P(G) IRR  136954, F(G) IRR   54056
 MAX G-VECTOR INDEX FOR 1- AND 2-ELECTRON INTEGRALS  61

 TTTTTTTTTTTTTTTTTTTTTTTTTTTTTT INPUT       TELAPSE        0.38 TCPU        0.37

 NEIGHBORS OF THE NON-EQUIVALENT ATOMS

 N = NUMBER OF NEIGHBORS AT DISTANCE R
    ATOM  N     R/ANG      R/AU   NEIGHBORS (ATOM LABELS AND CELL INDICES)
   1 B    1     1.3787     2.6054   38 O    0 0 0
   1 B    1     1.3795     2.6068   37 O    1 2-3
   1 B    1     1.5517     2.9323   30 C    0 0-1
   1 B    1     2.3868     4.5104    2 B    1 1-1
   1 B    1     2.3912     4.5187    3 B    1 2-3
   1 B    1     2.5629     4.8432   27 C    0 1-2

   2 B    1     1.3792     2.6064   38 O   -1-1 1
   2 B    1     1.3798     2.6075   39 O    0 1-2
   2 B    1     1.5510     2.9309   19 C    0 0 0
   2 B    1     2.3868     4.5104    1 B   -1-1 1
   2 B    1     2.3894     4.5154    3 B    0 1-2
   2 B    1     2.5618     4.8412   22 C    0 0 0

   3 B    1     1.3790     2.6060   37 O    0 0 0
   3 B    1     1.3795     2.6069   39 O    0 0 0
   3 B    1     1.5529     2.9346   36 C   -1-1 2
   3 B    1     2.3894     4.5154    2 B    0-1 2
   3 B    1     2.3912     4.5187    1 B   -1-2 3
   3 B    1     2.5679     4.8526   35 C   -1-1 2

   4 B    1     1.3779     2.6038   41 O    0 0 0
   4 B    1     1.3786     2.6051   40 O    0 0 0
   4 B    1     1.5480     2.9253   24 C    0 0 0
   4 B    1     2.3858     4.5084    5 B    0 0 0
   4 B    1     2.3859     4.5087    6 B    0 0 0
   4 B    1     2.5586     4.8350   21 C    0 0 0

   5 B    1     1.3778     2.6037   41 O    0 0 0
   5 B    1     1.3814     2.6105   42 O    0 0 0
   5 B    1     1.5525     2.9339   31 C    0 0 0
   5 B    1     2.3858     4.5084    4 B    0 0 0
   5 B    1     2.3952     4.5264    6 B    0 0 0
   5 B    1     2.5591     4.8361   32 C    0 0 0

   6 B    1     1.3783     2.6045   40 O    0 0 0
   6 B    1     1.3812     2.6101   42 O    0 0 0
   6 B    1     1.5546     2.9377   25 C    0 0 0
   6 B    1     2.3859     4.5087    4 B    0 0 0
   6 B    1     2.3952     4.5264    5 B    0 0 0
   6 B    1     2.5605     4.8387   26 C    0 0 0

   7 H    1     1.0917     2.0630   20 C    0 0 0
   7 H    1     2.1462     4.0557   19 C    0 0 0
   7 H    1     2.1712     4.1030   23 C    0 0 0
   7 H    1     2.5280     4.7772   10 H    0 0 0
   7 H    1     2.5583     4.8346   38 O   -1-1 1
   7 H    1     2.7310     5.1609    2 B    0 0 0

   8 H    1     1.0909     2.0615   21 C    0 0 0
   8 H    1     2.1455     4.0543   24 C    0 0 0
   8 H    1     2.1688     4.0985   22 C    0 0 0
   8 H    1     2.5272     4.7758    9 H    0 1-1
   8 H    1     2.5563     4.8307   40 O    0 0 0
   8 H    1     2.7245     5.1485    4 B    0 0 0

   9 H    1     1.0909     2.0614   22 C    0-1 1
   9 H    1     2.1443     4.0522   19 C    0-1 1
   9 H    1     2.1694     4.0996   21 C    0-1 1
   9 H    1     2.5272     4.7758    8 H    0-1 1
   9 H    1     2.5616     4.8407   39 O    0 0-1
   9 H    1     2.7249     5.1493    2 B    0-1 1

  10 H    1     1.0912     2.0621   23 C    0 0 0
  10 H    1     2.1469     4.0571   24 C    0 0 0
  10 H    1     2.1689     4.0986   20 C    0 0 0
  10 H    1     2.5280     4.7772    7 H    0 0 0
  10 H    1     2.5562     4.8306   41 O    0 0 0
  10 H    1     2.7309     5.1607    4 B    0 0 0

  11 H    1     1.0911     2.0619   26 C    0 0 0
  11 H    1     2.1443     4.0521   25 C    0 0 0
  11 H    1     2.1685     4.0978   29 C    1 1-1
  11 H    1     2.5223     4.7664   14 H    1 1-1
  11 H    1     2.5623     4.8420   42 O    0 0 0
  11 H    1     2.7179     5.1361    6 B    0 0 0

  12 H    1     1.0917     2.0630   27 C    0 0 0
  12 H    1     2.1441     4.0518   30 C    0-1 1
  12 H    1     2.1716     4.1038   28 C    0-1 1
  12 H    1     2.5226     4.7669   13 H    0-1 1
  12 H    1     2.5541     4.8265   37 O    1 1-1
  12 H    1     2.7237     5.1471    1 B    0-1 2

  13 H    1     1.0919     2.0634   28 C    0 0 0
  13 H    1     2.1523     4.0672   25 C    0 0 0
  13 H    1     2.1668     4.0946   27 C    0 1-1
  13 H    1     2.5226     4.7669   12 H    0 1-1
  13 H    1     2.5923     4.8988   40 O    0 0 0
  13 H    1     2.7583     5.2125    6 B    0 0 0

  14 H    1     1.0915     2.0627   29 C    0 0 0
  14 H    1     2.1483     4.0597   30 C   -1-1 1
  14 H    1     2.1679     4.0968   26 C   -1-1 1
  14 H    1     2.5223     4.7664   11 H   -1-1 1
  14 H    1     2.5809     4.8771   38 O   -1-1 2
  14 H    1     2.7404     5.1785    1 B   -1-1 2

  15 H    1     1.0916     2.0628   32 C    0 0 0
  15 H    1     2.1436     4.0508   31 C    0 0 0
  15 H    1     2.1707     4.1021   35 C    0 0 0
  15 H    1     2.5217     4.7654   18 H    1 1-1
  15 H    1     2.5568     4.8317   42 O    0 0 0
  15 H    1     2.7167     5.1338    5 B    0 0 0

  16 H    1     1.0914     2.0625   33 C    0 0 0
  16 H    1     2.1488     4.0606   36 C    0 0 0
  16 H    1     2.1663     4.0937   34 C    0 0 0
  16 H    1     2.5170     4.7564   17 H    0 0 0
  16 H    1     2.5780     4.8717   37 O    1 1-2
  16 H    1     2.7396     5.1771    3 B    1 1-2

  17 H    1     1.0921     2.0638   34 C    0 0 0
  17 H    1     2.1502     4.0634   31 C    0 0 0
  17 H    1     2.1683     4.0976   33 C    0 0 0
  17 H    1     2.5170     4.7564   16 H    0 0 0
  17 H    1     2.5871     4.8888   41 O    0 0 0
  17 H    1     2.7510     5.1986    5 B    0 0 0

  18 H    1     1.0913     2.0622   35 C   -1-1 1
  18 H    1     2.1495     4.0619   36 C   -1-1 1
  18 H    1     2.1656     4.0924   32 C   -1-1 1
  18 H    1     2.5217     4.7654   15 H   -1-1 1
  18 H    1     2.5789     4.8734   39 O    0 0-1
  18 H    1     2.7392     5.1763    3 B    0 0-1

  19 C    1     1.4018     2.6489   22 C    0 0 0
  19 C    1     1.4025     2.6504   20 C    0 0 0
  19 C    1     1.5510     2.9309    2 B    0 0 0
  19 C    1     2.1443     4.0522    9 H    0 1-1
  19 C    1     2.1462     4.0557    7 H    0 0 0
  19 C    1     2.4236     4.5800   21 C    0 0 0

  20 C    1     1.0917     2.0630    7 H    0 0 0
  20 C    1     1.3915     2.6296   23 C    0 0 0
  20 C    1     1.4025     2.6504   19 C    0 0 0
  20 C    1     2.1689     4.0986   10 H    0 0 0
  20 C    1     2.4192     4.5716   22 C    0 0 0
  20 C    1     2.4241     4.5809   24 C    0 0 0

  21 C    1     1.0909     2.0615    8 H    0 0 0
  21 C    1     1.3909     2.6284   22 C    0 0 0
  21 C    1     1.4015     2.6484   24 C    0 0 0
  21 C    1     2.1694     4.0996    9 H    0 1-1
  21 C    1     2.4189     4.5711   23 C    0 0 0
  21 C    1     2.4236     4.5800   19 C    0 0 0

  22 C    1     1.0909     2.0614    9 H    0 1-1
  22 C    1     1.3909     2.6284   21 C    0 0 0
  22 C    1     1.4018     2.6489   19 C    0 0 0
  22 C    1     2.1688     4.0985    8 H    0 0 0
  22 C    1     2.4192     4.5716   20 C    0 0 0
  22 C    1     2.4226     4.5780   24 C    0 0 0

  23 C    1     1.0912     2.0621   10 H    0 0 0
  23 C    1     1.3915     2.6296   20 C    0 0 0
  23 C    1     1.4021     2.6497   24 C    0 0 0
  23 C    1     2.1712     4.1030    7 H    0 0 0
  23 C    1     2.4189     4.5711   21 C    0 0 0
  23 C    1     2.4238     4.5802   19 C    0 0 0

  24 C    1     1.4015     2.6484   21 C    0 0 0
  24 C    1     1.4021     2.6497   23 C    0 0 0
  24 C    1     1.5480     2.9253    4 B    0 0 0
  24 C    1     2.1455     4.0543    8 H    0 0 0
  24 C    1     2.1469     4.0571   10 H    0 0 0
  24 C    1     2.4226     4.5780   22 C    0 0 0

  25 C    1     1.4025     2.6504   26 C    0 0 0
  25 C    1     1.4037     2.6526   28 C    0 0 0
  25 C    1     1.5546     2.9377    6 B    0 0 0
  25 C    1     2.1443     4.0521   11 H    0 0 0
  25 C    1     2.1523     4.0672   13 H    0 0 0
  25 C    1     2.4271     4.5866   27 C    0 1-1

  26 C    1     1.0911     2.0619   11 H    0 0 0
  26 C    1     1.3916     2.6298   29 C    1 1-1
  26 C    1     1.4025     2.6504   25 C    0 0 0
  26 C    1     2.1679     4.0968   14 H    1 1-1
  26 C    1     2.4165     4.5666   28 C    0 0 0
  26 C    1     2.4246     4.5819   30 C    0 0 0

  27 C    1     1.0917     2.0630   12 H    0 0 0
  27 C    1     1.3928     2.6320   28 C    0-1 1
  27 C    1     1.4024     2.6502   30 C    0-1 1
  27 C    1     2.1668     4.0946   13 H    0-1 1
  27 C    1     2.4167     4.5668   29 C    1 0 0
  27 C    1     2.4271     4.5866   25 C    0-1 1

  28 C    1     1.0919     2.0634   13 H    0 0 0
  28 C    1     1.3928     2.6320   27 C    0 1-1
  28 C    1     1.4037     2.6526   25 C    0 0 0
  28 C    1     2.1716     4.1038   12 H    0 1-1
  28 C    1     2.4165     4.5666   26 C    0 0 0
  28 C    1     2.4277     4.5877   30 C    0 0 0

  29 C    1     1.0915     2.0627   14 H    0 0 0
  29 C    1     1.3916     2.6298   26 C   -1-1 1
  29 C    1     1.4023     2.6499   30 C   -1-1 1
  29 C    1     2.1685     4.0978   11 H   -1-1 1
  29 C    1     2.4167     4.5668   27 C   -1 0 0
  29 C    1     2.4281     4.5885   25 C   -1-1 1

  30 C    1     1.4023     2.6499   29 C    1 1-1
  30 C    1     1.4024     2.6502   27 C    0 1-1
  30 C    1     1.5517     2.9323    1 B    0 0 1
  30 C    1     2.1441     4.0518   12 H    0 1-1
  30 C    1     2.1483     4.0597   14 H    1 1-1
  30 C    1     2.4246     4.5819   26 C    0 0 0

  31 C    1     1.4022     2.6498   32 C    0 0 0
  31 C    1     1.4030     2.6513   34 C    0 0 0
  31 C    1     1.5525     2.9339    5 B    0 0 0
  31 C    1     2.1436     4.0508   15 H    0 0 0
  31 C    1     2.1502     4.0634   17 H    0 0 0
  31 C    1     2.4265     4.5853   33 C    0 0 0

  32 C    1     1.0916     2.0628   15 H    0 0 0
  32 C    1     1.3918     2.6301   35 C    0 0 0
  32 C    1     1.4022     2.6498   31 C    0 0 0
  32 C    1     2.1656     4.0924   18 H    1 1-1
  32 C    1     2.4163     4.5661   34 C    0 0 0
  32 C    1     2.4270     4.5863   36 C    0 0 0

  33 C    1     1.0914     2.0625   16 H    0 0 0
  33 C    1     1.3927     2.6318   34 C    0 0 0
  33 C    1     1.4029     2.6511   36 C    0 0 0
  33 C    1     2.1683     4.0976   17 H    0 0 0
  33 C    1     2.4155     4.5646   35 C    0 0 0
  33 C    1     2.4265     4.5853   31 C    0 0 0

  34 C    1     1.0921     2.0638   17 H    0 0 0
  34 C    1     1.3927     2.6318   33 C    0 0 0
  34 C    1     1.4030     2.6513   31 C    0 0 0
  34 C    1     2.1663     4.0937   16 H    0 0 0
  34 C    1     2.4163     4.5661   32 C    0 0 0
  34 C    1     2.4289     4.5899   36 C    0 0 0

  35 C    1     1.0913     2.0622   18 H    1 1-1
  35 C    1     1.3918     2.6301   32 C    0 0 0
  35 C    1     1.4029     2.6511   36 C    0 0 0
  35 C    1     2.1707     4.1021   15 H    0 0 0
  35 C    1     2.4155     4.5646   33 C    0 0 0
  35 C    1     2.4269     4.5861   31 C    0 0 0

  36 C    1     1.4029     2.6511   33 C    0 0 0
  36 C    1     1.4029     2.6511   35 C    0 0 0
  36 C    1     1.5529     2.9346    3 B    1 1-2
  36 C    1     2.1488     4.0606   16 H    0 0 0
  36 C    1     2.1495     4.0619   18 H    1 1-1
  36 C    1     2.4270     4.5863   32 C    0 0 0

  37 O    1     1.3790     2.6060    3 B    0 0 0
  37 O    1     1.3795     2.6068    1 B   -1-2 3
  37 O    1     2.3868     4.5105   39 O    0 0 0
  37 O    1     2.3885     4.5136   38 O   -1-2 3
  37 O    1     2.5389     4.7979   30 C   -1-2 2
  37 O    1     2.5412     4.8022   36 C   -1-1 2

  38 O    1     1.3787     2.6054    1 B    0 0 0
  38 O    1     1.3792     2.6064    2 B    1 1-1
  38 O    1     2.3885     4.5136   37 O    1 2-3
  38 O    1     2.3912     4.5188   39 O    1 2-3
  38 O    1     2.5351     4.7907   19 C    1 1-1
  38 O    1     2.5405     4.8008   30 C    0 0-1

  39 O    1     1.3795     2.6069    3 B    0 0 0
  39 O    1     1.3798     2.6075    2 B    0-1 2
  39 O    1     2.3868     4.5105   37 O    0 0 0
  39 O    1     2.3912     4.5188   38 O   -1-2 3
  39 O    1     2.5416     4.8030   19 C    0-1 2
  39 O    1     2.5427     4.8050   36 C   -1-1 2

  40 O    1     1.3783     2.6045    6 B    0 0 0
  40 O    1     1.3786     2.6051    4 B    0 0 0
  40 O    1     2.3876     4.5120   42 O    0 0 0
  40 O    1     2.3914     4.5191   41 O    0 0 0
  40 O    1     2.5354     4.7912   25 C    0 0 0
  40 O    1     2.5360     4.7924   24 C    0 0 0

  41 O    1     1.3778     2.6037    5 B    0 0 0
  41 O    1     1.3779     2.6038    4 B    0 0 0
  41 O    1     2.3870     4.5108   42 O    0 0 0
  41 O    1     2.3914     4.5191   40 O    0 0 0
  41 O    1     2.5306     4.7822   24 C    0 0 0
  41 O    1     2.5355     4.7914   31 C    0 0 0

  42 O    1     1.3812     2.6101    6 B    0 0 0
  42 O    1     1.3814     2.6105    5 B    0 0 0
  42 O    1     2.3870     4.5108   41 O    0 0 0
  42 O    1     2.3876     4.5120   40 O    0 0 0
  42 O    1     2.5481     4.8153   31 C    0 0 0
  42 O    1     2.5522     4.8230   25 C    0 0 0


 SYMMETRY ALLOWED INTERNAL DEGREE(S) OF FREEDOM: 123
 TTTTTTTTTTTTTTTTTTTTTTTTTTTTTT SYMM        TELAPSE        0.38 TCPU        0.38
 TTTTTTTTTTTTTTTTTTTTTTTTTTTTTT INT_SCREEN  TELAPSE        0.41 TCPU        0.41

 DFT PARAMETERS

     ATOM       ELECTRONS   NET CHARGE   R(ANGSTROM)
   1   5  B       5.0000      0.0000     0.89000000
   7   1  H       1.0000      0.0000     1.11000000
  19   6  C       6.0000      0.0000     0.77000000
  37   8  O       8.0000      0.0000     0.74000000

 SIZE OF GRID=    1341579
 TTTTTTTTTTTTTTTTTTTTTTTTTTTTTT MAKE_GRID2  TELAPSE        7.45 TCPU        7.43
 BECKE WEIGHT FUNCTION
 RADSAFE =     2.00
 TOLERANCES - DENSITY:10**- 6; POTENTIAL:10**- 9; GRID WGT:10**-14

 RADIAL INTEGRATION  - INTERVALS (POINTS,UPPER LIMIT):            1( 75,  4.0*R)

 ANGULAR INTEGRATION - INTERVALS (ACCURACY LEVEL [N. POINTS] UPPER LIMIT):
  1(  4[  86]   0.2)  2(  8[ 194]   0.5)  3( 12[ 350]   0.9)  4( 16[ 974]   3.5)
  5( 12[ 350]9999.0)
 TTTTTTTTTTTTTTTTTTTTTTTTTTTTTT INT_CALC    TELAPSE        7.51 TCPU        7.49
 EEEEEEEEEE INT_CALC TERMINATION  DATE 02 12 2025 TIME 08:06:00.1

 *******************************************************************************
 COF-5_z44_inc_L070                                                              
 CRYSTAL - SCF - TYPE OF CALCULATION :  RESTRICTED CLOSED SHELL
 *******************************************************************************

 CAPPA:IS1  2;IS2  2;IS3  8; K PTS MONK NET  20; SYMMOPS:K SPACE   2;G SPACE   1

 TTTTTTTTTTTTTTTTTTTTTTTTTTTTTT SDIK        TELAPSE        8.10 TCPU       15.55

 AAAAAAAAAAAAAAAAAAAAAAAAAAAAAAAAAAAAAAAAAAAAAAAAAAAAAAAAAAAAAAAAAAAAAAAAAAAAAAA
         ATOMIC WAVEFUNCTION(S)


 NUCLEAR CHARGE  5.0  SYMMETRY SPECIES            S    P
 N. ELECTRONS    5.0  NUMBER OF PRIMITIVE GTOS    8    4
                      NUMBER OF CONTRACTED GTOS   4    2
                      NUMBER OF CLOSED SHELLS     2    0
                      OPEN SHELL OCCUPATION       0    1

  ZNUC  SCFIT    TOTAL HF ENERGY   KINETIC ENERGY   VIRIAL THEOREM ACCURACY
   5.0    11    -2.451164084E+01  2.462155050E+01 -1.995536038E+00  1.5E-06

 NUCLEAR CHARGE  1.0  SYMMETRY SPECIES            S
 N. ELECTRONS    1.0  NUMBER OF PRIMITIVE GTOS    4
                      NUMBER OF CONTRACTED GTOS   2
                      NUMBER OF CLOSED SHELLS     0
                      OPEN SHELL OCCUPATION       1

  ZNUC  SCFIT    TOTAL HF ENERGY   KINETIC ENERGY   VIRIAL THEOREM ACCURACY
   1.0     1    -4.977266687E-01  5.190767460E-01 -1.958869132E+00  0.0E+00

 NUCLEAR CHARGE  6.0  SYMMETRY SPECIES            S    P
 N. ELECTRONS    6.0  NUMBER OF PRIMITIVE GTOS    8    4
                      NUMBER OF CONTRACTED GTOS   4    2
                      NUMBER OF CLOSED SHELLS     2    0
                      OPEN SHELL OCCUPATION       0    2

  ZNUC  SCFIT    TOTAL HF ENERGY   KINETIC ENERGY   VIRIAL THEOREM ACCURACY
   6.0     9    -3.766704647E+01  3.775180683E+01 -1.997754800E+00  1.1E-06

 NUCLEAR CHARGE  8.0  SYMMETRY SPECIES            S    P
 N. ELECTRONS    8.0  NUMBER OF PRIMITIVE GTOS    8    4
                      NUMBER OF CONTRACTED GTOS   4    2
                      NUMBER OF CLOSED SHELLS     2    0
                      OPEN SHELL OCCUPATION       0    4

  ZNUC  SCFIT    TOTAL HF ENERGY   KINETIC ENERGY   VIRIAL THEOREM ACCURACY
   8.0    12    -7.477373220E+01  7.477365593E+01 -2.000001020E+00  3.8E-06

 AAAAAAAAAAAAAAAAAAAAAAAAAAAAAAAAAAAAAAAAAAAAAAAAAAAAAAAAAAAAAAAAAAAAAAAAAAAAAAA

 CHARGE NORMALIZATION FACTOR   1.00000000
 TOTAL ATOMIC CHARGES:
   5.0000000   5.0000000   5.0000000   5.0000000   5.0000000   5.0000000
   1.0000000   1.0000000   1.0000000   1.0000000   1.0000000   1.0000000
   1.0000000   1.0000000   1.0000000   1.0000000   1.0000000   1.0000000
   6.0000000   6.0000000   6.0000000   6.0000000   6.0000000   6.0000000
   6.0000000   6.0000000   6.0000000   6.0000000   6.0000000   6.0000000
   6.0000000   6.0000000   6.0000000   6.0000000   6.0000000   6.0000000
   8.0000000   8.0000000   8.0000000   8.0000000   8.0000000   8.0000000
 TTTTTTTTTTTTTTTTTTTTTTTTTTTTTT MOQGAD      TELAPSE        8.13 TCPU       16.80
 TTTTTTTTTTTTTTTTTTTTTTTTTTTTTT SHELLXN     TELAPSE       12.54 TCPU      157.51
 TTTTTTTTTTTTTTTTTTTTTTTTTTTTTT MONMO3      TELAPSE       12.66 TCPU      161.41
 NUMERICALLY INTEGRATED DENSITY    197.9999544245
 TTTTTTTTTTTTTTTTTTTTTTTTTTTTTT NUMDFT      TELAPSE       13.17 TCPU      177.84
 CYC   0 ETOT(AU) -1.295945215351E+03 DETOT -1.30E+03 tst  0.00E+00 PX  1.00E+00
 TTTTTTTTTTTTTTTTTTTTTTTTTTTTTT DIIS        TELAPSE       13.21 TCPU      179.03
 TTTTTTTTTTTTTTTTTTTTTTTTTTTTTT FDIK        TELAPSE       13.71 TCPU      194.96
 INSULATING STATE
 TOP OF VALENCE BANDS -    BAND     99; K    1; EIG -3.1390817E-01 AU
 BOTTOM OF VIRTUAL BANDS - BAND    100; K   17; EIG -1.5595643E-01 AU
 INDIRECT ENERGY BAND GAP:   4.2981 eV
 BOTTOM OF VIRTUAL BANDS - BAND    100; K    1; EIG -1.5587350E-01 AU
 TTTTTTTTTTTTTTTTTTTTTTTTTTTTTT PDIG        TELAPSE       14.03 TCPU      201.13
 CHARGE NORMALIZATION FACTOR   1.00000000
 TOTAL ATOMIC CHARGES:
   4.1621178   4.1651684   4.1662535   4.1680242   4.1650948   4.1607343
   0.7850654   0.7850297   0.7851590   0.7851949   0.7851516   0.7850447
   0.7860245   0.7855803   0.7847787   0.7853657   0.7853611   0.7856065
   6.0430606   6.2648158   6.2648776   6.2658123   6.2645237   6.0452459
   6.0404198   6.2661424   6.2642700   6.2667481   6.2665164   6.0437397
   6.0422527   6.2649100   6.2657819   6.2653219   6.2669471   6.0398044
   8.6917954   8.6910100   8.6913364   8.6906542   8.6900728   8.6931859
 TTTTTTTTTTTTTTTTTTTTTTTTTTTTTT MOQGAD      TELAPSE       14.07 TCPU      201.17
 TTTTTTTTTTTTTTTTTTTTTTTTTTTTTT SHELLXN     TELAPSE       18.66 TCPU      347.19
 TTTTTTTTTTTTTTTTTTTTTTTTTTTTTT MONMO3      TELAPSE       18.78 TCPU      351.09
 NUMERICALLY INTEGRATED DENSITY    197.9999785879
 TTTTTTTTTTTTTTTTTTTTTTTTTTTTTT NUMDFT      TELAPSE       19.30 TCPU      367.61
 CYC   1 ETOT(AU) -1.288809165408E+03 DETOT  7.14E+00 tst  0.00E+00 PX  1.00E+00
 TTTTTTTTTTTTTTTTTTTTTTTTTTTTTT DIIS        TELAPSE       19.35 TCPU      369.08
 DIIS TEST: 0.11147E+01 AT SCF   CYCLE   1 - MIX   30 %
 TTTTTTTTTTTTTTTTTTTTTTTTTTTTTT FDIK        TELAPSE       19.85 TCPU      385.14
 INSULATING STATE
 TOP OF VALENCE BANDS -    BAND     99; K    1; EIG -2.2558711E-01 AU
 BOTTOM OF VIRTUAL BANDS - BAND    100; K    1; EIG -7.9960603E-02 AU
 DIRECT ENERGY BAND GAP:   3.9627 eV
 TTTTTTTTTTTTTTTTTTTTTTTTTTTTTT PDIG        TELAPSE       20.16 TCPU      391.31
 CHARGE NORMALIZATION FACTOR   1.00000000
 TOTAL ATOMIC CHARGES:
   4.7173402   4.7085744   4.7090491   4.7098198   4.7088003   4.7175489
   0.9089641   0.9094218   0.9105959   0.9105434   0.9077347   0.9073988
   0.9081865   0.9084620   0.9086828   0.9090662   0.9104678   0.9105534
   5.8684180   6.1398775   6.1382351   6.1319255   6.1332515   5.8643035
   5.8836059   6.1254606   6.1267536   6.1313601   6.1278438   5.8771852
   5.8690160   6.1351926   6.1376318   6.1334820   6.1310784   5.8709137
   8.3338034   8.3326706   8.3302571   8.3316786   8.3270977   8.3377479
 TTTTTTTTTTTTTTTTTTTTTTTTTTTTTT MOQGAD      TELAPSE       20.20 TCPU      391.35
 TTTTTTTTTTTTTTTTTTTTTTTTTTTTTT SHELLXN     TELAPSE       24.79 TCPU      537.43
 TTTTTTTTTTTTTTTTTTTTTTTTTTTTTT MONMO3      TELAPSE       24.92 TCPU      541.33
 NUMERICALLY INTEGRATED DENSITY    197.9999714796
 TTTTTTTTTTTTTTTTTTTTTTTTTTTTTT NUMDFT      TELAPSE       25.43 TCPU      557.87
 CYC   2 ETOT(AU) -1.289004410669E+03 DETOT -1.95E-01 tst  3.67E-03 PX  1.59E-01
 TTTTTTTTTTTTTTTTTTTTTTTTTTTTTT DIIS        TELAPSE       25.48 TCPU      559.40
 DIIS TEST: 0.46164E+00 AT SCF   CYCLE   2 - DIIS ACTIVE - HISTORY:     2 CYCLES
 TTTTTTTTTTTTTTTTTTTTTTTTTTTTTT FDIK        TELAPSE       25.98 TCPU      575.35
 INSULATING STATE
 TOP OF VALENCE BANDS -    BAND     99; K    1; EIG -2.3910111E-01 AU
 BOTTOM OF VIRTUAL BANDS - BAND    100; K    1; EIG -7.4573140E-02 AU
 DIRECT ENERGY BAND GAP:   4.4770 eV
 TTTTTTTTTTTTTTTTTTTTTTTTTTTTTT PDIG        TELAPSE       26.30 TCPU      581.52
 CHARGE NORMALIZATION FACTOR   1.00000000
 TOTAL ATOMIC CHARGES:
   4.5079043   4.5030238   4.5035864   4.5052242   4.5032271   4.5071961
   0.8877978   0.8876239   0.8886872   0.8887883   0.8852277   0.8850263
   0.8865569   0.8859345   0.8866020   0.8876909   0.8889166   0.8885583
   5.8896181   6.1597560   6.1602271   6.1602380   6.1602073   5.8913766
   5.8874646   6.1595573   6.1602586   6.1621270   6.1627179   5.8900674
   5.8906988   6.1595038   6.1599855   6.1612437   6.1614164   5.8897789
   8.5089919   8.5083524   8.5110148   8.5075688   8.5091955   8.5110612
 TTTTTTTTTTTTTTTTTTTTTTTTTTTTTT MOQGAD      TELAPSE       26.34 TCPU      581.56
 TTTTTTTTTTTTTTTTTTTTTTTTTTTTTT SHELLXN     TELAPSE       30.93 TCPU      727.62
 TTTTTTTTTTTTTTTTTTTTTTTTTTTTTT MONMO3      TELAPSE       31.05 TCPU      731.53
 NUMERICALLY INTEGRATED DENSITY    197.9999733923
 TTTTTTTTTTTTTTTTTTTTTTTTTTTTTT NUMDFT      TELAPSE       31.57 TCPU      748.12
 CYC   3 ETOT(AU) -1.289099741851E+03 DETOT -9.53E-02 tst  6.80E-04 PX  6.41E-02
 TTTTTTTTTTTTTTTTTTTTTTTTTTTTTT DIIS        TELAPSE       31.63 TCPU      749.99
 DIIS TEST: 0.13229E-01 AT SCF   CYCLE   3 - DIIS ACTIVE - HISTORY:     3 CYCLES
 TTTTTTTTTTTTTTTTTTTTTTTTTTTTTT FDIK        TELAPSE       32.15 TCPU      766.47
 INSULATING STATE
 TOP OF VALENCE BANDS -    BAND     99; K    1; EIG -2.4860127E-01 AU
 BOTTOM OF VIRTUAL BANDS - BAND    100; K    1; EIG -8.3180159E-02 AU
 DIRECT ENERGY BAND GAP:   4.5013 eV
 TTTTTTTTTTTTTTTTTTTTTTTTTTTTTT PDIG        TELAPSE       32.46 TCPU      772.64
 CHARGE NORMALIZATION FACTOR   1.00000000
 TOTAL ATOMIC CHARGES:
   4.5134528   4.5080417   4.5085803   4.5098967   4.5078383   4.5128547
   0.8702159   0.8705761   0.8715348   0.8717169   0.8684851   0.8684918
   0.8695820   0.8696501   0.8696978   0.8704133   0.8719123   0.8717738
   5.9395662   6.1700518   6.1684252   6.1656967   6.1653678   5.9370045
   5.9475059   6.1632058   6.1624942   6.1662109   6.1633275   5.9432363
   5.9389095   6.1675180   6.1691173   6.1659519   6.1652028   5.9393886
   8.4775871   8.4764943   8.4745896   8.4758270   8.4720881   8.4805186
 TTTTTTTTTTTTTTTTTTTTTTTTTTTTTT MOQGAD      TELAPSE       32.50 TCPU      772.68
 TTTTTTTTTTTTTTTTTTTTTTTTTTTTTT SHELLXN     TELAPSE       37.09 TCPU      918.66
 TTTTTTTTTTTTTTTTTTTTTTTTTTTTTT MONMO3      TELAPSE       37.21 TCPU      922.56
 NUMERICALLY INTEGRATED DENSITY    197.9999735247
 TTTTTTTTTTTTTTTTTTTTTTTTTTTTTT NUMDFT      TELAPSE       37.73 TCPU      939.08
 CYC   4 ETOT(AU) -1.289102517260E+03 DETOT -2.78E-03 tst  2.85E-05 PX  1.36E-02
 TTTTTTTTTTTTTTTTTTTTTTTTTTTTTT DIIS        TELAPSE       37.79 TCPU      940.98
 DIIS TEST: 0.39909E-02 AT SCF   CYCLE   4 - DIIS ACTIVE - HISTORY:     4 CYCLES
 TTTTTTTTTTTTTTTTTTTTTTTTTTTTTT FDIK        TELAPSE       38.28 TCPU      956.75
 INSULATING STATE
 TOP OF VALENCE BANDS -    BAND     99; K    1; EIG -2.4679506E-01 AU
 BOTTOM OF VIRTUAL BANDS - BAND    100; K    1; EIG -8.2842409E-02 AU
 DIRECT ENERGY BAND GAP:   4.4614 eV
 TTTTTTTTTTTTTTTTTTTTTTTTTTTTTT PDIG        TELAPSE       38.59 TCPU      962.90
 CHARGE NORMALIZATION FACTOR   1.00000000
 TOTAL ATOMIC CHARGES:
   4.5163694   4.5098827   4.5104551   4.5118956   4.5100055   4.5158676
   0.8736603   0.8736296   0.8747303   0.8747904   0.8715801   0.8713311
   0.8727420   0.8723041   0.8727785   0.8737142   0.8749833   0.8747742
   5.9199605   6.1681713   6.1681641   6.1658952   6.1660525   5.9205804
   5.9236212   6.1635422   6.1642853   6.1663849   6.1661169   5.9243587
   5.9209681   6.1670047   6.1678031   6.1667110   6.1662912   5.9204804
   8.4867102   8.4858888   8.4866546   8.4850768   8.4846448   8.4891389
 TTTTTTTTTTTTTTTTTTTTTTTTTTTTTT MOQGAD      TELAPSE       38.63 TCPU      962.94
 TTTTTTTTTTTTTTTTTTTTTTTTTTTTTT SHELLXN     TELAPSE       43.22 TCPU     1108.97
 TTTTTTTTTTTTTTTTTTTTTTTTTTTTTT MONMO3      TELAPSE       43.35 TCPU     1112.88
 NUMERICALLY INTEGRATED DENSITY    197.9999735933
 TTTTTTTTTTTTTTTTTTTTTTTTTTTTTT NUMDFT      TELAPSE       43.86 TCPU     1129.39
 CYC   5 ETOT(AU) -1.289103430779E+03 DETOT -9.14E-04 tst  6.76E-06 PX  6.86E-03
 TTTTTTTTTTTTTTTTTTTTTTTTTTTTTT DIIS        TELAPSE       43.93 TCPU     1131.65
 DIIS TEST: 0.65114E-04 AT SCF   CYCLE   5 - DIIS ACTIVE - HISTORY:     5 CYCLES
 TTTTTTTTTTTTTTTTTTTTTTTTTTTTTT FDIK        TELAPSE       44.43 TCPU     1147.54
 INSULATING STATE
 TOP OF VALENCE BANDS -    BAND     99; K    1; EIG -2.4663068E-01 AU
 BOTTOM OF VIRTUAL BANDS - BAND    100; K    1; EIG -8.2272063E-02 AU
 DIRECT ENERGY BAND GAP:   4.4724 eV
 TTTTTTTTTTTTTTTTTTTTTTTTTTTTTT PDIG        TELAPSE       44.74 TCPU     1153.71
 CHARGE NORMALIZATION FACTOR   1.00000000
 TOTAL ATOMIC CHARGES:
   4.5157185   4.5100035   4.5105580   4.5119450   4.5099847   4.5151061
   0.8743689   0.8746216   0.8755362   0.8757131   0.8723522   0.8723440
   0.8734590   0.8733946   0.8737044   0.8744878   0.8758612   0.8756491
   5.9210939   6.1684435   6.1671844   6.1656697   6.1652511   5.9193344
   5.9251219   6.1638914   6.1632436   6.1669065   6.1646717   5.9222093
   5.9205162   6.1664036   6.1677725   6.1660849   6.1657064   5.9208676
   8.4865963   8.4856596   8.4853321   8.4849843   8.4829199   8.4893274
 TTTTTTTTTTTTTTTTTTTTTTTTTTTTTT MOQGAD      TELAPSE       44.78 TCPU     1153.74
 TTTTTTTTTTTTTTTTTTTTTTTTTTTTTT SHELLXN     TELAPSE       49.37 TCPU     1299.76
 TTTTTTTTTTTTTTTTTTTTTTTTTTTTTT MONMO3      TELAPSE       49.49 TCPU     1303.67
 NUMERICALLY INTEGRATED DENSITY    197.9999735592
 TTTTTTTTTTTTTTTTTTTTTTTTTTTTTT NUMDFT      TELAPSE       50.01 TCPU     1320.28
 CYC   6 ETOT(AU) -1.289103448951E+03 DETOT -1.82E-05 tst  1.64E-07 PX  1.05E-03
 TTTTTTTTTTTTTTTTTTTTTTTTTTTTTT DIIS        TELAPSE       50.08 TCPU     1322.52
 DIIS TEST: 0.84060E-05 AT SCF   CYCLE   6 - DIIS ACTIVE - HISTORY:     6 CYCLES
 TTTTTTTTTTTTTTTTTTTTTTTTTTTTTT FDIK        TELAPSE       50.59 TCPU     1338.76
 INSULATING STATE
 TOP OF VALENCE BANDS -    BAND     99; K    1; EIG -2.4661464E-01 AU
 BOTTOM OF VIRTUAL BANDS - BAND    100; K    1; EIG -8.2347255E-02 AU
 DIRECT ENERGY BAND GAP:   4.4699 eV
 TTTTTTTTTTTTTTTTTTTTTTTTTTTTTT PDIG        TELAPSE       50.91 TCPU     1344.93
 CHARGE NORMALIZATION FACTOR   1.00000000
 TOTAL ATOMIC CHARGES:
   4.5160894   4.5099333   4.5105093   4.5119441   4.5100179   4.5155471
   0.8744833   0.8744922   0.8755900   0.8756607   0.8724216   0.8721991
   0.8735769   0.8731976   0.8736294   0.8745453   0.8758514   0.8756490
   5.9202184   6.1676528   6.1674775   6.1652338   6.1653860   5.9205551
   5.9240429   6.1629647   6.1635934   6.1658389   6.1652759   5.9242785
   5.9210924   6.1663580   6.1672678   6.1660392   6.1655451   5.9206415
   8.4863858   8.4855129   8.4858880   8.4847156   8.4838508   8.4888473
 TTTTTTTTTTTTTTTTTTTTTTTTTTTTTT MOQGAD      TELAPSE       50.94 TCPU     1344.97
 TTTTTTTTTTTTTTTTTTTTTTTTTTTTTT SHELLXN     TELAPSE       55.53 TCPU     1490.91
 TTTTTTTTTTTTTTTTTTTTTTTTTTTTTT MONMO3      TELAPSE       55.66 TCPU     1494.82
 NUMERICALLY INTEGRATED DENSITY    197.9999735611
 TTTTTTTTTTTTTTTTTTTTTTTTTTTTTT NUMDFT      TELAPSE       56.17 TCPU     1511.36
 CYC   7 ETOT(AU) -1.289103450022E+03 DETOT -1.07E-06 tst  6.77E-08 PX  4.42E-04
 TTTTTTTTTTTTTTTTTTTTTTTTTTTTTT DIIS        TELAPSE       56.26 TCPU     1514.01
 DIIS TEST: 0.16848E-05 AT SCF   CYCLE   7 - DIIS ACTIVE - HISTORY:     7 CYCLES
 TTTTTTTTTTTTTTTTTTTTTTTTTTTTTT FDIK        TELAPSE       56.76 TCPU     1530.14
 INSULATING STATE
 TOP OF VALENCE BANDS -    BAND     99; K    1; EIG -2.4662166E-01 AU
 BOTTOM OF VIRTUAL BANDS - BAND    100; K    1; EIG -8.2361428E-02 AU
 DIRECT ENERGY BAND GAP:   4.4698 eV
 TTTTTTTTTTTTTTTTTTTTTTTTTTTTTT PDIG        TELAPSE       57.08 TCPU     1536.31
 CHARGE NORMALIZATION FACTOR   1.00000000
 TOTAL ATOMIC CHARGES:
   4.5161156   4.5100089   4.5105755   4.5119917   4.5100575   4.5155551
   0.8744051   0.8745079   0.8755325   0.8756517   0.8723479   0.8722167
   0.8734905   0.8732286   0.8736225   0.8744904   0.8758264   0.8756100
   5.9205880   6.1679283   6.1673334   6.1653852   6.1652584   5.9200623
   5.9245323   6.1632890   6.1633692   6.1661929   6.1650061   5.9235325
   5.9208429   6.1663544   6.1674125   6.1659886   6.1656055   5.9207613
   8.4864451   8.4855741   8.4858283   8.4848264   8.4836192   8.4890295
 TTTTTTTTTTTTTTTTTTTTTTTTTTTTTT MOQGAD      TELAPSE       57.12 TCPU     1536.34
 TTTTTTTTTTTTTTTTTTTTTTTTTTTTTT SHELLXN     TELAPSE       61.71 TCPU     1682.38
 TTTTTTTTTTTTTTTTTTTTTTTTTTTTTT MONMO3      TELAPSE       61.83 TCPU     1686.27
 NUMERICALLY INTEGRATED DENSITY    197.9999735608
 TTTTTTTTTTTTTTTTTTTTTTTTTTTTTT NUMDFT      TELAPSE       62.35 TCPU     1702.85
 CYC   8 ETOT(AU) -1.289103450323E+03 DETOT -3.02E-07 tst  1.05E-08 PX  1.74E-04
 TTTTTTTTTTTTTTTTTTTTTTTTTTTTTT DIIS        TELAPSE       62.43 TCPU     1705.45
 DIIS TEST: 0.53457E-07 AT SCF   CYCLE   8 - DIIS ACTIVE - HISTORY:     8 CYCLES
 TTTTTTTTTTTTTTTTTTTTTTTTTTTTTT FDIK        TELAPSE       62.93 TCPU     1721.34
 INSULATING STATE
 TOP OF VALENCE BANDS -    BAND     99; K    1; EIG -2.4662669E-01 AU
 BOTTOM OF VIRTUAL BANDS - BAND    100; K    1; EIG -8.2352820E-02 AU
 DIRECT ENERGY BAND GAP:   4.4701 eV
 TTTTTTTTTTTTTTTTTTTTTTTTTTTTTT PDIG        TELAPSE       63.24 TCPU     1727.51
 CHARGE NORMALIZATION FACTOR   1.00000000
 TOTAL ATOMIC CHARGES:
   4.5160689   4.5100104   4.5105752   4.5119930   4.5100580   4.5155099
   0.8744037   0.8744957   0.8755298   0.8756351   0.8723511   0.8722004
   0.8734898   0.8732171   0.8736143   0.8744850   0.8758114   0.8756071
   5.9204842   6.1679273   6.1673838   6.1653787   6.1653434   5.9201255
   5.9243746   6.1632842   6.1634825   6.1662125   6.1650796   5.9235512
   5.9208736   6.1663783   6.1674445   6.1660623   6.1655989   5.9206907
   8.4864828   8.4855885   8.4857477   8.4848322   8.4835858   8.4890316
 TTTTTTTTTTTTTTTTTTTTTTTTTTTTTT MOQGAD      TELAPSE       63.28 TCPU     1727.55
 TTTTTTTTTTTTTTTTTTTTTTTTTTTTTT SHELLXN     TELAPSE       67.87 TCPU     1873.59
 +++ ENERGIES IN A.U. +++
 ::: EXT EL-POLE                                  -1.2118217088992E+03
 ::: EXT EL-SPHEROPOLE                             1.2976798922716E+01
 ::: BIELET ZONE E-E                               1.9352612435559E+03
 ::: TOTAL E-E                                     7.3641633357935E+02
 ::: TOTAL E-N + N-E                              -3.3050911144771E+03
 ::: TOTAL N-N                                     1.3335137063250E+02
 ::: KINETIC ENERGY                                1.2799381973777E+03
 ::: PSEUDO TOTAL   ENERGY                        -1.1553852128875E+03
 ::: VIRIAL COEFFICIENT                            1.0511443301392E+00
 TTTTTTTTTTTTTTTTTTTTTTTTTTTTTT MONMO3      TELAPSE       67.99 TCPU     1877.49
 NUMERICALLY INTEGRATED DENSITY    197.9999735605
 EXCHANGE ENERGY: -0.126028797155E+03  CORRELATION ENERGY: -0.768944036136E+01
 TTTTTTTTTTTTTTTTTTTTTTTTTTTTTT NUMDFT      TELAPSE       68.51 TCPU     1894.04
 CYC   9 ETOT(AU) -1.289103450404E+03 DETOT -8.12E-08 tst  2.20E-10 PX  1.74E-04

 == SCF ENDED - CONVERGENCE ON ENERGY      E(AU) -1.2891034504043E+03 CYCLES   9


 ENERGY EXPRESSION=HARTREE+FOCK EXCH*0.00000+(HSESOL     EXCH)*1.00000+PBESOL     CORR


 TOTAL ENERGY(DFT)(AU)(  9) -1.2891034504043E+03 DE-8.1E-08 tester 2.2E-10
 TTTTTTTTTTTTTTTTTTTTTTTTTTTTTT EDFT        TELAPSE       68.51 TCPU     1894.05
 
 INFORMATION **** DFTD3 ENERGY **** CALCULATE DFTD3 ENERGY

           DFT-D V3(BJ)
 DF                                         hsesol3c  
 parameters
 s6       :    1.0000
 s8       :    0.0000
 a1       :    0.5196
 a2       :    4.9385
 k1 k3    :   16.0000   -4.0000
 Cutoff   :   50.2022
 CN-Cutoff:   21.1671
 ABC-Cutoff:   21.1671
 
 Edisp /kcal,au:   -21.3389 -0.03400567

 E6    /kcal :   -22.2913
 E8    /kcal :     0.0000
 E6(ABC) "   :   0.952398
 
 INFORMATION **** DFTD3 ENERGY **** NORMAL TERMINATION OF DFTD3 MODULE

 GCP ENERGY CALCULATION
  level        hsesol3c            basis:hsesol3c
  Nbf            474
  Atoms           42

  Parameters: 
  sigma     1.0000
  eta       1.4281
  alpha     0.2936
  beta      1.9467

  dmp_scal      4.0000
  dmp_exp       6.0000
 cutoffs: 
   distance [bohr] 60.0
   noise    [a.u.] 2.2E-16
 SR-damping   T
 ** gCP correction **
  Egcp:        0.0829422542 / (a.u.) ||      52.0471 / (kcal/mol)
 INFORMATION **** GCP **** NORMAL TERMINATION OF GCP MODULE

 *******************************************************************************

 DFT-D3-GCP DISPERSION AND COUNTERPOISE CORRECTION

 D3 DISPERSION ENERGY (AU)      -3.4005672876436E-02
 GCP ENERGY (AU)                 8.2942254166301E-02
 TOTAL ENERGY + DISP + GCP (AU) -1.2890545138230E+03

 *******************************************************************************

 EIGENVECTORS IN FORTRAN UNIT 10
 TTTTTTTTTTTTTTTTTTTTTTTTTTTTTT END         TELAPSE       69.70 TCPU     1901.22
 EEEEEEEEEE TERMINATION  DATE 02 12 2025 TIME 08:07:02.3
