 Default number of threads is:           32

         
 *******************************************************************************
 *                                                                             *
 *                               CRYSTAL23                                     *
 *                      public : 1.0.1 - October 2022                          *
 *                       HTTP://WWW.CRYSTAL.UNITO.IT                           *
 *                                                                             *
 *                              MAIN AUTHORS                                   *
 *                                                                             *
 *  R. DOVESI(1,11), V.R. SAUNDERS(2), C. ROETTI(1,11), R. ORLANDO(1,11),      *
 *  C.M. ZICOVICH-WILSON(1,3), F. PASCALE(4), B. CIVALLERI(1,11),              *
 *  K. DOLL(5), N.M. HARRISON(6), I.J. BUSH(7), Ph. D'ARCO(8),                 *
 *  M. LLUNELL(9), M. CAUSA'(10), Y. NOEL(8), L. MASCHIO(1,11), A. ERBA(1,11)  *
 *  M. RE'RAT(14), S. CASASSA(1,11), B.G. SEARLE(2), J.K. DESMARAIS(1)         *
 *                                                                             *
 *        CONTRIBUTIONS TO THE CODE HAVE ALSO BEEN GIVEN BY                    *
 *                                                                             *
 *  M. FERRABONE(1,11), M. DE LA PIERRE(1,11), M. FERRERO(1,11),               *
 *  J. BAIMA(1,11), E. ALBANESE(1,11), M.F. PEINTINGER(12), R. BAST(13),       *
 *  B. KIRTMAN(15), V. LACIVITA(1,11), R. DEMICHELIS(1,16)                     *
 *  G. BRANDEBURG(17), S. SALUSTRO(1,11), G. SANSONE(1,11)                     *
 *  M.T. RUGGIERO(18), L.E. DAGA(1), L. DONA'(1), A. COSSARD(1)                *
 *                                                                             *
 * (1) THEORETICAL CHEMISTRY GROUP - UNIVERSITA' DI TORINO - TORINO (ITALY)    *
 * (2) SCIENTIFIC COMPUTING DEPARTMENT - STFC DARESBURY (UK)                   *
 * (3) UNIVERSIDAD AUTONOMA DEL ESTADO DE MORELOS - CUERNAVACA (MEXICO)        *
 * (4) UNIVERSITE' DE LORRAINE - NANCY (FRANCE)                                *
 * (5) UNIVERSITAET STUTTGART- STUTTGART (GERMANY)                             *
 * (6) IMPERIAL COLLEGE - LONDON (UK)                                          *
 * (7) SCIENTIFIC COMPUTING DEPARTMENT - STFC RAL (UK)                         *
 * (8) UPMC - SORBONNE UNIVERSITES - PARIS (FRANCE)                            *
 * (9) UNIVERSIDAD DE BARCELONA - BARCELONA (SPAIN)                            *
 *(10) UNIVERSITA' DI NAPOLI "FEDERICO II" - NAPOLI (ITALY)                    *
 *(11) NIS - NANOSTRUCTURED INTERFACES AND SURFACES - TORINO (ITALY)           *
 *(12) MPI FUER CHEMISCHE ENERGIEKONVERSION - MUELHEIM AN DER RUHR (GERMANY)   *
 *(13) UNIVERSITY OF TROMSO - TROMSO (NORWAY)                                  *
 *(14) UNIVERSITE' DE PAU ET DES PAYS DE L'ADOUR - PAU (FRANCE)                *
 *(15) UNIVERSITY OF CALIFORNIA SANTA BARBARA - SANTA BARBARA (USA)            *
 *(16) CURTIN UNIVERSITY - PERTH (AUSTRALIA)                                   *
 *(17) UNIVERSITY COLLEGE LONDON - LONDON (UK)                                 *
 *(18) UNIVERSITY OF VERMONT - BURLINGTON (USA)                                *
 *                                                                             *
 *******************************************************************************
 EEEEEEEEEE STARTING  DATE 19 02 2026 TIME 18:34:47.3
 cof-1_z36_L000_incl                                                             

 CRYSTAL CALCULATION
 (INPUT ACCORDING TO THE INTERNATIONAL TABLES FOR X-RAY CRYSTALLOGRAPHY)
 CRYSTAL FAMILY                       :  TRICLINIC   
 CRYSTAL CLASS  (GROTH - 1921)        :  TRICLINIC PEDIAL                     

 SPACE GROUP (NONCENTROSYMMETRIC)     :  P 1             

 LATTICE PARAMETERS  (ANGSTROMS AND DEGREES) - CONVENTIONAL CELL
        A           B           C        ALPHA        BETA       GAMMA
    15.02361    15.02392     3.60000    90.00032    89.99994   119.99596


 NUMBER OF IRREDUCIBLE ATOMS IN THE CONVENTIONAL CELL:   42

 INPUT COORDINATES

 ATOM AT. N.              COORDINATES
   1   5     6.136805400000E-01  2.273182200000E-01  5.013268700000E-01
   2   5     7.727362000000E-01  3.863778800000E-01  5.013268900000E-01
   3   5     6.136762700000E-01  3.863606700000E-01  4.985371100000E-01
   4   5     2.272552500000E-01  6.136332200000E-01  5.013268800000E-01
   5   5     3.863632200000E-01  6.136124500000E-01  5.013268700000E-01
   6   5     3.863435000000E-01  7.727516500000E-01  4.985371100000E-01
   7   1     9.030436200000E-01  3.089300500000E-01  4.955431200000E-01
   8   1     9.663453000000E-02  6.910534400000E-01  4.946586800000E-01
   9   1     9.029714200000E-01  5.940724300000E-01  4.945225600000E-01
  10   1     9.673618000000E-02  4.056849400000E-01  4.945565100000E-01
  11   1     6.910324000000E-01  9.700412000000E-02  5.044569200000E-01
  12   1     3.089297200000E-01  9.034373100000E-01  5.053414200000E-01
  13   1     4.058699900000E-01  9.704998000000E-02  5.054776200000E-01
  14   1     5.943122100000E-01  9.033473200000E-01  5.054434400000E-01
  15   1     6.910727400000E-01  5.940542100000E-01  4.955431700000E-01
  16   1     3.089618300000E-01  4.056093300000E-01  4.946586300000E-01
  17   1     4.058405700000E-01  3.088232500000E-01  4.945224500000E-01
  18   1     5.942908800000E-01  6.909579300000E-01  4.945566200000E-01
  19   6     8.918903100000E-01  4.459436900000E-01  4.984350300000E-01
  20   6     9.464891100000E-01  3.927856300000E-01  4.956792200000E-01
  21   6     5.338812000000E-02  6.071853000000E-01  4.954411600000E-01
  22   6     9.464521100000E-01  5.536921900000E-01  4.961556100000E-01
  23   6     5.342634000000E-02  4.462499700000E-01  4.943183600000E-01
  24   6     1.080358900000E-01  5.540356300000E-01  4.961896000000E-01
  25   6     5.540394200000E-01  1.081684600000E-01  5.015650400000E-01
  26   6     6.071778500000E-01  5.355594000000E-02  5.043208000000E-01
  27   6     3.927986700000E-01  9.466631600000E-01  5.045589500000E-01
  28   6     4.462875800000E-01  5.360286000000E-02  5.038445200000E-01
  29   6     5.537168500000E-01  9.466235600000E-01  5.056816400000E-01
  30   6     4.459279100000E-01  8.919920600000E-01  5.038104600000E-01
  31   6     5.540448700000E-01  4.458745500000E-01  4.984350300000E-01
  32   6     6.072102200000E-01  5.536257800000E-01  4.956792800000E-01
  33   6     3.928233700000E-01  4.461720300000E-01  4.954411000000E-01
  34   6     4.462872600000E-01  3.926899900000E-01  4.961555300000E-01
  35   6     5.537429600000E-01  6.070980000000E-01  4.943184300000E-01
  36   6     4.459599800000E-01  5.539582300000E-01  4.961896000000E-01
  37   8     5.607366800000E-01  2.803706300000E-01  4.992855700000E-01
  38   8     7.196817000000E-01  2.803783300000E-01  5.051713200000E-01
  39   8     7.196794200000E-01  4.393234600000E-01  4.962916900000E-01
  40   8     2.803245100000E-01  7.196511100000E-01  4.992856000000E-01
  41   8     2.803439700000E-01  5.606956100000E-01  5.051713100000E-01
  42   8     4.392638400000E-01  7.196354200000E-01  4.962916700000E-01

 *******************************************************************************

 << INFORMATION >>: FROM NOW ON, ALL COORDINATES REFER TO THE PRIMITIVE CELL

 *******************************************************************************

 LATTICE PARAMETERS  (ANGSTROMS AND DEGREES) - PRIMITIVE CELL
       A          B          C        ALPHA      BETA     GAMMA        VOLUME
   15.02361   15.02392    3.60000    90.00032  89.99994 119.99596    703.733573

 COORDINATES OF THE EQUIVALENT ATOMS (FRACTIONAL UNITS)

 N. ATOM EQUIV AT. N.          X                  Y                  Z

   1   1   1    5 B    -3.86319460000E-01  2.27318220000E-01 -4.98673130000E-01

   2   2   1    5 B    -2.27263800000E-01  3.86377880000E-01 -4.98673110000E-01

   3   3   1    5 B    -3.86323730000E-01  3.86360670000E-01  4.98537110000E-01

   4   4   1    5 B     2.27255250000E-01 -3.86366780000E-01 -4.98673120000E-01

   5   5   1    5 B     3.86363220000E-01 -3.86387550000E-01 -4.98673130000E-01

   6   6   1    5 B     3.86343500000E-01 -2.27248350000E-01  4.98537110000E-01

   7   7   1    1 H    -9.69563800000E-02  3.08930050000E-01  4.95543120000E-01

   8   8   1    1 H     9.66345300000E-02 -3.08946560000E-01  4.94658680000E-01

   9   9   1    1 H    -9.70285800000E-02 -4.05927570000E-01  4.94522560000E-01

  10  10   1    1 H     9.67361800000E-02  4.05684940000E-01  4.94556510000E-01

  11  11   1    1 H    -3.08967600000E-01  9.70041200000E-02 -4.95543080000E-01

  12  12   1    1 H     3.08929720000E-01 -9.65626900000E-02 -4.94658580000E-01

  13  13   1    1 H     4.05869990000E-01  9.70499800000E-02 -4.94522380000E-01

  14  14   1    1 H    -4.05687790000E-01 -9.66526800000E-02 -4.94556560000E-01

  15  15   1    1 H    -3.08927260000E-01 -4.05945790000E-01  4.95543170000E-01

  16  16   1    1 H     3.08961830000E-01  4.05609330000E-01  4.94658630000E-01

  17  17   1    1 H     4.05840570000E-01  3.08823250000E-01  4.94522450000E-01

  18  18   1    1 H    -4.05709120000E-01 -3.09042070000E-01  4.94556620000E-01

  19  19   1    6 C    -1.08109690000E-01  4.45943690000E-01  4.98435030000E-01

  20  20   1    6 C    -5.35108900000E-02  3.92785630000E-01  4.95679220000E-01

  21  21   1    6 C     5.33881200000E-02 -3.92814700000E-01  4.95441160000E-01

  22  22   1    6 C    -5.35478900000E-02 -4.46307810000E-01  4.96155610000E-01

  23  23   1    6 C     5.34263400000E-02  4.46249970000E-01  4.94318360000E-01

  24  24   1    6 C     1.08035890000E-01 -4.45964370000E-01  4.96189600000E-01

  25  25   1    6 C    -4.45960580000E-01  1.08168460000E-01 -4.98434960000E-01

  26  26   1    6 C    -3.92822150000E-01  5.35559400000E-02 -4.95679200000E-01

  27  27   1    6 C     3.92798670000E-01 -5.33368400000E-02 -4.95441050000E-01

  28  28   1    6 C     4.46287580000E-01  5.36028600000E-02 -4.96155480000E-01

  29  29   1    6 C    -4.46283150000E-01 -5.33764400000E-02 -4.94318360000E-01

  30  30   1    6 C     4.45927910000E-01 -1.08007940000E-01 -4.96189540000E-01

  31  31   1    6 C    -4.45955130000E-01  4.45874550000E-01  4.98435030000E-01

  32  32   1    6 C    -3.92789780000E-01 -4.46374220000E-01  4.95679280000E-01

  33  33   1    6 C     3.92823370000E-01  4.46172030000E-01  4.95441100000E-01

  34  34   1    6 C     4.46287260000E-01  3.92689990000E-01  4.96155530000E-01

  35  35   1    6 C    -4.46257040000E-01 -3.92902000000E-01  4.94318430000E-01

  36  36   1    6 C     4.45959980000E-01 -4.46041770000E-01  4.96189600000E-01

  37  37   1    8 O    -4.39263320000E-01  2.80370630000E-01  4.99285570000E-01

  38  38   1    8 O    -2.80318300000E-01  2.80378330000E-01 -4.94828680000E-01

  39  39   1    8 O    -2.80320580000E-01  4.39323460000E-01  4.96291690000E-01

  40  40   1    8 O     2.80324510000E-01 -2.80348890000E-01  4.99285600000E-01

  41  41   1    8 O     2.80343970000E-01 -4.39304390000E-01 -4.94828690000E-01

  42  42   1    8 O     4.39263840000E-01 -2.80364580000E-01  4.96291670000E-01

 NUMBER OF SYMMETRY OPERATORS         :    1
 *******************************************************************************
 * GEOMETRY EDITING - INPUT COORDINATES ARE GIVEN IN ANGSTROM         
 *******************************************************************************

 GCALCO - MAX INDICES DIRECT LATTICE VECTOR     9     9    36
 NO.OF VECTORS CREATED 6999 STARS 3500 RMAX   199.49422 BOHR

 GEOMETRY FOR WAVE FUNCTION - DIMENSIONALITY OF THE SYSTEM    3
 (NON PERIODIC DIRECTION: LATTICE PARAMETER FORMALLY SET TO 500)
 *******************************************************************************
 LATTICE PARAMETERS (ANGSTROMS AND DEGREES) - BOHR = 0.5291772083 ANGSTROM
 PRIMITIVE CELL - CENTRING CODE 1/0 VOLUME=   703.733573 - DENSITY  0.921 g/cm^3
         A              B              C           ALPHA      BETA       GAMMA 
    15.02361100    15.02391600     3.60000000    90.000323  89.999944 119.995964
 *******************************************************************************
 ATOMS IN THE ASYMMETRIC UNIT   42 - ATOMS IN THE UNIT CELL:   42
     ATOM                 X/A                 Y/B                 Z/C    
 *******************************************************************************
      1 T   5 B    -3.863194600000E-01  2.273182200000E-01 -4.986731300000E-01
      2 T   5 B    -2.272638000000E-01  3.863778800000E-01 -4.986731100000E-01
      3 T   5 B    -3.863237300000E-01  3.863606700000E-01  4.985371100000E-01
      4 T   5 B     2.272552500000E-01 -3.863667800000E-01 -4.986731200000E-01
      5 T   5 B     3.863632200000E-01 -3.863875500000E-01 -4.986731300000E-01
      6 T   5 B     3.863435000000E-01 -2.272483500000E-01  4.985371100000E-01
      7 T   1 H    -9.695638000000E-02  3.089300500000E-01  4.955431200000E-01
      8 T   1 H     9.663453000000E-02 -3.089465600000E-01  4.946586800000E-01
      9 T   1 H    -9.702858000000E-02 -4.059275700000E-01  4.945225600000E-01
     10 T   1 H     9.673618000000E-02  4.056849400000E-01  4.945565100000E-01
     11 T   1 H    -3.089676000000E-01  9.700412000000E-02 -4.955430800000E-01
     12 T   1 H     3.089297200000E-01 -9.656269000000E-02 -4.946585800000E-01
     13 T   1 H     4.058699900000E-01  9.704998000000E-02 -4.945223800000E-01
     14 T   1 H    -4.056877900000E-01 -9.665268000000E-02 -4.945565600000E-01
     15 T   1 H    -3.089272600000E-01 -4.059457900000E-01  4.955431700000E-01
     16 T   1 H     3.089618300000E-01  4.056093300000E-01  4.946586300000E-01
     17 T   1 H     4.058405700000E-01  3.088232500000E-01  4.945224500000E-01
     18 T   1 H    -4.057091200000E-01 -3.090420700000E-01  4.945566200000E-01
     19 T   6 C    -1.081096900000E-01  4.459436900000E-01  4.984350300000E-01
     20 T   6 C    -5.351089000000E-02  3.927856300000E-01  4.956792200000E-01
     21 T   6 C     5.338812000000E-02 -3.928147000000E-01  4.954411600000E-01
     22 T   6 C    -5.354789000000E-02 -4.463078100000E-01  4.961556100000E-01
     23 T   6 C     5.342634000000E-02  4.462499700000E-01  4.943183600000E-01
     24 T   6 C     1.080358900000E-01 -4.459643700000E-01  4.961896000000E-01
     25 T   6 C    -4.459605800000E-01  1.081684600000E-01 -4.984349600000E-01
     26 T   6 C    -3.928221500000E-01  5.355594000000E-02 -4.956792000000E-01
     27 T   6 C     3.927986700000E-01 -5.333684000000E-02 -4.954410500000E-01
     28 T   6 C     4.462875800000E-01  5.360286000000E-02 -4.961554800000E-01
     29 T   6 C    -4.462831500000E-01 -5.337644000000E-02 -4.943183600000E-01
     30 T   6 C     4.459279100000E-01 -1.080079400000E-01 -4.961895400000E-01
     31 T   6 C    -4.459551300000E-01  4.458745500000E-01  4.984350300000E-01
     32 T   6 C    -3.927897800000E-01 -4.463742200000E-01  4.956792800000E-01
     33 T   6 C     3.928233700000E-01  4.461720300000E-01  4.954411000000E-01
     34 T   6 C     4.462872600000E-01  3.926899900000E-01  4.961555300000E-01
     35 T   6 C    -4.462570400000E-01 -3.929020000000E-01  4.943184300000E-01
     36 T   6 C     4.459599800000E-01 -4.460417700000E-01  4.961896000000E-01
     37 T   8 O    -4.392633200000E-01  2.803706300000E-01  4.992855700000E-01
     38 T   8 O    -2.803183000000E-01  2.803783300000E-01 -4.948286800000E-01
     39 T   8 O    -2.803205800000E-01  4.393234600000E-01  4.962916900000E-01
     40 T   8 O     2.803245100000E-01 -2.803488900000E-01  4.992856000000E-01
     41 T   8 O     2.803439700000E-01 -4.393043900000E-01 -4.948286900000E-01
     42 T   8 O     4.392638400000E-01 -2.803645800000E-01  4.962916700000E-01

 T = ATOM BELONGING TO THE ASYMMETRIC UNIT

 ****    1 SYMMOPS - TRANSLATORS IN FRACTIONAL UNITS
 **** MATRICES AND TRANSLATORS IN THE CRYSTALLOGRAPHIC REFERENCE FRAME
   V INV                    ROTATION MATRICES                   TRANSLATORS
   1   1  1.00 -0.00  0.00  0.00  1.00  0.00  0.00  0.00  1.00  0.00  0.00  0.00

 DIRECT LATTICE VECTORS CARTESIAN COMPONENTS (ANGSTROM)
          X                    Y                    Z
   0.130113578931E+02  -0.751088897922E+01   0.000000000000E+00
   0.000000000000E+00   0.150239160000E+02   0.000000000000E+00
  -0.765249249636E-05  -0.202946885414E-04   0.359999999993E+01


 CARTESIAN COORDINATES - PRIMITIVE CELL
 *******************************************************************************
 *      ATOM          X(ANGSTROM)         Y(ANGSTROM)         Z(ANGSTROM)
 *******************************************************************************
    1     5 B    -5.026536939020E+00  6.316822537536E+00 -1.795223267967E+00
    2     5 B    -2.957006821844E+00  7.511872104588E+00 -1.795223195967E+00
    3     5 B    -5.026600128662E+00 -6.317641219805E+00  1.794733595967E+00
    4     5 B     2.956903206918E+00 -7.511620880189E+00 -1.795223231967E+00
    5     5 B     5.027113948226E+00  6.316940774697E+00 -1.795223267967E+00
    6     5 B     5.026849733105E+00 -6.315953375536E+00  1.794733595967E+00
    7     1 H    -1.261537952335E+00  5.369557670189E+00  1.783955231968E+00
    8     1 H     1.257342669285E+00 -5.367408431262E+00  1.780771247968E+00
    9     1 H    -1.262477364565E+00 -5.369860857754E+00  1.780281215968E+00
   10     1 H     1.258665274597E+00  5.368391715901E+00  1.780403435968E+00
   11     1 H    -4.020084228819E+00  3.778013149201E+00 -1.783955087968E+00
   12     1 H     4.019598936093E+00 -3.771076533653E+00 -1.780770887968E+00
   13     1 H     5.280923482270E+00 -1.590363651386E+00 -1.780280567968E+00
   14     1 H    -5.278545243943E+00  1.594984242290E+00 -1.780403615968E+00
   15     1 H    -4.019566934922E+00 -3.778587153894E+00  1.783955411968E+00
   16     1 H     4.020009160052E+00  3.773252459848E+00  1.780771067968E+00
   17     1 H     5.280533119463E+00  1.591501066136E+00  1.780280819968E+00
   18     1 H    -5.278830345388E+00 -1.595795978843E+00  1.780403831968E+00
   19     6 C    -1.406657682568E+00  7.511810302874E+00  1.794366107967E+00
   20     6 C    -6.962531341475E-01  6.303082605441E+00  1.784445191968E+00
   21     6 C     6.946481451977E-01 -6.302617353318E+00  1.783588175968E+00
   22     6 C    -6.967345580351E-01 -6.303108860046E+00  1.786160195968E+00
   23     6 C     6.951454478886E-01  6.303132723939E+00  1.779546095968E+00
   24     6 C     1.405689832998E+00 -7.511586879447E+00  1.786282559968E+00
   25     6 C     7.208808994751E+00 -2.536204601258E+00 -1.794365855967E+00
   26     6 C    -5.111145788789E+00  3.755073560743E+00 -1.784445119968E+00
   27     6 C     5.110847866646E+00 -3.751585350598E+00 -1.783587779968E+00
   28     6 C     5.806811223432E+00 -2.546681530862E+00 -1.786159727968E+00
   29     6 C    -5.806746003523E+00  2.550070074043E+00 -1.779546095968E+00
   30     6 C     5.802131428599E+00 -4.972007172625E+00 -1.786282343968E+00
   31     6 C     7.208872278112E+00  2.537402162080E+00  1.794366107967E+00
   32     6 C    -5.110732197497E+00 -3.756098415751E+00  1.784445407968E+00
   33     6 C     5.111161664467E+00  3.752788324935E+00  1.783587959968E+00
   34     6 C     5.806799466145E+00  2.547717291780E+00  1.786159907968E+00
   35     6 C    -5.806413842504E+00 -2.551149592637E+00  1.779546347968E+00
   36     6 C     5.802541108673E+00  4.973055946062E+00  1.786282559968E+00
   37     8 O     7.295941806465E+00  6.237110875186E-04  1.797428051967E+00
   38     8 O    -3.647317938600E+00  6.317830150677E+00 -1.781383247968E+00
   39     8 O    -3.647355189038E+00 -6.318110557246E+00  1.786650083968E+00
   40     8 O     3.647398705026E+00 -6.317434579662E+00  1.797428159967E+00
   41     8 O     3.647659513503E+00  6.318221353940E+00 -1.781383283968E+00
   42     8 O    -7.295942659207E+00 -5.569269879923E-04  1.786650011968E+00

 *******************************************************************************
 STARTING BASIS SET HANDLING 
 *******************************************************************************

 Loading internal basis set: SOLDEF2MSVP         

 Please cite in your publication:
 L. Dona', J. G. Brandenburg and B. Civalleri, J. Chem. Phys., 151, 121101 (2019
 )                                                                              
                                                                                
                    

 *******************************************************************************
 LOCAL ATOMIC FUNCTIONS BASIS SET
 *******************************************************************************
   ATOM   X(AU)   Y(AU)   Z(AU)  N. TYPE  EXPONENT  S COEF   P COEF   D/F/G COEF
 *******************************************************************************
   1 B   -9.499  11.937  -3.392
                                  1 S  
                                         2.410E+03 1.755E-03 0.000E+00 0.000E+00
                                         3.619E+02 1.344E-02 0.000E+00 0.000E+00
                                         8.231E+01 6.637E-02 0.000E+00 0.000E+00
                                         2.311E+01 2.303E-01 0.000E+00 0.000E+00
                                         7.252E+00 5.150E-01 0.000E+00 0.000E+00
                                  2 S  
                                         2.367E+00 1.000E+00 0.000E+00 0.000E+00
                                  3 S  
                                         5.533E-01 1.000E+00 0.000E+00 0.000E+00
                                  4 S  
                                         1.716E-01 1.000E+00 0.000E+00 0.000E+00
                           5-     7 P  
                                         6.002E+00 0.000E+00-3.555E-02 0.000E+00
                                         1.240E+00 0.000E+00-1.983E-01 0.000E+00
                                         3.367E-01 0.000E+00-5.048E-01 0.000E+00
                           8-    10 P  
                                         1.256E-01 0.000E+00 1.000E+00 0.000E+00
                          11-    15 D  
                                         8.880E-01 0.000E+00 0.000E+00 1.000E+00
   2 B   -5.588  14.195  -3.392
   3 B   -9.499 -11.939   3.392
   4 B    5.588 -14.195  -3.392
   5 B    9.500  11.937  -3.392
   6 B    9.499 -11.935   3.392
   7 H   -2.384  10.147   3.371
                                 91 S  
                                         1.874E+01 1.968E-02 0.000E+00 0.000E+00
                                         2.826E+00 1.380E-01 0.000E+00 0.000E+00
                                         6.401E-01 4.783E-01 0.000E+00 0.000E+00
                                 92 S  
                                         1.756E-01 1.000E+00 0.000E+00 0.000E+00
   8 H    2.376 -10.143   3.365
   9 H   -2.386 -10.148   3.364
  10 H    2.379  10.145   3.364
  11 H   -7.597   7.139  -3.371
  12 H    7.596  -7.126  -3.365
  13 H    9.979  -3.005  -3.364
  14 H   -9.975   3.014  -3.364
  15 H   -7.596  -7.140   3.371
  16 H    7.597   7.130   3.365
  17 H    9.979   3.008   3.364
  18 H   -9.976  -3.016   3.364
  19 C   -2.658  14.195   3.391
                                115 S  
                                         3.624E+03 1.634E-03 0.000E+00 0.000E+00
                                         5.440E+02 1.252E-02 0.000E+00 0.000E+00
                                         1.237E+02 6.211E-02 0.000E+00 0.000E+00
                                         3.476E+01 2.182E-01 0.000E+00 0.000E+00
                                         1.093E+01 4.980E-01 0.000E+00 0.000E+00
                                116 S  
                                         3.574E+00 1.000E+00 0.000E+00 0.000E+00
                                117 S  
                                         7.742E-01 1.000E+00 0.000E+00 0.000E+00
                                118 S  
                                         2.330E-01 1.000E+00 0.000E+00 0.000E+00
                         119-   121 P  
                                         9.443E+00 0.000E+00 3.790E-02 0.000E+00
                                         2.002E+00 0.000E+00 2.082E-01 0.000E+00
                                         5.463E-01 0.000E+00 5.047E-01 0.000E+00
                         122-   124 P  
                                         1.820E-01 0.000E+00 1.000E+00 0.000E+00
                         125-   129 D  
                                         8.880E-01 0.000E+00 0.000E+00 1.000E+00
  20 C   -1.316  11.911   3.372
  21 C    1.313 -11.910   3.370
  22 C   -1.317 -11.911   3.375
  23 C    1.314  11.911   3.363
  24 C    2.656 -14.195   3.376
  25 C   13.623  -4.793  -3.391
  26 C   -9.659   7.096  -3.372
  27 C    9.658  -7.089  -3.370
  28 C   10.973  -4.813  -3.375
  29 C  -10.973   4.819  -3.363
  30 C   10.964  -9.396  -3.376
  31 C   13.623   4.795   3.391
  32 C   -9.658  -7.098   3.372
  33 C    9.659   7.092   3.370
  34 C   10.973   4.814   3.375
  35 C  -10.973  -4.821   3.363
  36 C   10.965   9.398   3.376
  37 O   13.787   0.001   3.397
                                385 S  
                                         6.773E+03 1.727E-03 0.000E+00 0.000E+00
                                         1.017E+03 1.325E-02 0.000E+00 0.000E+00
                                         2.313E+02 6.603E-02 0.000E+00 0.000E+00
                                         6.501E+01 2.353E-01 0.000E+00 0.000E+00
                                         2.050E+01 5.498E-01 0.000E+00 0.000E+00
                                386 S  
                                         6.716E+00 1.000E+00 0.000E+00 0.000E+00
                                387 S  
                                         1.147E+00 1.000E+00 0.000E+00 0.000E+00
                                388 S  
                                         3.342E-01 1.000E+00 0.000E+00 0.000E+00
                         389-   391 P  
                                         1.769E+01 0.000E+00 4.359E-02 0.000E+00
                                         3.854E+00 0.000E+00 2.318E-01 0.000E+00
                                         1.047E+00 0.000E+00 5.146E-01 0.000E+00
                         392-   394 P  
                                         2.759E-01 0.000E+00 1.000E+00 0.000E+00
                         395-   399 D  
                                         8.000E-01 0.000E+00 0.000E+00 1.000E+00
  38 O   -6.892  11.939  -3.366
  39 O   -6.893 -11.939   3.376
  40 O    6.893 -11.938   3.397
  41 O    6.893  11.940  -3.366
  42 O  -13.787  -0.001   3.376

 *******************************************************************************
 FINISHED BASIS SET HANDLING 
 *******************************************************************************

 INFORMATION **** SET_MPP **** PCRYSTAL CALCULATION
 INFORMATION **** READM2 **** NEW DEFAULT: FOCK/KS MATRIX MIXING SET TO 30 %
 INFORMATION **** READM2 **** NEW DEFAULT: FULL DIRECT SCF MODE
 INFORMATION **** READM2 **** NEW DEFAULT: COULOMB BIPOLAR BUFFER SET TO 32 Mb
 INFORMATION **** READM2 **** NEW DEFAULT: EXCHANGE BIPOLAR BUFFER SET TO 32 Mb

 *******************************************************************************
 NEW DEFAULT: DFT INTEGRATION GRID INCREASED TO XLGRID
 NEW DEFAULT: DIIS ACCELERATOR ACTIVE
 USE KEYWORD NODIIS TO TURN IT OFF
 *******************************************************************************

 WARNING **** RDDFTP **** HSEsol-HJS ACTIVE
 RANGE SEPARATION - OMEGA:   0.110000000000000     
 WARNING **** RDDFTP **** HSEsol-3c has to be combined with sol-def2-mSVP basis set
 *******************************************************************************
 N. OF ATOMS PER CELL        42  COULOMB OVERLAP TOL         (T1) 10**   -6
 NUMBER OF SHELLS           234  COULOMB PENETRATION TOL     (T2) 10**   -6
 NUMBER OF AO               474  EXCHANGE OVERLAP TOL        (T3) 10**   -6
 N. OF ELECTRONS PER CELL   198  EXCHANGE PSEUDO OVP (F(G))  (T4) 10**   -6
 CORE ELECTRONS PER CELL     60  EXCHANGE PSEUDO OVP (P(G))  (T5) 10**  -12
 N. OF SYMMETRY OPERATORS     1  POLE ORDER IN MONO ZONE                  4
 *******************************************************************************
 TYPE OF CALCULATION :  RESTRICTED CLOSED SHELL
 KOHN-SHAM HAMILTONIAN

 (EXCHANGE)[CORRELATION] FUNCTIONAL:(HSEsol GGA)[PBEsol]

 RANGE-SEPARATED HYBRID FUNCTIONAL 
 OMEGA (SHORT-RANGE)[LONG-RANGE]:(    0.1100)[    0.0000]

 HYBRID EXCHANGE - PERCENTAGE OF FOCK EXCHANGE    25.0000

 CAPPA:IS1  2;IS2  2;IS3  8; K PTS MONK NET  20; SYMMOPS:K SPACE   2;G SPACE   1

 *******************************************************************************
 MAX NUMBER OF SCF CYCLES      50  CONVERGENCE ON DELTAP        10**-16
 WEIGHT OF F(I) IN F(I+1)      30% CONVERGENCE ON ENERGY        10**- 6
 SHRINK. FACT.(MONKH.)    2  2  8  NUMBER OF K POINTS IN THE IBZ     20
 SHRINKING FACTOR(GILAT NET)    8  NUMBER OF K POINTS(GILAT NET)   1028
 *******************************************************************************
 *** K POINTS COORDINATES (OBLIQUE COORDINATES IN UNITS OF IS =  2)
   1-R(  0  0  0)   2-R(  1  0  0)   3-R(  0  1  0)   4-R(  1  1  0)
   5-C(  0  0  1)   6-C(  1  0  1)   7-C(  0  1  1)   8-C(  1  1  1)
   9-C(  0  0  2)  10-C(  1  0  2)  11-C(  0  1  2)  12-C(  1  1  2)
  13-C(  0  0  3)  14-C(  1  0  3)  15-C(  0  1  3)  16-C(  1  1  3)
  17-R(  0  0  4)  18-R(  1  0  4)  19-R(  0  1  4)  20-R(  1  1  4)

 DIRECT LATTICE VECTORS COMPON. (A.U.)     RECIP. LATTICE VECTORS COMPON. (A.U.) 
        X            Y            Z              X            Y            Z
   24.5879030  -14.1935232    0.0000000      0.2555397    0.0000000    0.0000005
    0.0000000   28.3910867    0.0000000      0.1277517    0.2213084    0.0000015
   -0.0000145   -0.0000384    6.8030141      0.0000000    0.0000000    0.9235885

 DISK SPACE FOR EIGENVECTORS (FTN 10)     7189632 REALS

 SYMMETRY ADAPTION OF THE BLOCH FUNCTIONS DISABLED
 TTTTTTTTTTTTTTTTTTTTTTTTTTTTTT gordsh1     TELAPSE        0.04 TCPU        0.04

 MATRIX SIZE: P(G)  370732, F(G)   78191, P(G) IRR  187817, F(G) IRR   79031
 MAX G-VECTOR INDEX FOR 1- AND 2-ELECTRON INTEGRALS 123

 TTTTTTTTTTTTTTTTTTTTTTTTTTTTTT INPUT       TELAPSE        0.29 TCPU        0.29

 NEIGHBORS OF THE NON-EQUIVALENT ATOMS

 N = NUMBER OF NEIGHBORS AT DISTANCE R
    ATOM  N     R/ANG      R/AU   NEIGHBORS (ATOM LABELS AND CELL INDICES)
   1 B    1     1.3791     2.6061   37 O   -1 0-1
   1 B    1     1.3793     2.6065   38 O    0 0 0
   1 B    1     1.5503     2.9297   25 C   -1 0 0
   1 B    1     2.3895     4.5155    3 B    0 1-1
   1 B    1     2.3898     4.5160    2 B    0 0 0
   1 B    1     2.5632     4.8437   26 C    0 0 0

   2 B    1     1.3793     2.6065   39 O    0 1-1
   2 B    1     1.3793     2.6065   38 O    0 0 0
   2 B    1     1.5504     2.9298   19 C    0 0-1
   2 B    1     2.3895     4.5156    3 B    0 1-1
   2 B    1     2.3898     4.5160    1 B    0 0 0
   2 B    1     2.5634     4.8440   22 C    0 1-1

   3 B    1     1.3791     2.6061   37 O   -1-1 0
   3 B    1     1.3793     2.6064   39 O    0 0 0
   3 B    1     1.5502     2.9294   31 C   -1-1 0
   3 B    1     2.3895     4.5155    1 B    0-1 1
   3 B    1     2.3895     4.5156    2 B    0-1 1
   3 B    1     2.5629     4.8433   32 C    0 0 0

   4 B    1     1.3795     2.6068   40 O    0 0-1
   4 B    1     1.3795     2.6070   41 O    0-1 0
   4 B    1     1.5513     2.9316   24 C    0 0-1
   4 B    1     2.3905     4.5174    6 B    0 0-1
   4 B    1     2.3905     4.5175    5 B    0-1 0
   4 B    1     2.5648     4.8468   23 C    0-1-1

   5 B    1     1.3795     2.6069   41 O    0 0 0
   5 B    1     1.3797     2.6072   42 O    1 1-1
   5 B    1     1.5516     2.9322   36 C    0 0-1
   5 B    1     2.3905     4.5175    4 B    0 1 0
   5 B    1     2.3911     4.5185    6 B    0 1-1
   5 B    1     2.5651     4.8473   35 C    1 1-1

   6 B    1     1.3795     2.6068   40 O    0 0 0
   6 B    1     1.3796     2.6071   42 O    1 0 0
   6 B    1     1.5516     2.9322   30 C    0 0 1
   6 B    1     2.3905     4.5174    4 B    0 0 1
   6 B    1     2.3911     4.5185    5 B    0-1 1
   6 B    1     2.5651     4.8473   29 C    1 0 1

   7 H    1     1.0913     2.0623   20 C    0 0 0
   7 H    1     2.1472     4.0576   19 C    0 0 0
   7 H    1     2.1680     4.0969   23 C    0 0 0
   7 H    1     2.5202     4.7625   10 H    0 0 0
   7 H    1     2.5676     4.8520   38 O    0 0 1
   7 H    1     2.7321     5.1630    2 B    0 0 1

   8 H    1     1.0914     2.0625   21 C    0 0 0
   8 H    1     2.1493     4.0616   24 C    0 0 0
   8 H    1     2.1666     4.0942   22 C    0 0 0
   8 H    1     2.5198     4.7618    9 H    0 0 0
   8 H    1     2.5720     4.8604   40 O    0 0 0
   8 H    1     2.7362     5.1707    4 B    0 0 1

   9 H    1     1.0914     2.0624   22 C    0 0 0
   9 H    1     2.1471     4.0575   19 C    0-1 0
   9 H    1     2.1680     4.0970   21 C    0 0 0
   9 H    1     2.5198     4.7618    8 H    0 0 0
   9 H    1     2.5665     4.8500   39 O    0 0 0
   9 H    1     2.7315     5.1618    2 B    0-1 1

  10 H    1     1.0915     2.0626   23 C    0 0 0
  10 H    1     2.1490     4.0610   24 C    0 1 0
  10 H    1     2.1669     4.0948   20 C    0 0 0
  10 H    1     2.5202     4.7625    7 H    0 0 0
  10 H    1     2.5712     4.8588   41 O    0 0 1
  10 H    1     2.7351     5.1686    4 B    0 1 1

  11 H    1     1.0913     2.0623   26 C    0 0 0
  11 H    1     2.1469     4.0571   25 C   -1 0 0
  11 H    1     2.1680     4.0968   29 C    0 0 0
  11 H    1     2.5198     4.7617   14 H    0 0 0
  11 H    1     2.5670     4.8510   38 O    0 0 0
  11 H    1     2.7310     5.1609    1 B    0 0 0

  12 H    1     1.0914     2.0625   27 C    0 0 0
  12 H    1     2.1493     4.0617   30 C    0 0 0
  12 H    1     2.1664     4.0939   28 C    0 0 0
  12 H    1     2.5192     4.7606   13 H    0 0 0
  12 H    1     2.5735     4.8632   40 O    0 0-1
  12 H    1     2.7371     5.1723    6 B    0 0-1

  13 H    1     1.0914     2.0624   28 C    0 0 0
  13 H    1     2.1475     4.0581   25 C    0 0 0
  13 H    1     2.1679     4.0967   27 C    0 0 0
  13 H    1     2.5192     4.7606   12 H    0 0 0
  13 H    1     2.5675     4.8519   37 O    0 0-1
  13 H    1     2.7328     5.1643    1 B    1 0 0

  14 H    1     1.0914     2.0625   29 C    0 0 0
  14 H    1     2.1491     4.0612   30 C   -1 0 0
  14 H    1     2.1666     4.0942   26 C    0 0 0
  14 H    1     2.5198     4.7617   11 H    0 0 0
  14 H    1     2.5723     4.8609   42 O    0 0-1
  14 H    1     2.7355     5.1693    6 B   -1 0-1

  15 H    1     1.0914     2.0624   32 C    0 0 0
  15 H    1     2.1475     4.0582   31 C   -1-1 0
  15 H    1     2.1678     4.0966   35 C    0 0 0
  15 H    1     2.5200     4.7621   18 H    0 0 0
  15 H    1     2.5667     4.8503   39 O    0 0 0
  15 H    1     2.7315     5.1618    3 B    0 0 0

  16 H    1     1.0913     2.0623   33 C    0 0 0
  16 H    1     2.1487     4.0605   36 C    0 0 0
  16 H    1     2.1667     4.0945   34 C    0 0 0
  16 H    1     2.5197     4.7616   17 H    0 0 0
  16 H    1     2.5723     4.8610   41 O    0 0 1
  16 H    1     2.7359     5.1701    5 B    0 0 1

  17 H    1     1.0915     2.0626   34 C    0 0 0
  17 H    1     2.1479     4.0589   31 C    0 0 0
  17 H    1     2.1679     4.0968   33 C    0 0 0
  17 H    1     2.5197     4.7616   16 H    0 0 0
  17 H    1     2.5677     4.8522   37 O    0 0 0
  17 H    1     2.7331     5.1648    3 B    1 1 0

  18 H    1     1.0914     2.0624   35 C    0 0 0
  18 H    1     2.1486     4.0602   36 C   -1-1 0
  18 H    1     2.1668     4.0947   32 C    0 0 0
  18 H    1     2.5200     4.7621   15 H    0 0 0
  18 H    1     2.5717     4.8598   42 O    0 0 0
  18 H    1     2.7349     5.1682    5 B   -1-1 1

  19 C    1     1.4020     2.6495   22 C    0 1 0
  19 C    1     1.4021     2.6495   20 C    0 0 0
  19 C    1     1.5504     2.9298    2 B    0 0 1
  19 C    1     2.1471     4.0575    9 H    0 1 0
  19 C    1     2.1472     4.0576    7 H    0 0 0
  19 C    1     2.4246     4.5817   21 C    0 1 0

  20 C    1     1.0913     2.0623    7 H    0 0 0
  20 C    1     1.3914     2.6294   23 C    0 0 0
  20 C    1     1.4021     2.6495   19 C    0 0 0
  20 C    1     2.1669     4.0948   10 H    0 0 0
  20 C    1     2.4177     4.5688   22 C    0 1 0
  20 C    1     2.4250     4.5825   24 C    0 1 0

  21 C    1     1.0914     2.0625    8 H    0 0 0
  21 C    1     1.3914     2.6293   22 C    0 0 0
  21 C    1     1.4026     2.6505   24 C    0 0 0
  21 C    1     2.1680     4.0970    9 H    0 0 0
  21 C    1     2.4182     4.5697   23 C    0-1 0
  21 C    1     2.4246     4.5817   19 C    0-1 0

  22 C    1     1.0914     2.0624    9 H    0 0 0
  22 C    1     1.3914     2.6293   21 C    0 0 0
  22 C    1     1.4020     2.6495   19 C    0-1 0
  22 C    1     2.1666     4.0942    8 H    0 0 0
  22 C    1     2.4177     4.5688   20 C    0-1 0
  22 C    1     2.4250     4.5826   24 C    0 0 0

  23 C    1     1.0915     2.0626   10 H    0 0 0
  23 C    1     1.3914     2.6294   20 C    0 0 0
  23 C    1     1.4025     2.6504   24 C    0 1 0
  23 C    1     2.1680     4.0969    7 H    0 0 0
  23 C    1     2.4182     4.5697   21 C    0 1 0
  23 C    1     2.4246     4.5818   19 C    0 0 0

  24 C    1     1.4025     2.6504   23 C    0-1 0
  24 C    1     1.4026     2.6505   21 C    0 0 0
  24 C    1     1.5513     2.9316    4 B    0 0 1
  24 C    1     2.1490     4.0610   10 H    0-1 0
  24 C    1     2.1493     4.0616    8 H    0 0 0
  24 C    1     2.4250     4.5825   20 C    0-1 0

  25 C    1     1.4020     2.6494   26 C    1 0 0
  25 C    1     1.4021     2.6495   28 C    0 0 0
  25 C    1     1.5503     2.9297    1 B    1 0 0
  25 C    1     2.1469     4.0571   11 H    1 0 0
  25 C    1     2.1475     4.0581   13 H    0 0 0
  25 C    1     2.4246     4.5818   27 C    0 0 0

  26 C    1     1.0913     2.0623   11 H    0 0 0
  26 C    1     1.3914     2.6293   29 C    0 0 0
  26 C    1     1.4020     2.6494   25 C   -1 0 0
  26 C    1     2.1666     4.0942   14 H    0 0 0
  26 C    1     2.4175     4.5684   28 C   -1 0 0
  26 C    1     2.4251     4.5828   30 C   -1 0 0

  27 C    1     1.0914     2.0625   12 H    0 0 0
  27 C    1     1.3915     2.6295   28 C    0 0 0
  27 C    1     1.4026     2.6505   30 C    0 0 0
  27 C    1     2.1679     4.0967   13 H    0 0 0
  27 C    1     2.4179     4.5691   29 C    1 0 0
  27 C    1     2.4246     4.5818   25 C    0 0 0

  28 C    1     1.0914     2.0624   13 H    0 0 0
  28 C    1     1.3915     2.6295   27 C    0 0 0
  28 C    1     1.4021     2.6495   25 C    0 0 0
  28 C    1     2.1664     4.0939   12 H    0 0 0
  28 C    1     2.4175     4.5684   26 C    1 0 0
  28 C    1     2.4253     4.5832   30 C    0 0 0

  29 C    1     1.0914     2.0625   14 H    0 0 0
  29 C    1     1.3914     2.6293   26 C    0 0 0
  29 C    1     1.4025     2.6504   30 C   -1 0 0
  29 C    1     2.1680     4.0968   11 H    0 0 0
  29 C    1     2.4179     4.5691   27 C   -1 0 0
  29 C    1     2.4247     4.5819   25 C   -1 0 0

  30 C    1     1.4025     2.6504   29 C    1 0 0
  30 C    1     1.4026     2.6505   27 C    0 0 0
  30 C    1     1.5516     2.9322    6 B    0 0-1
  30 C    1     2.1491     4.0612   14 H    1 0 0
  30 C    1     2.1493     4.0617   12 H    0 0 0
  30 C    1     2.4251     4.5828   26 C    1 0 0

  31 C    1     1.4021     2.6496   32 C    1 1 0
  31 C    1     1.4021     2.6497   34 C    0 0 0
  31 C    1     1.5502     2.9294    3 B    1 1 0
  31 C    1     2.1475     4.0582   15 H    1 1 0
  31 C    1     2.1479     4.0589   17 H    0 0 0
  31 C    1     2.4244     4.5814   33 C    0 0 0

  32 C    1     1.0914     2.0624   15 H    0 0 0
  32 C    1     1.3914     2.6293   35 C    0 0 0
  32 C    1     1.4021     2.6496   31 C   -1-1 0
  32 C    1     2.1668     4.0947   18 H    0 0 0
  32 C    1     2.4179     4.5692   34 C   -1-1 0
  32 C    1     2.4251     4.5827   36 C   -1-1 0

  33 C    1     1.0913     2.0623   16 H    0 0 0
  33 C    1     1.3914     2.6294   34 C    0 0 0
  33 C    1     1.4025     2.6504   36 C    0 0 0
  33 C    1     2.1679     4.0968   17 H    0 0 0
  33 C    1     2.4178     4.5690   35 C    1 1 0
  33 C    1     2.4244     4.5814   31 C    0 0 0

  34 C    1     1.0915     2.0626   17 H    0 0 0
  34 C    1     1.3914     2.6294   33 C    0 0 0
  34 C    1     1.4021     2.6497   31 C    0 0 0
  34 C    1     2.1667     4.0945   16 H    0 0 0
  34 C    1     2.4179     4.5692   32 C    1 1 0
  34 C    1     2.4253     4.5832   36 C    0 0 0

  35 C    1     1.0914     2.0624   18 H    0 0 0
  35 C    1     1.3914     2.6293   32 C    0 0 0
  35 C    1     1.4025     2.6503   36 C   -1-1 0
  35 C    1     2.1678     4.0966   15 H    0 0 0
  35 C    1     2.4178     4.5690   33 C   -1-1 0
  35 C    1     2.4245     4.5817   31 C   -1-1 0

  36 C    1     1.4025     2.6503   35 C    1 1 0
  36 C    1     1.4025     2.6504   33 C    0 0 0
  36 C    1     1.5516     2.9322    5 B    0 0 1
  36 C    1     2.1486     4.0602   18 H    1 1 0
  36 C    1     2.1487     4.0605   16 H    0 0 0
  36 C    1     2.4251     4.5827   32 C    1 1 0

  37 O    1     1.3791     2.6061    1 B    1 0 1
  37 O    1     1.3791     2.6061    3 B    1 1 0
  37 O    1     2.3880     4.5126   38 O    1 0 1
  37 O    1     2.3882     4.5130   39 O    1 1 0
  37 O    1     2.5383     4.7966   31 C    0 0 0
  37 O    1     2.5384     4.7968   25 C    0 0 1

  38 O    1     1.3793     2.6065    1 B    0 0 0
  38 O    1     1.3793     2.6065    2 B    0 0 0
  38 O    1     2.3880     4.5126   37 O   -1 0-1
  38 O    1     2.3882     4.5131   39 O    0 1-1
  38 O    1     2.5391     4.7981   19 C    0 0-1
  38 O    1     2.5395     4.7990   25 C   -1 0 0

  39 O    1     1.3793     2.6064    3 B    0 0 0
  39 O    1     1.3793     2.6065    2 B    0-1 1
  39 O    1     2.3882     4.5130   37 O   -1-1 0
  39 O    1     2.3882     4.5131   38 O    0-1 1
  39 O    1     2.5390     4.7980   19 C    0-1 0
  39 O    1     2.5391     4.7982   31 C   -1-1 0

  40 O    1     1.3795     2.6068    6 B    0 0 0
  40 O    1     1.3795     2.6068    4 B    0 0 1
  40 O    1     2.3880     4.5126   42 O    1 0 0
  40 O    1     2.3884     4.5134   41 O    0-1 1
  40 O    1     2.5400     4.7998   24 C    0 0 0
  40 O    1     2.5403     4.8005   30 C    0 0 1

  41 O    1     1.3795     2.6069    5 B    0 0 0
  41 O    1     1.3795     2.6070    4 B    0 1 0
  41 O    1     2.3881     4.5128   42 O    1 1-1
  41 O    1     2.3884     4.5134   40 O    0 1-1
  41 O    1     2.5404     4.8006   24 C    0 1-1
  41 O    1     2.5405     4.8008   36 C    0 0-1

  42 O    1     1.3796     2.6071    6 B   -1 0 0
  42 O    1     1.3797     2.6072    5 B   -1-1 1
  42 O    1     2.3880     4.5126   40 O   -1 0 0
  42 O    1     2.3881     4.5128   41 O   -1-1 1
  42 O    1     2.5409     4.8016   36 C   -1-1 0
  42 O    1     2.5410     4.8019   30 C   -1 0 1


 SYMMETRY ALLOWED INTERNAL DEGREE(S) OF FREEDOM: 123
 TTTTTTTTTTTTTTTTTTTTTTTTTTTTTT SYMM        TELAPSE        0.29 TCPU        0.29
 TTTTTTTTTTTTTTTTTTTTTTTTTTTTTT INT_SCREEN  TELAPSE        0.32 TCPU        0.32

 DFT PARAMETERS

     ATOM       ELECTRONS   NET CHARGE   R(ANGSTROM)
   1   5  B       5.0000      0.0000     0.89000000
   7   1  H       1.0000      0.0000     1.11000000
  19   6  C       6.0000      0.0000     0.77000000
  37   8  O       8.0000      0.0000     0.74000000

 SIZE OF GRID=    1268196
 TTTTTTTTTTTTTTTTTTTTTTTTTTTTTT MAKE_GRID2  TELAPSE       11.56 TCPU       11.55
 BECKE WEIGHT FUNCTION
 RADSAFE =     2.00
 TOLERANCES - DENSITY:10**- 6; POTENTIAL:10**- 9; GRID WGT:10**-14

 RADIAL INTEGRATION  - INTERVALS (POINTS,UPPER LIMIT):            1( 75,  4.0*R)

 ANGULAR INTEGRATION - INTERVALS (ACCURACY LEVEL [N. POINTS] UPPER LIMIT):
  1(  4[  86]   0.2)  2(  8[ 194]   0.5)  3( 12[ 350]   0.9)  4( 16[ 974]   3.5)
  5( 12[ 350]9999.0)
 TTTTTTTTTTTTTTTTTTTTTTTTTTTTTT INT_CALC    TELAPSE       11.66 TCPU       11.65
 EEEEEEEEEE INT_CALC TERMINATION  DATE 19 02 2026 TIME 18:34:58.9

 *******************************************************************************
 cof-1_z36_L000_incl                                                             
 CRYSTAL - SCF - TYPE OF CALCULATION :  RESTRICTED CLOSED SHELL
 *******************************************************************************

 CAPPA:IS1  2;IS2  2;IS3  8; K PTS MONK NET  20; SYMMOPS:K SPACE   2;G SPACE   1

 TTTTTTTTTTTTTTTTTTTTTTTTTTTTTT SDIK        TELAPSE       12.26 TCPU       19.13

 AAAAAAAAAAAAAAAAAAAAAAAAAAAAAAAAAAAAAAAAAAAAAAAAAAAAAAAAAAAAAAAAAAAAAAAAAAAAAAA
         ATOMIC WAVEFUNCTION(S)


 NUCLEAR CHARGE  5.0  SYMMETRY SPECIES            S    P
 N. ELECTRONS    5.0  NUMBER OF PRIMITIVE GTOS    8    4
                      NUMBER OF CONTRACTED GTOS   4    2
                      NUMBER OF CLOSED SHELLS     2    0
                      OPEN SHELL OCCUPATION       0    1

  ZNUC  SCFIT    TOTAL HF ENERGY   KINETIC ENERGY   VIRIAL THEOREM ACCURACY
   5.0    11    -2.451164084E+01  2.462155050E+01 -1.995536038E+00  1.5E-06

 NUCLEAR CHARGE  1.0  SYMMETRY SPECIES            S
 N. ELECTRONS    1.0  NUMBER OF PRIMITIVE GTOS    4
                      NUMBER OF CONTRACTED GTOS   2
                      NUMBER OF CLOSED SHELLS     0
                      OPEN SHELL OCCUPATION       1

  ZNUC  SCFIT    TOTAL HF ENERGY   KINETIC ENERGY   VIRIAL THEOREM ACCURACY
   1.0     1    -4.977266687E-01  5.190767460E-01 -1.958869132E+00  0.0E+00

 NUCLEAR CHARGE  6.0  SYMMETRY SPECIES            S    P
 N. ELECTRONS    6.0  NUMBER OF PRIMITIVE GTOS    8    4
                      NUMBER OF CONTRACTED GTOS   4    2
                      NUMBER OF CLOSED SHELLS     2    0
                      OPEN SHELL OCCUPATION       0    2

  ZNUC  SCFIT    TOTAL HF ENERGY   KINETIC ENERGY   VIRIAL THEOREM ACCURACY
   6.0     9    -3.766704647E+01  3.775180683E+01 -1.997754800E+00  1.1E-06

 NUCLEAR CHARGE  8.0  SYMMETRY SPECIES            S    P
 N. ELECTRONS    8.0  NUMBER OF PRIMITIVE GTOS    8    4
                      NUMBER OF CONTRACTED GTOS   4    2
                      NUMBER OF CLOSED SHELLS     2    0
                      OPEN SHELL OCCUPATION       0    4

  ZNUC  SCFIT    TOTAL HF ENERGY   KINETIC ENERGY   VIRIAL THEOREM ACCURACY
   8.0    12    -7.477373220E+01  7.477365593E+01 -2.000001020E+00  3.8E-06

 AAAAAAAAAAAAAAAAAAAAAAAAAAAAAAAAAAAAAAAAAAAAAAAAAAAAAAAAAAAAAAAAAAAAAAAAAAAAAAA

 CHARGE NORMALIZATION FACTOR   1.00000000
 TOTAL ATOMIC CHARGES:
   5.0000000   5.0000000   5.0000000   5.0000000   5.0000000   5.0000000
   1.0000000   1.0000000   1.0000000   1.0000000   1.0000000   1.0000000
   1.0000000   1.0000000   1.0000000   1.0000000   1.0000000   1.0000000
   6.0000000   6.0000000   6.0000000   6.0000000   6.0000000   6.0000000
   6.0000000   6.0000000   6.0000000   6.0000000   6.0000000   6.0000000
   6.0000000   6.0000000   6.0000000   6.0000000   6.0000000   6.0000000
   8.0000000   8.0000000   8.0000000   8.0000000   8.0000000   8.0000000
 TTTTTTTTTTTTTTTTTTTTTTTTTTTTTT MOQGAD      TELAPSE       12.31 TCPU       20.68
 TTTTTTTTTTTTTTTTTTTTTTTTTTTTTT SHELLXN     TELAPSE       22.34 TCPU      337.77
 TTTTTTTTTTTTTTTTTTTTTTTTTTTTTT MONMO3      TELAPSE       22.51 TCPU      343.41
 NUMERICALLY INTEGRATED DENSITY    197.9999286173
 TTTTTTTTTTTTTTTTTTTTTTTTTTTTTT NUMDFT      TELAPSE       23.11 TCPU      362.56
 CYC   0 ETOT(AU) -1.295976298333E+03 DETOT -1.30E+03 tst  0.00E+00 PX  1.00E+00
 TTTTTTTTTTTTTTTTTTTTTTTTTTTTTT DIIS        TELAPSE       23.15 TCPU      363.67
 TTTTTTTTTTTTTTTTTTTTTTTTTTTTTT FDIK        TELAPSE       23.62 TCPU      378.80
 INSULATING STATE
 TOP OF VALENCE BANDS -    BAND     99; K    1; EIG -2.9570328E-01 AU
 BOTTOM OF VIRTUAL BANDS - BAND    100; K   17; EIG -1.7878174E-01 AU
 INDIRECT ENERGY BAND GAP:   3.1816 eV
 BOTTOM OF VIRTUAL BANDS - BAND    100; K    1; EIG -1.3112674E-01 AU
 TTTTTTTTTTTTTTTTTTTTTTTTTTTTTT PDIG        TELAPSE       23.90 TCPU      384.93
 CHARGE NORMALIZATION FACTOR   1.00000000
 TOTAL ATOMIC CHARGES:
   4.1233789   4.1232263   4.1234875   4.1232467   4.1230564   4.1232536
   0.7862809   0.7863903   0.7862383   0.7863520   0.7862606   0.7864195
   0.7862507   0.7863828   0.7862407   0.7864192   0.7862324   0.7863849
   6.0567132   6.2718972   6.2718357   6.2718375   6.2717611   6.0559164
   6.0567593   6.2718750   6.2719329   6.2717862   6.2719444   6.0554410
   6.0570856   6.2716001   6.2721451   6.2715150   6.2721227   6.0554209
   8.7038831   8.7040144   8.7039392   8.7042769   8.7043317   8.7044637
 TTTTTTTTTTTTTTTTTTTTTTTTTTTTTT MOQGAD      TELAPSE       23.96 TCPU      384.99
 TTTTTTTTTTTTTTTTTTTTTTTTTTTTTT SHELLXN     TELAPSE       34.23 TCPU      712.85
 TTTTTTTTTTTTTTTTTTTTTTTTTTTTTT MONMO3      TELAPSE       34.41 TCPU      718.48
 NUMERICALLY INTEGRATED DENSITY    197.9999497995
 TTTTTTTTTTTTTTTTTTTTTTTTTTTTTT NUMDFT      TELAPSE       35.02 TCPU      738.00
 CYC   1 ETOT(AU) -1.288802429156E+03 DETOT  7.17E+00 tst  0.00E+00 PX  1.00E+00
 TTTTTTTTTTTTTTTTTTTTTTTTTTTTTT DIIS        TELAPSE       35.06 TCPU      739.34
 DIIS TEST: 0.11220E+01 AT SCF   CYCLE   1 - MIX   30 %
 TTTTTTTTTTTTTTTTTTTTTTTTTTTTTT FDIK        TELAPSE       35.54 TCPU      754.66
 INSULATING STATE
 TOP OF VALENCE BANDS -    BAND     99; K    1; EIG -1.9372768E-01 AU
 BOTTOM OF VIRTUAL BANDS - BAND    100; K   17; EIG -1.0292669E-01 AU
 INDIRECT ENERGY BAND GAP:   2.4708 eV
 BOTTOM OF VIRTUAL BANDS - BAND    100; K    1; EIG -4.6298237E-02 AU
 TTTTTTTTTTTTTTTTTTTTTTTTTTTTTT PDIG        TELAPSE       35.82 TCPU      760.80
 CHARGE NORMALIZATION FACTOR   1.00000000
 TOTAL ATOMIC CHARGES:
   4.6941362   4.6940779   4.6941154   4.6947020   4.6946881   4.6948276
   0.9239218   0.9239716   0.9238801   0.9239369   0.9239043   0.9239937
   0.9238930   0.9239618   0.9238761   0.9240127   0.9238576   0.9239940
   5.8660821   6.1213055   6.1218517   6.1211817   6.1218543   5.8690107
   5.8659335   6.1210148   6.1218735   6.1212660   6.1217283   5.8694436
   5.8660262   6.1212301   6.1217039   6.1215355   6.1216139   5.8691810
   8.3469030   8.3473178   8.3472643   8.3467469   8.3469775   8.3472033
 TTTTTTTTTTTTTTTTTTTTTTTTTTTTTT MOQGAD      TELAPSE       35.87 TCPU      760.85
 TTTTTTTTTTTTTTTTTTTTTTTTTTTTTT SHELLXN     TELAPSE       46.15 TCPU     1088.83
 TTTTTTTTTTTTTTTTTTTTTTTTTTTTTT MONMO3      TELAPSE       46.33 TCPU     1094.46
 NUMERICALLY INTEGRATED DENSITY    197.9999464897
 TTTTTTTTTTTTTTTTTTTTTTTTTTTTTT NUMDFT      TELAPSE       46.94 TCPU     1114.00
 CYC   2 ETOT(AU) -1.288995892564E+03 DETOT -1.93E-01 tst  4.84E-03 PX  1.56E-01
 TTTTTTTTTTTTTTTTTTTTTTTTTTTTTT DIIS        TELAPSE       46.99 TCPU     1115.50
 DIIS TEST: 0.50086E+00 AT SCF   CYCLE   2 - DIIS ACTIVE - HISTORY:     2 CYCLES
 TTTTTTTTTTTTTTTTTTTTTTTTTTTTTT FDIK        TELAPSE       47.47 TCPU     1130.83
 INSULATING STATE
 TOP OF VALENCE BANDS -    BAND     99; K    1; EIG -2.1197702E-01 AU
 BOTTOM OF VIRTUAL BANDS - BAND    100; K   17; EIG -9.7857321E-02 AU
 INDIRECT ENERGY BAND GAP:   3.1054 eV
 BOTTOM OF VIRTUAL BANDS - BAND    100; K    1; EIG -3.9000601E-02 AU
 TTTTTTTTTTTTTTTTTTTTTTTTTTTTTT PDIG        TELAPSE       47.74 TCPU     1136.96
 CHARGE NORMALIZATION FACTOR   1.00000000
 TOTAL ATOMIC CHARGES:
   4.4723844   4.4722398   4.4724184   4.4716789   4.4714677   4.4716051
   0.8938124   0.8938996   0.8937506   0.8938848   0.8937289   0.8939755
   0.8937873   0.8938756   0.8937609   0.8939467   0.8938090   0.8938803
   5.8981785   6.1654506   6.1644894   6.1653815   6.1644296   5.8962119
   5.8984276   6.1654663   6.1644688   6.1654819   6.1644089   5.8958248
   5.8985260   6.1652861   6.1645907   6.1653729   6.1645153   5.8957939
   8.5131566   8.5133215   8.5132911   8.5132370   8.5133470   8.5134363
 TTTTTTTTTTTTTTTTTTTTTTTTTTTTTT MOQGAD      TELAPSE       47.80 TCPU     1137.02
 TTTTTTTTTTTTTTTTTTTTTTTTTTTTTT SHELLXN     TELAPSE       58.08 TCPU     1465.02
 TTTTTTTTTTTTTTTTTTTTTTTTTTTTTT MONMO3      TELAPSE       58.25 TCPU     1470.64
 NUMERICALLY INTEGRATED DENSITY    197.9999456630
 TTTTTTTTTTTTTTTTTTTTTTTTTTTTTT NUMDFT      TELAPSE       58.86 TCPU     1490.17
 CYC   3 ETOT(AU) -1.289101571393E+03 DETOT -1.06E-01 tst  7.27E-04 PX  5.74E-02
 TTTTTTTTTTTTTTTTTTTTTTTTTTTTTT DIIS        TELAPSE       58.92 TCPU     1491.91
 DIIS TEST: 0.97674E-02 AT SCF   CYCLE   3 - DIIS ACTIVE - HISTORY:     3 CYCLES
 TTTTTTTTTTTTTTTTTTTTTTTTTTTTTT FDIK        TELAPSE       59.40 TCPU     1507.23
 INSULATING STATE
 TOP OF VALENCE BANDS -    BAND     99; K    1; EIG -2.2069136E-01 AU
 BOTTOM OF VIRTUAL BANDS - BAND    100; K   17; EIG -1.0830586E-01 AU
 INDIRECT ENERGY BAND GAP:   3.0582 eV
 BOTTOM OF VIRTUAL BANDS - BAND    100; K    1; EIG -5.0782190E-02 AU
 TTTTTTTTTTTTTTTTTTTTTTTTTTTTTT PDIG        TELAPSE       59.67 TCPU     1513.37
 CHARGE NORMALIZATION FACTOR   1.00000000
 TOTAL ATOMIC CHARGES:
   4.4807477   4.4806827   4.4808110   4.4817236   4.4815653   4.4817450
   0.8785304   0.8785453   0.8784739   0.8785171   0.8785020   0.8785739
   0.8785220   0.8785076   0.8784943   0.8785753   0.8785083   0.8785357
   5.9504104   6.1584044   6.1602184   6.1583152   6.1602574   5.9562676
   5.9501270   6.1581646   6.1603772   6.1581853   6.1603684   5.9565842
   5.9503494   6.1581883   6.1603479   6.1582659   6.1603461   5.9563289
   8.4895371   8.4898686   8.4898210   8.4897109   8.4898693   8.4901255
 TTTTTTTTTTTTTTTTTTTTTTTTTTTTTT MOQGAD      TELAPSE       59.73 TCPU     1513.42
 TTTTTTTTTTTTTTTTTTTTTTTTTTTTTT SHELLXN     TELAPSE       70.01 TCPU     1841.37
 TTTTTTTTTTTTTTTTTTTTTTTTTTTTTT MONMO3      TELAPSE       70.18 TCPU     1847.00
 NUMERICALLY INTEGRATED DENSITY    197.9999463786
 TTTTTTTTTTTTTTTTTTTTTTTTTTTTTT NUMDFT      TELAPSE       70.79 TCPU     1866.49
 CYC   4 ETOT(AU) -1.289103527233E+03 DETOT -1.96E-03 tst  3.17E-05 PX  1.30E-02
 TTTTTTTTTTTTTTTTTTTTTTTTTTTTTT DIIS        TELAPSE       70.85 TCPU     1868.32
 DIIS TEST: 0.35806E-02 AT SCF   CYCLE   4 - DIIS ACTIVE - HISTORY:     4 CYCLES
 TTTTTTTTTTTTTTTTTTTTTTTTTTTTTT FDIK        TELAPSE       71.33 TCPU     1883.60
 INSULATING STATE
 TOP OF VALENCE BANDS -    BAND     99; K    1; EIG -2.1967736E-01 AU
 BOTTOM OF VIRTUAL BANDS - BAND    100; K   17; EIG -1.0675739E-01 AU
 INDIRECT ENERGY BAND GAP:   3.0727 eV
 BOTTOM OF VIRTUAL BANDS - BAND    100; K    1; EIG -4.8884735E-02 AU
 TTTTTTTTTTTTTTTTTTTTTTTTTTTTTT PDIG        TELAPSE       71.60 TCPU     1889.74
 CHARGE NORMALIZATION FACTOR   1.00000000
 TOTAL ATOMIC CHARGES:
   4.4824758   4.4823499   4.4825132   4.4815654   4.4813803   4.4815264
   0.8812561   0.8814211   0.8811895   0.8814074   0.8811809   0.8814926
   0.8812130   0.8814148   0.8811955   0.8814761   0.8812218   0.8814246
   5.9275903   6.1673262   6.1652034   6.1672593   6.1651719   5.9225914
   5.9278612   6.1672976   6.1651814   6.1674158   6.1650504   5.9222764
   5.9279180   6.1671822   6.1652666   6.1673760   6.1651238   5.9222295
   8.4977787   8.4979702   8.4979232   8.4976421   8.4977827   8.4978772
 TTTTTTTTTTTTTTTTTTTTTTTTTTTTTT MOQGAD      TELAPSE       71.66 TCPU     1889.79
 TTTTTTTTTTTTTTTTTTTTTTTTTTTTTT SHELLXN     TELAPSE       81.94 TCPU     2217.81
 TTTTTTTTTTTTTTTTTTTTTTTTTTTTTT MONMO3      TELAPSE       82.11 TCPU     2223.43
 NUMERICALLY INTEGRATED DENSITY    197.9999464248
 TTTTTTTTTTTTTTTTTTTTTTTTTTTTTT NUMDFT      TELAPSE       82.72 TCPU     2242.94
 CYC   5 ETOT(AU) -1.289104294502E+03 DETOT -7.67E-04 tst  8.21E-06 PX  7.93E-03
 TTTTTTTTTTTTTTTTTTTTTTTTTTTTTT DIIS        TELAPSE       82.79 TCPU     2245.02
 DIIS TEST: 0.22355E-03 AT SCF   CYCLE   5 - DIIS ACTIVE - HISTORY:     5 CYCLES
 TTTTTTTTTTTTTTTTTTTTTTTTTTTTTT FDIK        TELAPSE       83.27 TCPU     2260.28
 INSULATING STATE
 TOP OF VALENCE BANDS -    BAND     99; K    1; EIG -2.1932956E-01 AU
 BOTTOM OF VIRTUAL BANDS - BAND    100; K   17; EIG -1.0627417E-01 AU
 INDIRECT ENERGY BAND GAP:   3.0764 eV
 BOTTOM OF VIRTUAL BANDS - BAND    100; K    1; EIG -4.8386924E-02 AU
 TTTTTTTTTTTTTTTTTTTTTTTTTTTTTT PDIG        TELAPSE       83.55 TCPU     2266.42
 CHARGE NORMALIZATION FACTOR   1.00000000
 TOTAL ATOMIC CHARGES:
   4.4807208   4.4806399   4.4807751   4.4821523   4.4819909   4.4821579
   0.8824639   0.8823924   0.8824064   0.8823698   0.8824187   0.8824345
   0.8824562   0.8823530   0.8824238   0.8824291   0.8824539   0.8823749
   5.9224732   6.1629181   6.1662461   6.1628387   6.1662326   5.9322003
   5.9222542   6.1627584   6.1663529   6.1626874   6.1664079   5.9323838
   5.9224744   6.1627277   6.1663550   6.1627028   6.1664257   5.9321715
   8.4969522   8.4972574   8.4972265   8.4973487   8.4974774   8.4977138
 TTTTTTTTTTTTTTTTTTTTTTTTTTTTTT MOQGAD      TELAPSE       83.60 TCPU     2266.47
 TTTTTTTTTTTTTTTTTTTTTTTTTTTTTT SHELLXN     TELAPSE       93.89 TCPU     2594.39
 TTTTTTTTTTTTTTTTTTTTTTTTTTTTTT MONMO3      TELAPSE       94.06 TCPU     2600.02
 NUMERICALLY INTEGRATED DENSITY    197.9999463806
 TTTTTTTTTTTTTTTTTTTTTTTTTTTTTT NUMDFT      TELAPSE       94.67 TCPU     2619.54
 CYC   6 ETOT(AU) -1.289104267098E+03 DETOT  2.74E-05 tst  3.90E-06 PX  2.34E-03
 TTTTTTTTTTTTTTTTTTTTTTTTTTTTTT DIIS        TELAPSE       94.74 TCPU     2621.65
 DIIS TEST: 0.31123E-03 AT SCF   CYCLE   6 - DIIS ACTIVE - HISTORY:     6 CYCLES
 TTTTTTTTTTTTTTTTTTTTTTTTTTTTTT FDIK        TELAPSE       95.22 TCPU     2636.99
 INSULATING STATE
 TOP OF VALENCE BANDS -    BAND     99; K    1; EIG -2.1933801E-01 AU
 BOTTOM OF VIRTUAL BANDS - BAND    100; K   17; EIG -1.0628720E-01 AU
 INDIRECT ENERGY BAND GAP:   3.0763 eV
 BOTTOM OF VIRTUAL BANDS - BAND    100; K    1; EIG -4.8402447E-02 AU
 TTTTTTTTTTTTTTTTTTTTTTTTTTTTTT PDIG        TELAPSE       95.50 TCPU     2643.12
 CHARGE NORMALIZATION FACTOR   1.00000000
 TOTAL ATOMIC CHARGES:
   4.4815877   4.4814868   4.4816354   4.4814815   4.4813079   4.4814673
   0.8823984   0.8824893   0.8823382   0.8824689   0.8823438   0.8825409
   0.8823757   0.8824642   0.8823525   0.8825305   0.8823770   0.8824815
   5.9280285   6.1644502   6.1641493   6.1643667   6.1641422   5.9280635
   5.9280280   6.1643257   6.1642187   6.1643772   6.1641577   5.9280296
   5.9281795   6.1642577   6.1642601   6.1643755   6.1641939   5.9278843
   8.4968917   8.4971406   8.4970982   8.4969352   8.4970754   8.4972426
 TTTTTTTTTTTTTTTTTTTTTTTTTTTTTT MOQGAD      TELAPSE       95.55 TCPU     2643.18
 TTTTTTTTTTTTTTTTTTTTTTTTTTTTTT SHELLXN     TELAPSE      105.82 TCPU     2970.97
 TTTTTTTTTTTTTTTTTTTTTTTTTTTTTT MONMO3      TELAPSE      106.00 TCPU     2976.61
 NUMERICALLY INTEGRATED DENSITY    197.9999463764
 TTTTTTTTTTTTTTTTTTTTTTTTTTTTTT NUMDFT      TELAPSE      106.61 TCPU     2996.10
 CYC   7 ETOT(AU) -1.289104349721E+03 DETOT -8.26E-05 tst  1.65E-06 PX  1.39E-03
 TTTTTTTTTTTTTTTTTTTTTTTTTTTTTT DIIS        TELAPSE      106.69 TCPU     2998.55
 DIIS TEST: 0.27900E-05 AT SCF   CYCLE   7 - DIIS ACTIVE - HISTORY:     7 CYCLES
 TTTTTTTTTTTTTTTTTTTTTTTTTTTTTT FDIK        TELAPSE      107.17 TCPU     3013.89
 INSULATING STATE
 TOP OF VALENCE BANDS -    BAND     99; K    1; EIG -2.1939302E-01 AU
 BOTTOM OF VIRTUAL BANDS - BAND    100; K   17; EIG -1.0637133E-01 AU
 INDIRECT ENERGY BAND GAP:   3.0755 eV
 BOTTOM OF VIRTUAL BANDS - BAND    100; K    1; EIG -4.8481380E-02 AU
 TTTTTTTTTTTTTTTTTTTTTTTTTTTTTT PDIG        TELAPSE      107.44 TCPU     3020.03
 CHARGE NORMALIZATION FACTOR   1.00000000
 TOTAL ATOMIC CHARGES:
   4.4817814   4.4816706   4.4818246   4.4817758   4.4815979   4.4817519
   0.8822704   0.8823412   0.8822070   0.8823240   0.8822060   0.8824023
   0.8822400   0.8823234   0.8822172   0.8823896   0.8822447   0.8823375
   5.9273342   6.1644897   6.1644781   6.1644189   6.1644565   5.9280625
   5.9274358   6.1644134   6.1645011   6.1644724   6.1644300   5.9279253
   5.9275484   6.1643301   6.1645567   6.1644549   6.1644825   5.9278188
   8.4969092   8.4971425   8.4970991   8.4969700   8.4971096   8.4972548
 TTTTTTTTTTTTTTTTTTTTTTTTTTTTTT MOQGAD      TELAPSE      107.50 TCPU     3020.08
 TTTTTTTTTTTTTTTTTTTTTTTTTTTTTT SHELLXN     TELAPSE      117.77 TCPU     3347.97
 TTTTTTTTTTTTTTTTTTTTTTTTTTTTTT MONMO3      TELAPSE      117.95 TCPU     3353.60
 NUMERICALLY INTEGRATED DENSITY    197.9999463754
 TTTTTTTTTTTTTTTTTTTTTTTTTTTTTT NUMDFT      TELAPSE      118.56 TCPU     3373.13
 CYC   8 ETOT(AU) -1.289104350427E+03 DETOT -7.07E-07 tst  6.98E-09 PX  1.68E-04
 TTTTTTTTTTTTTTTTTTTTTTTTTTTTTT DIIS        TELAPSE      118.64 TCPU     3375.61
 DIIS TEST: 0.37832E-07 AT SCF   CYCLE   8 - DIIS ACTIVE - HISTORY:     8 CYCLES
 TTTTTTTTTTTTTTTTTTTTTTTTTTTTTT FDIK        TELAPSE      119.12 TCPU     3391.17
 INSULATING STATE
 TOP OF VALENCE BANDS -    BAND     99; K    1; EIG -2.1938761E-01 AU
 BOTTOM OF VIRTUAL BANDS - BAND    100; K   17; EIG -1.0636620E-01 AU
 INDIRECT ENERGY BAND GAP:   3.0755 eV
 BOTTOM OF VIRTUAL BANDS - BAND    100; K    1; EIG -4.8475323E-02 AU
 TTTTTTTTTTTTTTTTTTTTTTTTTTTTTT PDIG        TELAPSE      119.40 TCPU     3397.30
 CHARGE NORMALIZATION FACTOR   1.00000000
 TOTAL ATOMIC CHARGES:
   4.4817256   4.4816318   4.4817756   4.4817142   4.4815454   4.4817067
   0.8822693   0.8823549   0.8822099   0.8823337   0.8822178   0.8824033
   0.8822506   0.8823257   0.8822252   0.8823943   0.8822506   0.8823444
   5.9274939   6.1645156   6.1644027   6.1644323   6.1643948   5.9280298
   5.9274306   6.1643784   6.1644850   6.1643983   6.1644554   5.9280584
   5.9276011   6.1643215   6.1645148   6.1644030   6.1644851   5.9278942
   8.4969117   8.4971752   8.4971366   8.4969815   8.4971178   8.4973033
 TTTTTTTTTTTTTTTTTTTTTTTTTTTTTT MOQGAD      TELAPSE      119.46 TCPU     3397.35
 TTTTTTTTTTTTTTTTTTTTTTTTTTTTTT SHELLXN     TELAPSE      129.74 TCPU     3725.44
 +++ ENERGIES IN A.U. +++
 ::: EXT EL-POLE                                  -1.3891657765433E+03
 ::: EXT EL-SPHEROPOLE                             1.5897862978595E+01
 ::: BIELET ZONE E-E                               2.3436502297389E+03
 ::: TOTAL E-E                                     9.7038231617413E+02
 ::: TOTAL E-N + N-E                              -3.7667100811502E+03
 ::: TOTAL N-N                                     3.6097984315963E+02
 ::: KINETIC ENERGY                                1.2799642767730E+03
 ::: PSEUDO TOTAL   ENERGY                        -1.1553836450434E+03
 ::: VIRIAL COEFFICIENT                            1.0511551678565E+00
 TTTTTTTTTTTTTTTTTTTTTTTTTTTTTT MONMO3      TELAPSE      129.91 TCPU     3731.06
 NUMERICALLY INTEGRATED DENSITY    197.9999463749
 EXCHANGE ENERGY: -0.126020412271E+03  CORRELATION ENERGY: -0.770029311201E+01
 TTTTTTTTTTTTTTTTTTTTTTTTTTTTTT NUMDFT      TELAPSE      130.52 TCPU     3750.59
 CYC   9 ETOT(AU) -1.289104350427E+03 DETOT  5.98E-10 tst  3.24E-10 PX  1.68E-04

 == SCF ENDED - CONVERGENCE ON ENERGY      E(AU) -1.2891043504266E+03 CYCLES   9


 ENERGY EXPRESSION=HARTREE+FOCK EXCH*0.00000+(HSESOL     EXCH)*1.00000+PBESOL     CORR


 TOTAL ENERGY(DFT)(AU)(  9) -1.2891043504266E+03 DE 6.0E-10 tester 3.2E-10
 TTTTTTTTTTTTTTTTTTTTTTTTTTTTTT EDFT        TELAPSE      130.52 TCPU     3750.60
 
 INFORMATION **** DFTD3 ENERGY **** CALCULATE DFTD3 ENERGY

           DFT-D V3(BJ)
 DF                                         hsesol3c  
 parameters
 s6       :    1.0000
 s8       :    0.0000
 a1       :    0.5196
 a2       :    4.9385
 k1 k3    :   16.0000   -4.0000
 Cutoff   :   50.2022
 CN-Cutoff:   21.1671
 ABC-Cutoff:   21.1671
 
 Edisp /kcal,au:   -29.7153 -0.04735442

 E6    /kcal :   -31.8129
 E8    /kcal :     0.0000
 E6(ABC) "   :   2.097547
 
 INFORMATION **** DFTD3 ENERGY **** NORMAL TERMINATION OF DFTD3 MODULE

 GCP ENERGY CALCULATION
  level        hsesol3c            basis:hsesol3c
  Nbf            474
  Atoms           42

  Parameters: 
  sigma     1.0000
  eta       1.4281
  alpha     0.2936
  beta      1.9467

  dmp_scal      4.0000
  dmp_exp       6.0000
 cutoffs: 
   distance [bohr] 60.0
   noise    [a.u.] 2.2E-16
 SR-damping   T
 ** gCP correction **
  Egcp:        0.0834649819 / (a.u.) ||      52.3751 / (kcal/mol)
 INFORMATION **** GCP **** NORMAL TERMINATION OF GCP MODULE

 *******************************************************************************

 DFT-D3-GCP DISPERSION AND COUNTERPOISE CORRECTION

 D3 DISPERSION ENERGY (AU)      -4.7354418902553E-02
 GCP ENERGY (AU)                 8.3464981910884E-02
 TOTAL ENERGY + DISP + GCP (AU) -1.2890682398636E+03

 *******************************************************************************

 EIGENVECTORS IN FORTRAN UNIT 10
 TTTTTTTTTTTTTTTTTTTTTTTTTTTTTT END         TELAPSE      131.85 TCPU     3757.90
 EEEEEEEEEE TERMINATION  DATE 19 02 2026 TIME 18:36:59.1
