 Default number of threads is:           32

         
 *******************************************************************************
 *                                                                             *
 *                               CRYSTAL23                                     *
 *                      public : 1.0.1 - October 2022                          *
 *                       HTTP://WWW.CRYSTAL.UNITO.IT                           *
 *                                                                             *
 *                              MAIN AUTHORS                                   *
 *                                                                             *
 *  R. DOVESI(1,11), V.R. SAUNDERS(2), C. ROETTI(1,11), R. ORLANDO(1,11),      *
 *  C.M. ZICOVICH-WILSON(1,3), F. PASCALE(4), B. CIVALLERI(1,11),              *
 *  K. DOLL(5), N.M. HARRISON(6), I.J. BUSH(7), Ph. D'ARCO(8),                 *
 *  M. LLUNELL(9), M. CAUSA'(10), Y. NOEL(8), L. MASCHIO(1,11), A. ERBA(1,11)  *
 *  M. RE'RAT(14), S. CASASSA(1,11), B.G. SEARLE(2), J.K. DESMARAIS(1)         *
 *                                                                             *
 *        CONTRIBUTIONS TO THE CODE HAVE ALSO BEEN GIVEN BY                    *
 *                                                                             *
 *  M. FERRABONE(1,11), M. DE LA PIERRE(1,11), M. FERRERO(1,11),               *
 *  J. BAIMA(1,11), E. ALBANESE(1,11), M.F. PEINTINGER(12), R. BAST(13),       *
 *  B. KIRTMAN(15), V. LACIVITA(1,11), R. DEMICHELIS(1,16)                     *
 *  G. BRANDEBURG(17), S. SALUSTRO(1,11), G. SANSONE(1,11)                     *
 *  M.T. RUGGIERO(18), L.E. DAGA(1), L. DONA'(1), A. COSSARD(1)                *
 *                                                                             *
 * (1) THEORETICAL CHEMISTRY GROUP - UNIVERSITA' DI TORINO - TORINO (ITALY)    *
 * (2) SCIENTIFIC COMPUTING DEPARTMENT - STFC DARESBURY (UK)                   *
 * (3) UNIVERSIDAD AUTONOMA DEL ESTADO DE MORELOS - CUERNAVACA (MEXICO)        *
 * (4) UNIVERSITE' DE LORRAINE - NANCY (FRANCE)                                *
 * (5) UNIVERSITAET STUTTGART- STUTTGART (GERMANY)                             *
 * (6) IMPERIAL COLLEGE - LONDON (UK)                                          *
 * (7) SCIENTIFIC COMPUTING DEPARTMENT - STFC RAL (UK)                         *
 * (8) UPMC - SORBONNE UNIVERSITES - PARIS (FRANCE)                            *
 * (9) UNIVERSIDAD DE BARCELONA - BARCELONA (SPAIN)                            *
 *(10) UNIVERSITA' DI NAPOLI "FEDERICO II" - NAPOLI (ITALY)                    *
 *(11) NIS - NANOSTRUCTURED INTERFACES AND SURFACES - TORINO (ITALY)           *
 *(12) MPI FUER CHEMISCHE ENERGIEKONVERSION - MUELHEIM AN DER RUHR (GERMANY)   *
 *(13) UNIVERSITY OF TROMSO - TROMSO (NORWAY)                                  *
 *(14) UNIVERSITE' DE PAU ET DES PAYS DE L'ADOUR - PAU (FRANCE)                *
 *(15) UNIVERSITY OF CALIFORNIA SANTA BARBARA - SANTA BARBARA (USA)            *
 *(16) CURTIN UNIVERSITY - PERTH (AUSTRALIA)                                   *
 *(17) UNIVERSITY COLLEGE LONDON - LONDON (UK)                                 *
 *(18) UNIVERSITY OF VERMONT - BURLINGTON (USA)                                *
 *                                                                             *
 *******************************************************************************
 EEEEEEEEEE STARTING  DATE 19 02 2026 TIME 19:10:49.0
 cof-1_z41_L050_incl                                                             

 CRYSTAL CALCULATION
 (INPUT ACCORDING TO THE INTERNATIONAL TABLES FOR X-RAY CRYSTALLOGRAPHY)
 CRYSTAL FAMILY                       :  TRICLINIC   
 CRYSTAL CLASS  (GROTH - 1921)        :  TRICLINIC PEDIAL                     

 SPACE GROUP (NONCENTROSYMMETRIC)     :  P 1             

 LATTICE PARAMETERS  (ANGSTROMS AND DEGREES) - CONVENTIONAL CELL
        A           B           C        ALPHA        BETA       GAMMA
    15.02361    15.02392     6.46607    47.95661    89.99996   119.99596


 NUMBER OF IRREDUCIBLE ATOMS IN THE CONVENTIONAL CELL:   42

 INPUT COORDINATES

 ATOM AT. N.              COORDINATES
   1   5     5.173992200000E-01  3.473600000000E-02  5.011614300000E-01
   2   5     6.764548700000E-01  1.937956500000E-01  5.011614400000E-01
   3   5     5.178655400000E-01  1.947197300000E-01  4.987119000000E-01
   4   5     1.309739200000E-01  4.210509900000E-01  5.011614400000E-01
   5   5     2.900819000000E-01  4.210302300000E-01  5.011614300000E-01
   6   5     2.905327700000E-01  5.811107100000E-01  4.987119000000E-01
   7   1     8.077379400000E-01  1.182993100000E-01  4.960830500000E-01
   8   1     1.478040000000E-03  5.007211100000E-01  4.953064800000E-01
   9   1     8.078378900000E-01  4.037860300000E-01  4.951869600000E-01
  10   1     1.596920000000E-03  2.153870800000E-01  4.952167700000E-01
  11   1     5.942230800000E-01 -9.663421000000E-02  5.039097600000E-01
  12   1     2.119712000000E-01  7.095005500000E-01  5.046863800000E-01
  13   1     3.088884900000E-01 -9.693274000000E-02  5.048059700000E-01
  14   1     4.973364800000E-01  7.093761400000E-01  5.047759600000E-01
  15   1     5.957670500000E-01  4.034234500000E-01  4.960830900000E-01
  16   1     2.138053500000E-01  2.152770200000E-01  4.953064300000E-01
  17   1     3.107070600000E-01  1.185368800000E-01  4.951868700000E-01
  18   1     4.991516000000E-01  5.006600400000E-01  4.952168700000E-01
  19   6     7.960968000000E-01  2.543371900000E-01  4.986222700000E-01
  20   6     8.511604700000E-01  2.021089600000E-01  4.962025600000E-01
  21   6    -4.190037000000E-02  4.165889600000E-01  4.959935300000E-01
  22   6     8.510431100000E-01  3.628547900000E-01  4.966208500000E-01
  23   6    -4.167274000000E-02  2.560324700000E-01  4.950076600000E-01
  24   6     1.262115000000E-02  3.631867600000E-01  4.966506900000E-01
  25   6     4.577179200000E-01 -8.449413000000E-02  5.013705600000E-01
  26   6     5.103914900000E-01 -1.400364500000E-01  5.037902300000E-01
  27   6     2.959721400000E-01  7.529904100000E-01  5.039993300000E-01
  28   6     3.495815600000E-01 -1.398288400000E-01  5.033720400000E-01
  29   6     4.567009400000E-01  7.525720100000E-01  5.049851100000E-01
  30   6     3.492276400000E-01  6.985718600000E-01  5.033421300000E-01
  31   6     4.582513600000E-01  2.542680500000E-01  4.986222700000E-01
  32   6     5.118815700000E-01  3.629490900000E-01  4.962026100000E-01
  33   6     2.975348900000E-01  2.555757000000E-01  4.959934800000E-01
  34   6     3.508782700000E-01  2.018526100000E-01  4.966207800000E-01
  35   6     4.586438600000E-01  4.168804700000E-01  4.950077300000E-01
  36   6     3.505452400000E-01  3.631093600000E-01  4.966506900000E-01
  37   8     4.647996900000E-01  8.847715000000E-02  4.993690900000E-01
  38   8     6.227518700000E-01  8.649896000000E-02  5.045370200000E-01
  39   8     6.242474600000E-01  2.484401400000E-01  4.967403300000E-01
  40   8     1.843875200000E-01  5.277576300000E-01  4.993691100000E-01
  41   8     1.834141400000E-01  3.668162400000E-01  5.045370200000E-01
  42   8     3.438318900000E-01  5.287521100000E-01  4.967403100000E-01

 *******************************************************************************

 << INFORMATION >>: FROM NOW ON, ALL COORDINATES REFER TO THE PRIMITIVE CELL

 *******************************************************************************

 LATTICE PARAMETERS  (ANGSTROMS AND DEGREES) - PRIMITIVE CELL
       A          B          C        ALPHA      BETA     GAMMA        VOLUME
   15.02361   15.02392    6.46607    47.95661  89.99996 119.99596    801.480117

 COORDINATES OF THE EQUIVALENT ATOMS (FRACTIONAL UNITS)

 N. ATOM EQUIV AT. N.          X                  Y                  Z

   1   1   1    5 B    -4.82600780000E-01  3.47360000000E-02 -4.98838570000E-01

   2   2   1    5 B    -3.23545130000E-01  1.93795650000E-01 -4.98838560000E-01

   3   3   1    5 B    -4.82134460000E-01  1.94719730000E-01  4.98711900000E-01

   4   4   1    5 B     1.30973920000E-01  4.21050990000E-01 -4.98838560000E-01

   5   5   1    5 B     2.90081900000E-01  4.21030230000E-01 -4.98838570000E-01

   6   6   1    5 B     2.90532770000E-01 -4.18889290000E-01  4.98711900000E-01

   7   7   1    1 H    -1.92262060000E-01  1.18299310000E-01  4.96083050000E-01

   8   8   1    1 H     1.47804000000E-03 -4.99278890000E-01  4.95306480000E-01

   9   9   1    1 H    -1.92162110000E-01  4.03786030000E-01  4.95186960000E-01

  10  10   1    1 H     1.59692000000E-03  2.15387080000E-01  4.95216770000E-01

  11  11   1    1 H    -4.05776920000E-01 -9.66342100000E-02 -4.96090240000E-01

  12  12   1    1 H     2.11971200000E-01 -2.90499450000E-01 -4.95313620000E-01

  13  13   1    1 H     3.08888490000E-01 -9.69327400000E-02 -4.95194030000E-01

  14  14   1    1 H     4.97336480000E-01 -2.90623860000E-01 -4.95224040000E-01

  15  15   1    1 H    -4.04232950000E-01  4.03423450000E-01  4.96083090000E-01

  16  16   1    1 H     2.13805350000E-01  2.15277020000E-01  4.95306430000E-01

  17  17   1    1 H     3.10707060000E-01  1.18536880000E-01  4.95186870000E-01

  18  18   1    1 H     4.99151600000E-01 -4.99339960000E-01  4.95216870000E-01

  19  19   1    6 C    -2.03903200000E-01  2.54337190000E-01  4.98622270000E-01

  20  20   1    6 C    -1.48839530000E-01  2.02108960000E-01  4.96202560000E-01

  21  21   1    6 C    -4.19003700000E-02  4.16588960000E-01  4.95993530000E-01

  22  22   1    6 C    -1.48956890000E-01  3.62854790000E-01  4.96620850000E-01

  23  23   1    6 C    -4.16727400000E-02  2.56032470000E-01  4.95007660000E-01

  24  24   1    6 C     1.26211500000E-02  3.63186760000E-01  4.96650690000E-01

  25  25   1    6 C     4.57717920000E-01 -8.44941300000E-02 -4.98629440000E-01

  26  26   1    6 C    -4.89608510000E-01 -1.40036450000E-01 -4.96209770000E-01

  27  27   1    6 C     2.95972140000E-01 -2.47009590000E-01 -4.96000670000E-01

  28  28   1    6 C     3.49581560000E-01 -1.39828840000E-01 -4.96627960000E-01

  29  29   1    6 C     4.56700940000E-01 -2.47427990000E-01 -4.95014890000E-01

  30  30   1    6 C     3.49227640000E-01 -3.01428140000E-01 -4.96657870000E-01

  31  31   1    6 C     4.58251360000E-01  2.54268050000E-01  4.98622270000E-01

  32  32   1    6 C    -4.88118430000E-01  3.62949090000E-01  4.96202610000E-01

  33  33   1    6 C     2.97534890000E-01  2.55575700000E-01  4.95993480000E-01

  34  34   1    6 C     3.50878270000E-01  2.01852610000E-01  4.96620780000E-01

  35  35   1    6 C     4.58643860000E-01  4.16880470000E-01  4.95007730000E-01

  36  36   1    6 C     3.50545240000E-01  3.63109360000E-01  4.96650690000E-01

  37  37   1    8 O     4.64799690000E-01  8.84771500000E-02  4.99369090000E-01

  38  38   1    8 O    -3.77248130000E-01  8.64989600000E-02 -4.95462980000E-01

  39  39   1    8 O    -3.75752540000E-01  2.48440140000E-01  4.96740330000E-01

  40  40   1    8 O     1.84387520000E-01 -4.72242370000E-01  4.99369110000E-01

  41  41   1    8 O     1.83414140000E-01  3.66816240000E-01 -4.95462980000E-01

  42  42   1    8 O     3.43831890000E-01 -4.71247890000E-01  4.96740310000E-01

 NUMBER OF SYMMETRY OPERATORS         :    1
 *******************************************************************************
 * GEOMETRY EDITING - INPUT COORDINATES ARE GIVEN IN ANGSTROM         
 *******************************************************************************

 GCALCO - MAX INDICES DIRECT LATTICE VECTOR     9    13    26
 NO.OF VECTORS CREATED 6999 STARS 3500 RMAX   208.34316 BOHR

 GEOMETRY FOR WAVE FUNCTION - DIMENSIONALITY OF THE SYSTEM    3
 (NON PERIODIC DIRECTION: LATTICE PARAMETER FORMALLY SET TO 500)
 *******************************************************************************
 LATTICE PARAMETERS (ANGSTROMS AND DEGREES) - BOHR = 0.5291772083 ANGSTROM
 PRIMITIVE CELL - CENTRING CODE 1/0 VOLUME=   801.480117 - DENSITY  0.808 g/cm^3
         A              B              C           ALPHA      BETA       GAMMA 
    15.02361100    15.02391600     6.46606500    47.956609  89.999964 119.995964
 *******************************************************************************
 ATOMS IN THE ASYMMETRIC UNIT   42 - ATOMS IN THE UNIT CELL:   42
     ATOM                 X/A                 Y/B                 Z/C    
 *******************************************************************************
      1 T   5 B    -4.826007800000E-01  3.473600000000E-02 -4.988385700000E-01
      2 T   5 B    -3.235451300000E-01  1.937956500000E-01 -4.988385600000E-01
      3 T   5 B    -4.821344600000E-01  1.947197300000E-01  4.987119000000E-01
      4 T   5 B     1.309739200000E-01  4.210509900000E-01 -4.988385600000E-01
      5 T   5 B     2.900819000000E-01  4.210302300000E-01 -4.988385700000E-01
      6 T   5 B     2.905327700000E-01 -4.188892900000E-01  4.987119000000E-01
      7 T   1 H    -1.922620600000E-01  1.182993100000E-01  4.960830500000E-01
      8 T   1 H     1.478040000000E-03 -4.992788900000E-01  4.953064800000E-01
      9 T   1 H    -1.921621100000E-01  4.037860300000E-01  4.951869600000E-01
     10 T   1 H     1.596920000000E-03  2.153870800000E-01  4.952167700000E-01
     11 T   1 H    -4.057769200000E-01 -9.663421000000E-02 -4.960902400000E-01
     12 T   1 H     2.119712000000E-01 -2.904994500000E-01 -4.953136200000E-01
     13 T   1 H     3.088884900000E-01 -9.693274000000E-02 -4.951940300000E-01
     14 T   1 H     4.973364800000E-01 -2.906238600000E-01 -4.952240400000E-01
     15 T   1 H    -4.042329500000E-01  4.034234500000E-01  4.960830900000E-01
     16 T   1 H     2.138053500000E-01  2.152770200000E-01  4.953064300000E-01
     17 T   1 H     3.107070600000E-01  1.185368800000E-01  4.951868700000E-01
     18 T   1 H     4.991516000000E-01 -4.993399600000E-01  4.952168700000E-01
     19 T   6 C    -2.039032000000E-01  2.543371900000E-01  4.986222700000E-01
     20 T   6 C    -1.488395300000E-01  2.021089600000E-01  4.962025600000E-01
     21 T   6 C    -4.190037000000E-02  4.165889600000E-01  4.959935300000E-01
     22 T   6 C    -1.489568900000E-01  3.628547900000E-01  4.966208500000E-01
     23 T   6 C    -4.167274000000E-02  2.560324700000E-01  4.950076600000E-01
     24 T   6 C     1.262115000000E-02  3.631867600000E-01  4.966506900000E-01
     25 T   6 C     4.577179200000E-01 -8.449413000000E-02 -4.986294400000E-01
     26 T   6 C    -4.896085100000E-01 -1.400364500000E-01 -4.962097700000E-01
     27 T   6 C     2.959721400000E-01 -2.470095900000E-01 -4.960006700000E-01
     28 T   6 C     3.495815600000E-01 -1.398288400000E-01 -4.966279600000E-01
     29 T   6 C     4.567009400000E-01 -2.474279900000E-01 -4.950148900000E-01
     30 T   6 C     3.492276400000E-01 -3.014281400000E-01 -4.966578700000E-01
     31 T   6 C     4.582513600000E-01  2.542680500000E-01  4.986222700000E-01
     32 T   6 C    -4.881184300000E-01  3.629490900000E-01  4.962026100000E-01
     33 T   6 C     2.975348900000E-01  2.555757000000E-01  4.959934800000E-01
     34 T   6 C     3.508782700000E-01  2.018526100000E-01  4.966207800000E-01
     35 T   6 C     4.586438600000E-01  4.168804700000E-01  4.950077300000E-01
     36 T   6 C     3.505452400000E-01  3.631093600000E-01  4.966506900000E-01
     37 T   8 O     4.647996900000E-01  8.847715000000E-02  4.993690900000E-01
     38 T   8 O    -3.772481300000E-01  8.649896000000E-02 -4.954629800000E-01
     39 T   8 O    -3.757525400000E-01  2.484401400000E-01  4.967403300000E-01
     40 T   8 O     1.843875200000E-01 -4.722423700000E-01  4.993691100000E-01
     41 T   8 O     1.834141400000E-01  3.668162400000E-01 -4.954629800000E-01
     42 T   8 O     3.438318900000E-01 -4.712478900000E-01  4.967403100000E-01

 T = ATOM BELONGING TO THE ASYMMETRIC UNIT

 ****    1 SYMMOPS - TRANSLATORS IN FRACTIONAL UNITS
 **** MATRICES AND TRANSLATORS IN THE CRYSTALLOGRAPHIC REFERENCE FRAME
   V INV                    ROTATION MATRICES                   TRANSLATORS
   1   1  1.00  0.00  0.00  0.00  1.00  0.00  0.00  0.00  1.00  0.00  0.00  0.00

 DIRECT LATTICE VECTORS CARTESIAN COMPONENTS (ANGSTROM)
          X                    Y                    Z
   0.130113578931E+02  -0.751088897922E+01   0.000000000000E+00
   0.000000000000E+00   0.150239160000E+02   0.000000000000E+00
   0.249968622137E+01   0.433027982432E+01   0.410002951478E+01


 CARTESIAN COORDINATES - PRIMITIVE CELL
 *******************************************************************************
 *      ATOM          X(ANGSTROM)         Y(ANGSTROM)         Z(ANGSTROM)
 *******************************************************************************
    1     5 B    -7.526231368164E+00  1.986521030777E+00 -2.045252860109E+00
    2     5 B    -5.456701356104E+00  3.181570566002E+00 -2.045252819109E+00
    3     5 B     5.485070924916E+00 -3.134895455640E+00 -2.055296005406E+00
    4     5 B     4.572086726581E-01  3.181993581224E+00 -2.045252819109E+00
    5     5 B     2.527419519082E+00  1.986639267938E+00 -2.045252860109E+00
    6     5 B     2.527162893626E+00  4.377681367845E+00 -2.055296005406E+00
    7     1 H    -3.761224728545E+00  1.039276482157E+00 -2.066074367996E+00
    8     1 H    -1.242344130537E+00  5.326226334600E+00 -2.069258327916E+00
    9     1 H    -1.262477965782E+00 -5.369862226931E+00  2.030281151332E+00
   10     1 H    -1.241021587161E+00  1.038110472053E+00 -2.069626141564E+00
   11     1 H    -4.020092446978E+00  3.777991409687E+00  2.066044888784E+00
   12     1 H     4.019590736418E+00 -3.771098235915E+00  2.069229053706E+00
   13     1 H     5.280915220109E+00 -1.590385391671E+00  2.069719376235E+00
   14     1 H    -5.278553446414E+00  1.594962587775E+00  2.069596334350E+00
   15     1 H    -4.019567519890E+00 -3.778588569766E+00  2.033955310781E+00
   16     1 H     1.520322365359E+00 -5.570287654363E-01 -2.069258532918E+00
   17     1 H     2.780846332133E+00 -2.738780216587E+00 -2.069748732447E+00
   18     1 H     5.232840675652E+00  1.586949930623E+00 -2.069625731561E+00
   19     6 C    -3.906344514121E+00  3.181529007362E+00 -2.055663491052E+00
   20     6 C    -3.195939912592E+00  1.972801333461E+00 -2.065584373469E+00
   21     6 C    -1.805038738460E+00  4.391017520459E+00 -2.066441402638E+00
   22     6 C    -3.196421331805E+00  4.390525971410E+00 -2.063869372123E+00
   23     6 C    -1.804541328718E+00  1.972851504815E+00 -2.070483498736E+00
   24     6 C    -1.093997035070E+00  3.182047956435E+00 -2.063747027242E+00
   25     6 C     2.209428309083E+00  3.827129979308E+00 -6.144424935713E+00
   26     6 C    -5.111154054706E+00  3.755051968809E+00  2.065554812256E+00
   27     6 C     1.114671779592E-01  2.611749265697E+00 -6.133646901125E+00
   28     6 C     5.806802942582E+00 -2.546703243941E+00  2.063840220913E+00
   29     6 C     2.205231259164E+00  1.402515789925E+00 -6.129605174030E+00
   30     6 C     8.027507544482E-01  1.391327533722E+00 -6.136341440522E+00
   31     6 C     4.709185446559E+00 -1.792879133433E+00 -2.055663491052E+00
   32     6 C     5.400938911986E+00 -5.733526758017E-01 -2.065584168467E+00
   33     6 C     2.611474785938E+00 -5.774929426730E-01 -2.066441607640E+00
   34     6 C     3.307112647510E+00 -1.782563954516E+00 -2.063869659125E+00
   35     6 C     4.705257188697E+00  6.315962116436E-01 -2.070483211734E+00
   36     6 C     3.302854240606E+00  6.427747819435E-01 -2.063747027242E+00
   37     8 O     4.796254927454E+00 -4.329657528648E+00 -2.052601507009E+00
   38     8 O    -6.147012418220E+00  1.987528585184E+00 -2.031412841479E+00
   39     8 O    -1.147669597300E+00 -1.987832140771E+00  6.136679528956E+00
   40     8 O     1.147711876009E+00  4.376200267209E+00 -2.052601425009E+00
   41     8 O     1.147965033884E+00  1.987919788447E+00 -2.031412841479E+00
   42     8 O     3.215728462974E+00  3.182188850159E+00 -2.063379582597E+00

 *******************************************************************************
 STARTING BASIS SET HANDLING 
 *******************************************************************************

 Loading internal basis set: SOLDEF2MSVP         

 Please cite in your publication:
 L. Dona', J. G. Brandenburg and B. Civalleri, J. Chem. Phys., 151, 121101 (2019
 )                                                                              
                                                                                
                    

 *******************************************************************************
 LOCAL ATOMIC FUNCTIONS BASIS SET
 *******************************************************************************
   ATOM   X(AU)   Y(AU)   Z(AU)  N. TYPE  EXPONENT  S COEF   P COEF   D/F/G COEF
 *******************************************************************************
   1 B  -14.223   3.754  -3.865
                                  1 S  
                                         2.410E+03 1.755E-03 0.000E+00 0.000E+00
                                         3.619E+02 1.344E-02 0.000E+00 0.000E+00
                                         8.231E+01 6.637E-02 0.000E+00 0.000E+00
                                         2.311E+01 2.303E-01 0.000E+00 0.000E+00
                                         7.252E+00 5.150E-01 0.000E+00 0.000E+00
                                  2 S  
                                         2.367E+00 1.000E+00 0.000E+00 0.000E+00
                                  3 S  
                                         5.533E-01 1.000E+00 0.000E+00 0.000E+00
                                  4 S  
                                         1.716E-01 1.000E+00 0.000E+00 0.000E+00
                           5-     7 P  
                                         6.002E+00 0.000E+00-3.555E-02 0.000E+00
                                         1.240E+00 0.000E+00-1.983E-01 0.000E+00
                                         3.367E-01 0.000E+00-5.048E-01 0.000E+00
                           8-    10 P  
                                         1.256E-01 0.000E+00 1.000E+00 0.000E+00
                          11-    15 D  
                                         8.880E-01 0.000E+00 0.000E+00 1.000E+00
   2 B  -10.312   6.012  -3.865
   3 B   10.365  -5.924  -3.884
   4 B    0.864   6.013  -3.865
   5 B    4.776   3.754  -3.865
   6 B    4.776   8.273  -3.884
   7 H   -7.108   1.964  -3.904
                                 91 S  
                                         1.874E+01 1.968E-02 0.000E+00 0.000E+00
                                         2.826E+00 1.380E-01 0.000E+00 0.000E+00
                                         6.401E-01 4.783E-01 0.000E+00 0.000E+00
                                 92 S  
                                         1.756E-01 1.000E+00 0.000E+00 0.000E+00
   8 H   -2.348  10.065  -3.910
   9 H   -2.386 -10.148   3.837
  10 H   -2.345   1.962  -3.911
  11 H   -7.597   7.139   3.904
  12 H    7.596  -7.126   3.910
  13 H    9.979  -3.005   3.911
  14 H   -9.975   3.014   3.911
  15 H   -7.596  -7.140   3.844
  16 H    2.873  -1.053  -3.910
  17 H    5.255  -5.176  -3.911
  18 H    9.889   2.999  -3.911
  19 C   -7.382   6.012  -3.885
                                115 S  
                                         3.624E+03 1.634E-03 0.000E+00 0.000E+00
                                         5.440E+02 1.252E-02 0.000E+00 0.000E+00
                                         1.237E+02 6.211E-02 0.000E+00 0.000E+00
                                         3.476E+01 2.182E-01 0.000E+00 0.000E+00
                                         1.093E+01 4.980E-01 0.000E+00 0.000E+00
                                116 S  
                                         3.574E+00 1.000E+00 0.000E+00 0.000E+00
                                117 S  
                                         7.742E-01 1.000E+00 0.000E+00 0.000E+00
                                118 S  
                                         2.330E-01 1.000E+00 0.000E+00 0.000E+00
                         119-   121 P  
                                         9.443E+00 0.000E+00 3.790E-02 0.000E+00
                                         2.002E+00 0.000E+00 2.082E-01 0.000E+00
                                         5.463E-01 0.000E+00 5.047E-01 0.000E+00
                         122-   124 P  
                                         1.820E-01 0.000E+00 1.000E+00 0.000E+00
                         125-   129 D  
                                         8.880E-01 0.000E+00 0.000E+00 1.000E+00
  20 C   -6.039   3.728  -3.903
  21 C   -3.411   8.298  -3.905
  22 C   -6.040   8.297  -3.900
  23 C   -3.410   3.728  -3.913
  24 C   -2.067   6.013  -3.900
  25 C    4.175   7.232 -11.611
  26 C   -9.659   7.096   3.903
  27 C    0.211   4.935 -11.591
  28 C   10.973  -4.813   3.900
  29 C    4.167   2.650 -11.583
  30 C    1.517   2.629 -11.596
  31 C    8.899  -3.388  -3.885
  32 C   10.206  -1.083  -3.903
  33 C    4.935  -1.091  -3.905
  34 C    6.250  -3.369  -3.900
  35 C    8.892   1.194  -3.913
  36 C    6.241   1.215  -3.900
  37 O    9.064  -8.182  -3.879
                                385 S  
                                         6.773E+03 1.727E-03 0.000E+00 0.000E+00
                                         1.017E+03 1.325E-02 0.000E+00 0.000E+00
                                         2.313E+02 6.603E-02 0.000E+00 0.000E+00
                                         6.501E+01 2.353E-01 0.000E+00 0.000E+00
                                         2.050E+01 5.498E-01 0.000E+00 0.000E+00
                                386 S  
                                         6.716E+00 1.000E+00 0.000E+00 0.000E+00
                                387 S  
                                         1.147E+00 1.000E+00 0.000E+00 0.000E+00
                                388 S  
                                         3.342E-01 1.000E+00 0.000E+00 0.000E+00
                         389-   391 P  
                                         1.769E+01 0.000E+00 4.359E-02 0.000E+00
                                         3.854E+00 0.000E+00 2.318E-01 0.000E+00
                                         1.047E+00 0.000E+00 5.146E-01 0.000E+00
                         392-   394 P  
                                         2.759E-01 0.000E+00 1.000E+00 0.000E+00
                         395-   399 D  
                                         8.000E-01 0.000E+00 0.000E+00 1.000E+00
  38 O  -11.616   3.756  -3.839
  39 O   -2.169  -3.756  11.597
  40 O    2.169   8.270  -3.879
  41 O    2.169   3.757  -3.839
  42 O    6.077   6.013  -3.899

 *******************************************************************************
 FINISHED BASIS SET HANDLING 
 *******************************************************************************

 INFORMATION **** SET_MPP **** PCRYSTAL CALCULATION
 INFORMATION **** READM2 **** NEW DEFAULT: FOCK/KS MATRIX MIXING SET TO 30 %
 INFORMATION **** READM2 **** NEW DEFAULT: FULL DIRECT SCF MODE
 INFORMATION **** READM2 **** NEW DEFAULT: COULOMB BIPOLAR BUFFER SET TO 32 Mb
 INFORMATION **** READM2 **** NEW DEFAULT: EXCHANGE BIPOLAR BUFFER SET TO 32 Mb

 *******************************************************************************
 NEW DEFAULT: DFT INTEGRATION GRID INCREASED TO XLGRID
 NEW DEFAULT: DIIS ACCELERATOR ACTIVE
 USE KEYWORD NODIIS TO TURN IT OFF
 *******************************************************************************

 WARNING **** RDDFTP **** HSEsol-HJS ACTIVE
 RANGE SEPARATION - OMEGA:   0.110000000000000     
 WARNING **** RDDFTP **** HSEsol-3c has to be combined with sol-def2-mSVP basis set
 *******************************************************************************
 N. OF ATOMS PER CELL        42  COULOMB OVERLAP TOL         (T1) 10**   -6
 NUMBER OF SHELLS           234  COULOMB PENETRATION TOL     (T2) 10**   -6
 NUMBER OF AO               474  EXCHANGE OVERLAP TOL        (T3) 10**   -6
 N. OF ELECTRONS PER CELL   198  EXCHANGE PSEUDO OVP (F(G))  (T4) 10**   -6
 CORE ELECTRONS PER CELL     60  EXCHANGE PSEUDO OVP (P(G))  (T5) 10**  -12
 N. OF SYMMETRY OPERATORS     1  POLE ORDER IN MONO ZONE                  4
 *******************************************************************************
 TYPE OF CALCULATION :  RESTRICTED CLOSED SHELL
 KOHN-SHAM HAMILTONIAN

 (EXCHANGE)[CORRELATION] FUNCTIONAL:(HSEsol GGA)[PBEsol]

 RANGE-SEPARATED HYBRID FUNCTIONAL 
 OMEGA (SHORT-RANGE)[LONG-RANGE]:(    0.1100)[    0.0000]

 HYBRID EXCHANGE - PERCENTAGE OF FOCK EXCHANGE    25.0000

 CAPPA:IS1  2;IS2  2;IS3  8; K PTS MONK NET  20; SYMMOPS:K SPACE   2;G SPACE   1

 *******************************************************************************
 MAX NUMBER OF SCF CYCLES      50  CONVERGENCE ON DELTAP        10**-16
 WEIGHT OF F(I) IN F(I+1)      30% CONVERGENCE ON ENERGY        10**- 6
 SHRINK. FACT.(MONKH.)    2  2  8  NUMBER OF K POINTS IN THE IBZ     20
 SHRINKING FACTOR(GILAT NET)    8  NUMBER OF K POINTS(GILAT NET)   1028
 *******************************************************************************
 *** K POINTS COORDINATES (OBLIQUE COORDINATES IN UNITS OF IS =  2)
   1-R(  0  0  0)   2-R(  1  0  0)   3-R(  0  1  0)   4-R(  1  1  0)
   5-C(  0  0  1)   6-C(  1  0  1)   7-C(  0  1  1)   8-C(  1  1  1)
   9-C(  0  0  2)  10-C(  1  0  2)  11-C(  0  1  2)  12-C(  1  1  2)
  13-C(  0  0  3)  14-C(  1  0  3)  15-C(  0  1  3)  16-C(  1  1  3)
  17-R(  0  0  4)  18-R(  1  0  4)  19-R(  0  1  4)  20-R(  1  1  4)

 DIRECT LATTICE VECTORS COMPON. (A.U.)     RECIP. LATTICE VECTORS COMPON. (A.U.) 
        X            Y            Z              X            Y            Z
   24.5879030  -14.1935232    0.0000000      0.2555397    0.0000000   -0.1557962
    0.0000000   28.3910867    0.0000000      0.1277517    0.2213084   -0.3116237
    4.7237224    8.1830430    7.7479329      0.0000000    0.0000000    0.8109499

 DISK SPACE FOR EIGENVECTORS (FTN 10)     7189632 REALS

 SYMMETRY ADAPTION OF THE BLOCH FUNCTIONS DISABLED
 TTTTTTTTTTTTTTTTTTTTTTTTTTTTTT gordsh1     TELAPSE        0.04 TCPU        0.04

 MATRIX SIZE: P(G)  297960, F(G)   60381, P(G) IRR  150063, F(G) IRR   61005
 MAX G-VECTOR INDEX FOR 1- AND 2-ELECTRON INTEGRALS  43

 TTTTTTTTTTTTTTTTTTTTTTTTTTTTTT INPUT       TELAPSE        0.36 TCPU        0.36

 NEIGHBORS OF THE NON-EQUIVALENT ATOMS

 N = NUMBER OF NEIGHBORS AT DISTANCE R
    ATOM  N     R/ANG      R/AU   NEIGHBORS (ATOM LABELS AND CELL INDICES)
   1 B    1     1.3791     2.6061   37 O   -1 0 0
   1 B    1     1.3793     2.6065   38 O    0 0 0
   1 B    1     1.5503     2.9297   25 C   -1-1 1
   1 B    1     2.3895     4.5155    3 B   -1 0 0
   1 B    1     2.3898     4.5160    2 B    0 0 0
   1 B    1     2.5632     4.8437   26 C    0 0-1

   2 B    1     1.3793     2.6065   39 O    0 1-2
   2 B    1     1.3793     2.6065   38 O    0 0 0
   2 B    1     1.5504     2.9298   19 C    0 0 0
   2 B    1     2.3895     4.5156    3 B   -1 0 0
   2 B    1     2.3898     4.5160    1 B    0 0 0
   2 B    1     2.5634     4.8440   22 C    0 0 0

   3 B    1     1.3791     2.6061   37 O    0 0 0
   3 B    1     1.3793     2.6064   39 O    1 1-2
   3 B    1     1.5502     2.9294   31 C    0 0 0
   3 B    1     2.3895     4.5155    1 B    1 0 0
   3 B    1     2.3895     4.5156    2 B    1 0 0
   3 B    1     2.5629     4.8433   32 C    0 0 0

   4 B    1     1.3795     2.6068   40 O    0 0 0
   4 B    1     1.3795     2.6070   41 O    0 0 0
   4 B    1     1.5513     2.9316   24 C    0 0 0
   4 B    1     2.3905     4.5174    6 B    0 0 0
   4 B    1     2.3905     4.5175    5 B    0 0 0
   4 B    1     2.5648     4.8468   23 C    0 0 0

   5 B    1     1.3795     2.6069   41 O    0 0 0
   5 B    1     1.3797     2.6072   42 O    0 0 0
   5 B    1     1.5516     2.9322   36 C    0 0 0
   5 B    1     2.3905     4.5175    4 B    0 0 0
   5 B    1     2.3911     4.5185    6 B    0 0 0
   5 B    1     2.5651     4.8473   35 C    0 0 0

   6 B    1     1.3795     2.6068   40 O    0 0 0
   6 B    1     1.3796     2.6071   42 O    0 0 0
   6 B    1     1.5516     2.9322   30 C    0 0 1
   6 B    1     2.3905     4.5174    4 B    0 0 0
   6 B    1     2.3911     4.5185    5 B    0 0 0
   6 B    1     2.5651     4.8473   29 C    0 0 1

   7 H    1     1.0913     2.0623   20 C    0 0 0
   7 H    1     2.1472     4.0576   19 C    0 0 0
   7 H    1     2.1680     4.0969   23 C    0 0 0
   7 H    1     2.5202     4.7625   10 H    0 0 0
   7 H    1     2.5676     4.8520   38 O    0 0 0
   7 H    1     2.7321     5.1630    2 B    0 0 0

   8 H    1     1.0914     2.0625   21 C    0 0 0
   8 H    1     2.1493     4.0616   24 C    0 0 0
   8 H    1     2.1666     4.0942   22 C    0 0 0
   8 H    1     2.5198     4.7618    9 H    0 1-1
   8 H    1     2.5720     4.8604   40 O    0 0 0
   8 H    1     2.7362     5.1707    4 B    0 0 0

   9 H    1     1.0914     2.0624   22 C    0-1 1
   9 H    1     2.1471     4.0575   19 C    0-1 1
   9 H    1     2.1680     4.0970   21 C    0-1 1
   9 H    1     2.5198     4.7618    8 H    0-1 1
   9 H    1     2.5665     4.8500   39 O    0 0-1
   9 H    1     2.7315     5.1618    2 B    0-1 1

  10 H    1     1.0915     2.0626   23 C    0 0 0
  10 H    1     2.1490     4.0610   24 C    0 0 0
  10 H    1     2.1669     4.0948   20 C    0 0 0
  10 H    1     2.5202     4.7625    7 H    0 0 0
  10 H    1     2.5712     4.8588   41 O    0 0 0
  10 H    1     2.7351     5.1686    4 B    0 0 0

  11 H    1     1.0913     2.0623   26 C    0 0 0
  11 H    1     2.1469     4.0571   25 C   -1-1 2
  11 H    1     2.1680     4.0968   29 C   -1-1 2
  11 H    1     2.5198     4.7617   14 H    0 0 0
  11 H    1     2.5670     4.8510   38 O    0 0 1
  11 H    1     2.7310     5.1609    1 B    0 0 1

  12 H    1     1.0914     2.0625   27 C    0-1 2
  12 H    1     2.1493     4.0617   30 C    0-1 2
  12 H    1     2.1664     4.0939   28 C    0 0 0
  12 H    1     2.5192     4.7606   13 H    0 0 0
  12 H    1     2.5735     4.8632   40 O    0-1 1
  12 H    1     2.7371     5.1723    6 B    0-1 1

  13 H    1     1.0914     2.0624   28 C    0 0 0
  13 H    1     2.1475     4.0581   25 C    0-1 2
  13 H    1     2.1679     4.0967   27 C    0-1 2
  13 H    1     2.5192     4.7606   12 H    0 0 0
  13 H    1     2.5675     4.8519   37 O    0 0 1
  13 H    1     2.7328     5.1643    1 B    1 0 1

  14 H    1     1.0914     2.0625   29 C   -1-1 2
  14 H    1     2.1491     4.0612   30 C   -1-1 2
  14 H    1     2.1666     4.0942   26 C    0 0 0
  14 H    1     2.5198     4.7617   11 H    0 0 0
  14 H    1     2.5723     4.8609   42 O   -1-1 1
  14 H    1     2.7355     5.1693    6 B   -1-1 1

  15 H    1     1.0914     2.0624   32 C   -1-1 1
  15 H    1     2.1475     4.0582   31 C   -1-1 1
  15 H    1     2.1678     4.0966   35 C   -1-1 1
  15 H    1     2.5200     4.7621   18 H   -1-1 1
  15 H    1     2.5667     4.8503   39 O    0 0-1
  15 H    1     2.7315     5.1618    3 B   -1-1 1

  16 H    1     1.0913     2.0623   33 C    0 0 0
  16 H    1     2.1487     4.0605   36 C    0 0 0
  16 H    1     2.1667     4.0945   34 C    0 0 0
  16 H    1     2.5197     4.7616   17 H    0 0 0
  16 H    1     2.5723     4.8610   41 O    0 0 0
  16 H    1     2.7359     5.1701    5 B    0 0 0

  17 H    1     1.0915     2.0626   34 C    0 0 0
  17 H    1     2.1479     4.0589   31 C    0 0 0
  17 H    1     2.1679     4.0968   33 C    0 0 0
  17 H    1     2.5197     4.7616   16 H    0 0 0
  17 H    1     2.5677     4.8522   37 O    0 0 0
  17 H    1     2.7331     5.1648    3 B    0 0 0

  18 H    1     1.0914     2.0624   35 C    0 0 0
  18 H    1     2.1486     4.0602   36 C    0 0 0
  18 H    1     2.1668     4.0947   32 C    0 0 0
  18 H    1     2.5200     4.7621   15 H    1 1-1
  18 H    1     2.5717     4.8598   42 O    0 0 0
  18 H    1     2.7349     5.1682    5 B    0 0 0

  19 C    1     1.4020     2.6495   22 C    0 0 0
  19 C    1     1.4021     2.6495   20 C    0 0 0
  19 C    1     1.5504     2.9298    2 B    0 0 0
  19 C    1     2.1471     4.0575    9 H    0 1-1
  19 C    1     2.1472     4.0576    7 H    0 0 0
  19 C    1     2.4246     4.5817   21 C    0 0 0

  20 C    1     1.0913     2.0623    7 H    0 0 0
  20 C    1     1.3914     2.6294   23 C    0 0 0
  20 C    1     1.4021     2.6495   19 C    0 0 0
  20 C    1     2.1669     4.0948   10 H    0 0 0
  20 C    1     2.4177     4.5688   22 C    0 0 0
  20 C    1     2.4250     4.5825   24 C    0 0 0

  21 C    1     1.0914     2.0625    8 H    0 0 0
  21 C    1     1.3914     2.6293   22 C    0 0 0
  21 C    1     1.4026     2.6505   24 C    0 0 0
  21 C    1     2.1680     4.0970    9 H    0 1-1
  21 C    1     2.4182     4.5697   23 C    0 0 0
  21 C    1     2.4246     4.5817   19 C    0 0 0

  22 C    1     1.0914     2.0624    9 H    0 1-1
  22 C    1     1.3914     2.6293   21 C    0 0 0
  22 C    1     1.4020     2.6495   19 C    0 0 0
  22 C    1     2.1666     4.0942    8 H    0 0 0
  22 C    1     2.4177     4.5688   20 C    0 0 0
  22 C    1     2.4250     4.5826   24 C    0 0 0

  23 C    1     1.0915     2.0626   10 H    0 0 0
  23 C    1     1.3914     2.6294   20 C    0 0 0
  23 C    1     1.4025     2.6504   24 C    0 0 0
  23 C    1     2.1680     4.0969    7 H    0 0 0
  23 C    1     2.4182     4.5697   21 C    0 0 0
  23 C    1     2.4246     4.5818   19 C    0 0 0

  24 C    1     1.4025     2.6504   23 C    0 0 0
  24 C    1     1.4026     2.6505   21 C    0 0 0
  24 C    1     1.5513     2.9316    4 B    0 0 0
  24 C    1     2.1490     4.0610   10 H    0 0 0
  24 C    1     2.1493     4.0616    8 H    0 0 0
  24 C    1     2.4250     4.5825   20 C    0 0 0

  25 C    1     1.4020     2.6494   26 C    1 1-2
  25 C    1     1.4021     2.6495   28 C    0 1-2
  25 C    1     1.5503     2.9297    1 B    1 1-1
  25 C    1     2.1469     4.0571   11 H    1 1-2
  25 C    1     2.1475     4.0581   13 H    0 1-2
  25 C    1     2.4246     4.5818   27 C    0 0 0

  26 C    1     1.0913     2.0623   11 H    0 0 0
  26 C    1     1.3914     2.6293   29 C   -1-1 2
  26 C    1     1.4020     2.6494   25 C   -1-1 2
  26 C    1     2.1666     4.0942   14 H    0 0 0
  26 C    1     2.4175     4.5684   28 C   -1 0 0
  26 C    1     2.4251     4.5828   30 C   -1-1 2

  27 C    1     1.0914     2.0625   12 H    0 1-2
  27 C    1     1.3915     2.6295   28 C    0 1-2
  27 C    1     1.4026     2.6505   30 C    0 0 0
  27 C    1     2.1679     4.0967   13 H    0 1-2
  27 C    1     2.4179     4.5691   29 C    0 0 0
  27 C    1     2.4246     4.5818   25 C    0 0 0

  28 C    1     1.0914     2.0624   13 H    0 0 0
  28 C    1     1.3915     2.6295   27 C    0-1 2
  28 C    1     1.4021     2.6495   25 C    0-1 2
  28 C    1     2.1664     4.0939   12 H    0 0 0
  28 C    1     2.4175     4.5684   26 C    1 0 0
  28 C    1     2.4253     4.5832   30 C    0-1 2

  29 C    1     1.0914     2.0625   14 H    1 1-2
  29 C    1     1.3914     2.6293   26 C    1 1-2
  29 C    1     1.4025     2.6504   30 C    0 0 0
  29 C    1     2.1680     4.0968   11 H    1 1-2
  29 C    1     2.4179     4.5691   27 C    0 0 0
  29 C    1     2.4247     4.5819   25 C    0 0 0

  30 C    1     1.4025     2.6504   29 C    0 0 0
  30 C    1     1.4026     2.6505   27 C    0 0 0
  30 C    1     1.5516     2.9322    6 B    0 0-1
  30 C    1     2.1491     4.0612   14 H    1 1-2
  30 C    1     2.1493     4.0617   12 H    0 1-2
  30 C    1     2.4251     4.5828   26 C    1 1-2

  31 C    1     1.4021     2.6496   32 C    0 0 0
  31 C    1     1.4021     2.6497   34 C    0 0 0
  31 C    1     1.5502     2.9294    3 B    0 0 0
  31 C    1     2.1475     4.0582   15 H    1 1-1
  31 C    1     2.1479     4.0589   17 H    0 0 0
  31 C    1     2.4244     4.5814   33 C    0 0 0

  32 C    1     1.0914     2.0624   15 H    1 1-1
  32 C    1     1.3914     2.6293   35 C    0 0 0
  32 C    1     1.4021     2.6496   31 C    0 0 0
  32 C    1     2.1668     4.0947   18 H    0 0 0
  32 C    1     2.4179     4.5692   34 C    0 0 0
  32 C    1     2.4251     4.5827   36 C    0 0 0

  33 C    1     1.0913     2.0623   16 H    0 0 0
  33 C    1     1.3914     2.6294   34 C    0 0 0
  33 C    1     1.4025     2.6504   36 C    0 0 0
  33 C    1     2.1679     4.0968   17 H    0 0 0
  33 C    1     2.4178     4.5690   35 C    0 0 0
  33 C    1     2.4244     4.5814   31 C    0 0 0

  34 C    1     1.0915     2.0626   17 H    0 0 0
  34 C    1     1.3914     2.6294   33 C    0 0 0
  34 C    1     1.4021     2.6497   31 C    0 0 0
  34 C    1     2.1667     4.0945   16 H    0 0 0
  34 C    1     2.4179     4.5692   32 C    0 0 0
  34 C    1     2.4253     4.5832   36 C    0 0 0

  35 C    1     1.0914     2.0624   18 H    0 0 0
  35 C    1     1.3914     2.6293   32 C    0 0 0
  35 C    1     1.4025     2.6503   36 C    0 0 0
  35 C    1     2.1678     4.0966   15 H    1 1-1
  35 C    1     2.4178     4.5690   33 C    0 0 0
  35 C    1     2.4245     4.5817   31 C    0 0 0

  36 C    1     1.4025     2.6503   35 C    0 0 0
  36 C    1     1.4025     2.6504   33 C    0 0 0
  36 C    1     1.5516     2.9322    5 B    0 0 0
  36 C    1     2.1486     4.0602   18 H    0 0 0
  36 C    1     2.1487     4.0605   16 H    0 0 0
  36 C    1     2.4251     4.5827   32 C    0 0 0

  37 O    1     1.3791     2.6061    1 B    1 0 0
  37 O    1     1.3791     2.6061    3 B    0 0 0
  37 O    1     2.3880     4.5126   38 O    1 0 0
  37 O    1     2.3882     4.5130   39 O    1 1-2
  37 O    1     2.5383     4.7966   31 C    0 0 0
  37 O    1     2.5384     4.7968   25 C    0-1 1

  38 O    1     1.3793     2.6065    1 B    0 0 0
  38 O    1     1.3793     2.6065    2 B    0 0 0
  38 O    1     2.3880     4.5126   37 O   -1 0 0
  38 O    1     2.3882     4.5131   39 O    0 1-2
  38 O    1     2.5391     4.7981   19 C    0 0 0
  38 O    1     2.5395     4.7990   25 C   -1-1 1

  39 O    1     1.3793     2.6064    3 B   -1-1 2
  39 O    1     1.3793     2.6065    2 B    0-1 2
  39 O    1     2.3882     4.5130   37 O   -1-1 2
  39 O    1     2.3882     4.5131   38 O    0-1 2
  39 O    1     2.5390     4.7980   19 C    0-1 2
  39 O    1     2.5391     4.7982   31 C   -1-1 2

  40 O    1     1.3795     2.6068    6 B    0 0 0
  40 O    1     1.3795     2.6068    4 B    0 0 0
  40 O    1     2.3880     4.5126   42 O    0 0 0
  40 O    1     2.3884     4.5134   41 O    0 0 0
  40 O    1     2.5400     4.7998   24 C    0 0 0
  40 O    1     2.5403     4.8005   30 C    0 0 1

  41 O    1     1.3795     2.6069    5 B    0 0 0
  41 O    1     1.3795     2.6070    4 B    0 0 0
  41 O    1     2.3881     4.5128   42 O    0 0 0
  41 O    1     2.3884     4.5134   40 O    0 0 0
  41 O    1     2.5404     4.8006   24 C    0 0 0
  41 O    1     2.5405     4.8008   36 C    0 0 0

  42 O    1     1.3796     2.6071    6 B    0 0 0
  42 O    1     1.3797     2.6072    5 B    0 0 0
  42 O    1     2.3880     4.5126   40 O    0 0 0
  42 O    1     2.3881     4.5128   41 O    0 0 0
  42 O    1     2.5409     4.8016   36 C    0 0 0
  42 O    1     2.5410     4.8019   30 C    0 0 1


 SYMMETRY ALLOWED INTERNAL DEGREE(S) OF FREEDOM: 123
 TTTTTTTTTTTTTTTTTTTTTTTTTTTTTT SYMM        TELAPSE        0.36 TCPU        0.36
 TTTTTTTTTTTTTTTTTTTTTTTTTTTTTT INT_SCREEN  TELAPSE        0.40 TCPU        0.39

 DFT PARAMETERS

     ATOM       ELECTRONS   NET CHARGE   R(ANGSTROM)
   1   5  B       5.0000      0.0000     0.89000000
   7   1  H       1.0000      0.0000     1.11000000
  19   6  C       6.0000      0.0000     0.77000000
  37   8  O       8.0000      0.0000     0.74000000

 SIZE OF GRID=    1326212
 TTTTTTTTTTTTTTTTTTTTTTTTTTTTTT MAKE_GRID2  TELAPSE        8.27 TCPU        8.26
 BECKE WEIGHT FUNCTION
 RADSAFE =     2.00
 TOLERANCES - DENSITY:10**- 6; POTENTIAL:10**- 9; GRID WGT:10**-14

 RADIAL INTEGRATION  - INTERVALS (POINTS,UPPER LIMIT):            1( 75,  4.0*R)

 ANGULAR INTEGRATION - INTERVALS (ACCURACY LEVEL [N. POINTS] UPPER LIMIT):
  1(  4[  86]   0.2)  2(  8[ 194]   0.5)  3( 12[ 350]   0.9)  4( 16[ 974]   3.5)
  5( 12[ 350]9999.0)
 TTTTTTTTTTTTTTTTTTTTTTTTTTTTTT INT_CALC    TELAPSE        8.35 TCPU        8.34
 EEEEEEEEEE INT_CALC TERMINATION  DATE 19 02 2026 TIME 19:10:57.4

 *******************************************************************************
 cof-1_z41_L050_incl                                                             
 CRYSTAL - SCF - TYPE OF CALCULATION :  RESTRICTED CLOSED SHELL
 *******************************************************************************

 CAPPA:IS1  2;IS2  2;IS3  8; K PTS MONK NET  20; SYMMOPS:K SPACE   2;G SPACE   1

 TTTTTTTTTTTTTTTTTTTTTTTTTTTTTT SDIK        TELAPSE        8.94 TCPU       16.01

 AAAAAAAAAAAAAAAAAAAAAAAAAAAAAAAAAAAAAAAAAAAAAAAAAAAAAAAAAAAAAAAAAAAAAAAAAAAAAAA
         ATOMIC WAVEFUNCTION(S)


 NUCLEAR CHARGE  5.0  SYMMETRY SPECIES            S    P
 N. ELECTRONS    5.0  NUMBER OF PRIMITIVE GTOS    8    4
                      NUMBER OF CONTRACTED GTOS   4    2
                      NUMBER OF CLOSED SHELLS     2    0
                      OPEN SHELL OCCUPATION       0    1

  ZNUC  SCFIT    TOTAL HF ENERGY   KINETIC ENERGY   VIRIAL THEOREM ACCURACY
   5.0    11    -2.451164084E+01  2.462155050E+01 -1.995536038E+00  1.5E-06

 NUCLEAR CHARGE  1.0  SYMMETRY SPECIES            S
 N. ELECTRONS    1.0  NUMBER OF PRIMITIVE GTOS    4
                      NUMBER OF CONTRACTED GTOS   2
                      NUMBER OF CLOSED SHELLS     0
                      OPEN SHELL OCCUPATION       1

  ZNUC  SCFIT    TOTAL HF ENERGY   KINETIC ENERGY   VIRIAL THEOREM ACCURACY
   1.0     1    -4.977266687E-01  5.190767460E-01 -1.958869132E+00  0.0E+00

 NUCLEAR CHARGE  6.0  SYMMETRY SPECIES            S    P
 N. ELECTRONS    6.0  NUMBER OF PRIMITIVE GTOS    8    4
                      NUMBER OF CONTRACTED GTOS   4    2
                      NUMBER OF CLOSED SHELLS     2    0
                      OPEN SHELL OCCUPATION       0    2

  ZNUC  SCFIT    TOTAL HF ENERGY   KINETIC ENERGY   VIRIAL THEOREM ACCURACY
   6.0     9    -3.766704647E+01  3.775180683E+01 -1.997754800E+00  1.1E-06

 NUCLEAR CHARGE  8.0  SYMMETRY SPECIES            S    P
 N. ELECTRONS    8.0  NUMBER OF PRIMITIVE GTOS    8    4
                      NUMBER OF CONTRACTED GTOS   4    2
                      NUMBER OF CLOSED SHELLS     2    0
                      OPEN SHELL OCCUPATION       0    4

  ZNUC  SCFIT    TOTAL HF ENERGY   KINETIC ENERGY   VIRIAL THEOREM ACCURACY
   8.0    12    -7.477373220E+01  7.477365593E+01 -2.000001020E+00  3.8E-06

 AAAAAAAAAAAAAAAAAAAAAAAAAAAAAAAAAAAAAAAAAAAAAAAAAAAAAAAAAAAAAAAAAAAAAAAAAAAAAAA

 CHARGE NORMALIZATION FACTOR   1.00000000
 TOTAL ATOMIC CHARGES:
   5.0000000   5.0000000   5.0000000   5.0000000   5.0000000   5.0000000
   1.0000000   1.0000000   1.0000000   1.0000000   1.0000000   1.0000000
   1.0000000   1.0000000   1.0000000   1.0000000   1.0000000   1.0000000
   6.0000000   6.0000000   6.0000000   6.0000000   6.0000000   6.0000000
   6.0000000   6.0000000   6.0000000   6.0000000   6.0000000   6.0000000
   6.0000000   6.0000000   6.0000000   6.0000000   6.0000000   6.0000000
   8.0000000   8.0000000   8.0000000   8.0000000   8.0000000   8.0000000
 TTTTTTTTTTTTTTTTTTTTTTTTTTTTTT MOQGAD      TELAPSE        8.98 TCPU       17.28
 TTTTTTTTTTTTTTTTTTTTTTTTTTTTTT SHELLXN     TELAPSE       14.87 TCPU      201.12
 TTTTTTTTTTTTTTTTTTTTTTTTTTTTTT MONMO3      TELAPSE       15.01 TCPU      205.43
 NUMERICALLY INTEGRATED DENSITY    198.0000002939
 TTTTTTTTTTTTTTTTTTTTTTTTTTTTTT NUMDFT      TELAPSE       15.54 TCPU      222.68
 CYC   0 ETOT(AU) -1.295955250988E+03 DETOT -1.30E+03 tst  0.00E+00 PX  1.00E+00
 TTTTTTTTTTTTTTTTTTTTTTTTTTTTTT DIIS        TELAPSE       15.58 TCPU      223.77
 TTTTTTTTTTTTTTTTTTTTTTTTTTTTTT FDIK        TELAPSE       16.04 TCPU      238.59
 INSULATING STATE
 TOP OF VALENCE BANDS -    BAND     99; K    1; EIG -3.1479140E-01 AU
 BOTTOM OF VIRTUAL BANDS - BAND    100; K   17; EIG -1.6153692E-01 AU
 INDIRECT ENERGY BAND GAP:   4.1703 eV
 BOTTOM OF VIRTUAL BANDS - BAND    100; K    1; EIG -1.5591311E-01 AU
 TTTTTTTTTTTTTTTTTTTTTTTTTTTTTT PDIG        TELAPSE       16.36 TCPU      244.76
 CHARGE NORMALIZATION FACTOR   1.00000000
 TOTAL ATOMIC CHARGES:
   4.1579164   4.1671491   4.1673719   4.1668621   4.1666142   4.1577498
   0.7851400   0.7852637   0.7849618   0.7850663   0.7853410   0.7855132
   0.7853304   0.7854702   0.7849590   0.7851302   0.7850927   0.7852580
   6.0433759   6.2655563   6.2655439   6.2650028   6.2650112   6.0427440
   6.0447371   6.2642917   6.2643833   6.2642210   6.2643932   6.0434710
   6.0437456   6.2647759   6.2653833   6.2651838   6.2658224   6.0422990
   8.6921637   8.6923412   8.6916671   8.6926845   8.6921142   8.6928977
 TTTTTTTTTTTTTTTTTTTTTTTTTTTTTT MOQGAD      TELAPSE       16.40 TCPU      244.80
 TTTTTTTTTTTTTTTTTTTTTTTTTTTTTT SHELLXN     TELAPSE       22.40 TCPU      435.83
 TTTTTTTTTTTTTTTTTTTTTTTTTTTTTT MONMO3      TELAPSE       22.54 TCPU      440.13
 NUMERICALLY INTEGRATED DENSITY    198.0000093858
 TTTTTTTTTTTTTTTTTTTTTTTTTTTTTT NUMDFT      TELAPSE       23.08 TCPU      457.61
 CYC   1 ETOT(AU) -1.288816688725E+03 DETOT  7.14E+00 tst  0.00E+00 PX  1.00E+00
 TTTTTTTTTTTTTTTTTTTTTTTTTTTTTT DIIS        TELAPSE       23.13 TCPU      459.06
 DIIS TEST: 0.11011E+01 AT SCF   CYCLE   1 - MIX   30 %
 TTTTTTTTTTTTTTTTTTTTTTTTTTTTTT FDIK        TELAPSE       23.60 TCPU      474.08
 INSULATING STATE
 TOP OF VALENCE BANDS -    BAND     99; K   17; EIG -2.2841614E-01 AU
 TOP OF VALENCE BANDS -    BAND     99; K    1; EIG -2.2885662E-01 AU
 BOTTOM OF VIRTUAL BANDS - BAND    100; K   17; EIG -8.6384177E-02 AU
 DIRECT ENERGY BAND GAP:   3.8649 eV
 BOTTOM OF VIRTUAL BANDS - BAND    100; K    1; EIG -7.7572224E-02 AU
 TTTTTTTTTTTTTTTTTTTTTTTTTTTTTT PDIG        TELAPSE       23.91 TCPU      480.25
 CHARGE NORMALIZATION FACTOR   1.00000000
 TOTAL ATOMIC CHARGES:
   4.6961648   4.7026572   4.7028821   4.7028576   4.7028928   4.6963736
   0.9077975   0.9078510   0.9141079   0.9142650   0.9024421   0.9023205
   0.9025090   0.9022667   0.9141048   0.9143456   0.9077938   0.9077966
   5.8676005   6.1368887   6.1374628   6.1373156   6.1374391   5.8700745
   5.8827657   6.1383945   6.1391025   6.1388338   6.1383853   5.8854401
   5.8674101   6.1370121   6.1376683   6.1373360   6.1370469   5.8701329
   8.3325066   8.3327404   8.3362061   8.3323904   8.3358769   8.3325415
 TTTTTTTTTTTTTTTTTTTTTTTTTTTTTT MOQGAD      TELAPSE       23.95 TCPU      480.30
 TTTTTTTTTTTTTTTTTTTTTTTTTTTTTT SHELLXN     TELAPSE       29.96 TCPU      671.39
 TTTTTTTTTTTTTTTTTTTTTTTTTTTTTT MONMO3      TELAPSE       30.09 TCPU      675.70
 NUMERICALLY INTEGRATED DENSITY    198.0000123429
 TTTTTTTTTTTTTTTTTTTTTTTTTTTTTT NUMDFT      TELAPSE       30.64 TCPU      693.28
 CYC   2 ETOT(AU) -1.289011679019E+03 DETOT -1.95E-01 tst  3.81E-03 PX  1.58E-01
 TTTTTTTTTTTTTTTTTTTTTTTTTTTTTT DIIS        TELAPSE       30.68 TCPU      694.71
 DIIS TEST: 0.45122E+00 AT SCF   CYCLE   2 - DIIS ACTIVE - HISTORY:     2 CYCLES
 TTTTTTTTTTTTTTTTTTTTTTTTTTTTTT FDIK        TELAPSE       31.16 TCPU      709.80
 INSULATING STATE
 TOP OF VALENCE BANDS -    BAND     99; K    1; EIG -2.3994373E-01 AU
 BOTTOM OF VIRTUAL BANDS - BAND    100; K   17; EIG -8.2142695E-02 AU
 INDIRECT ENERGY BAND GAP:   4.2940 eV
 BOTTOM OF VIRTUAL BANDS - BAND    100; K    1; EIG -7.3523012E-02 AU
 TTTTTTTTTTTTTTTTTTTTTTTTTTTTTT PDIG        TELAPSE       31.47 TCPU      715.97
 CHARGE NORMALIZATION FACTOR   1.00000000
 TOTAL ATOMIC CHARGES:
   4.4909795   4.5012085   4.5013835   4.5010788   4.5009021   4.4909878
   0.8869750   0.8872028   0.8918773   0.8920022   0.8829816   0.8831416
   0.8831221   0.8829864   0.8918106   0.8921251   0.8870331   0.8870794
   5.8931051   6.1613447   6.1610092   6.1572787   6.1566862   5.8929353
   5.8973565   6.1631370   6.1627422   6.1629297   6.1628127   5.8967596
   5.8933039   6.1572051   6.1567574   6.1610925   6.1613120   5.8926385
   8.5123976   8.5127383   8.5118449   8.5127539   8.5118786   8.5131030
 TTTTTTTTTTTTTTTTTTTTTTTTTTTTTT MOQGAD      TELAPSE       31.51 TCPU      716.01
 TTTTTTTTTTTTTTTTTTTTTTTTTTTTTT SHELLXN     TELAPSE       37.51 TCPU      907.15
 TTTTTTTTTTTTTTTTTTTTTTTTTTTTTT MONMO3      TELAPSE       37.65 TCPU      911.45
 NUMERICALLY INTEGRATED DENSITY    198.0000113292
 TTTTTTTTTTTTTTTTTTTTTTTTTTTTTT NUMDFT      TELAPSE       38.20 TCPU      928.94
 CYC   3 ETOT(AU) -1.289104953123E+03 DETOT -9.33E-02 tst  6.98E-04 PX  6.41E-02
 TTTTTTTTTTTTTTTTTTTTTTTTTTTTTT DIIS        TELAPSE       38.25 TCPU      930.72
 DIIS TEST: 0.14079E-01 AT SCF   CYCLE   3 - DIIS ACTIVE - HISTORY:     3 CYCLES
 TTTTTTTTTTTTTTTTTTTTTTTTTTTTTT FDIK        TELAPSE       38.72 TCPU      945.73
 INSULATING STATE
 TOP OF VALENCE BANDS -    BAND     99; K   17; EIG -2.5025173E-01 AU
 TOP OF VALENCE BANDS -    BAND     99; K    1; EIG -2.5131899E-01 AU
 BOTTOM OF VIRTUAL BANDS - BAND    100; K   17; EIG -9.0606077E-02 AU
 DIRECT ENERGY BAND GAP:   4.3442 eV
 BOTTOM OF VIRTUAL BANDS - BAND    100; K    1; EIG -8.1420338E-02 AU
 TTTTTTTTTTTTTTTTTTTTTTTTTTTTTT PDIG        TELAPSE       39.03 TCPU      951.90
 CHARGE NORMALIZATION FACTOR   1.00000000
 TOTAL ATOMIC CHARGES:
   4.4969192   4.5057193   4.5058919   4.5056739   4.5055392   4.4970046
   0.8698650   0.8699671   0.8742685   0.8743749   0.8647518   0.8647188
   0.8647982   0.8646611   0.8742861   0.8744406   0.8698708   0.8699107
   5.9377463   6.1679504   6.1683104   6.1674600   6.1678509   5.9397465
   5.9488747   6.1706365   6.1714977   6.1710432   6.1708582   5.9504297
   5.9378500   6.1670162   6.1682438   6.1681601   6.1681427   5.9395362
   8.4769101   8.4770536   8.4790011   8.4769270   8.4790408   8.4770521
 TTTTTTTTTTTTTTTTTTTTTTTTTTTTTT MOQGAD      TELAPSE       39.08 TCPU      951.94
 TTTTTTTTTTTTTTTTTTTTTTTTTTTTTT SHELLXN     TELAPSE       45.08 TCPU     1143.10
 TTTTTTTTTTTTTTTTTTTTTTTTTTTTTT MONMO3      TELAPSE       45.21 TCPU     1147.41
 NUMERICALLY INTEGRATED DENSITY    198.0000113578
 TTTTTTTTTTTTTTTTTTTTTTTTTTTTTT NUMDFT      TELAPSE       45.76 TCPU     1164.88
 CYC   4 ETOT(AU) -1.289107955533E+03 DETOT -3.00E-03 tst  2.73E-05 PX  1.41E-02
 TTTTTTTTTTTTTTTTTTTTTTTTTTTTTT DIIS        TELAPSE       45.82 TCPU     1166.73
 DIIS TEST: 0.41140E-02 AT SCF   CYCLE   4 - DIIS ACTIVE - HISTORY:     4 CYCLES
 TTTTTTTTTTTTTTTTTTTTTTTTTTTTTT FDIK        TELAPSE       46.29 TCPU     1181.76
 INSULATING STATE
 TOP OF VALENCE BANDS -    BAND     99; K   17; EIG -2.4848110E-01 AU
 TOP OF VALENCE BANDS -    BAND     99; K    1; EIG -2.4917183E-01 AU
 BOTTOM OF VIRTUAL BANDS - BAND    100; K   17; EIG -9.0193738E-02 AU
 DIRECT ENERGY BAND GAP:   4.3072 eV
 BOTTOM OF VIRTUAL BANDS - BAND    100; K    1; EIG -8.1300735E-02 AU
 TTTTTTTTTTTTTTTTTTTTTTTTTTTTTT PDIG        TELAPSE       46.60 TCPU     1187.94
 CHARGE NORMALIZATION FACTOR   1.00000000
 TOTAL ATOMIC CHARGES:
   4.4986905   4.5075541   4.5077597   4.5075595   4.5074177   4.4987668
   0.8728160   0.8729910   0.8777372   0.8779225   0.8681609   0.8682817
   0.8682789   0.8681540   0.8776955   0.8780383   0.8728539   0.8728982
   5.9220110   6.1683391   6.1681887   6.1663524   6.1657284   5.9220666
   5.9308139   6.1704465   6.1701515   6.1703183   6.1700883   5.9307326
   5.9220745   6.1661987   6.1658530   6.1682094   6.1683644   5.9218757
   8.4877143   8.4880275   8.4884091   8.4879334   8.4882818   8.4882446
 TTTTTTTTTTTTTTTTTTTTTTTTTTTTTT MOQGAD      TELAPSE       46.64 TCPU     1187.98
 TTTTTTTTTTTTTTTTTTTTTTTTTTTTTT SHELLXN     TELAPSE       52.64 TCPU     1379.04
 TTTTTTTTTTTTTTTTTTTTTTTTTTTTTT MONMO3      TELAPSE       52.78 TCPU     1383.35
 NUMERICALLY INTEGRATED DENSITY    198.0000113723
 TTTTTTTTTTTTTTTTTTTTTTTTTTTTTT NUMDFT      TELAPSE       53.32 TCPU     1400.85
 CYC   5 ETOT(AU) -1.289108898596E+03 DETOT -9.43E-04 tst  7.79E-06 PX  6.39E-03
 TTTTTTTTTTTTTTTTTTTTTTTTTTTTTT DIIS        TELAPSE       53.39 TCPU     1402.97
 DIIS TEST: 0.54236E-04 AT SCF   CYCLE   5 - DIIS ACTIVE - HISTORY:     5 CYCLES
 TTTTTTTTTTTTTTTTTTTTTTTTTTTTTT FDIK        TELAPSE       53.86 TCPU     1418.02
 INSULATING STATE
 TOP OF VALENCE BANDS -    BAND     99; K   17; EIG -2.4831967E-01 AU
 TOP OF VALENCE BANDS -    BAND     99; K    1; EIG -2.4896689E-01 AU
 BOTTOM OF VIRTUAL BANDS - BAND    100; K   17; EIG -8.9645372E-02 AU
 DIRECT ENERGY BAND GAP:   4.3177 eV
 BOTTOM OF VIRTUAL BANDS - BAND    100; K    1; EIG -8.0835301E-02 AU
 TTTTTTTTTTTTTTTTTTTTTTTTTTTTTT PDIG        TELAPSE       54.18 TCPU     1424.19
 CHARGE NORMALIZATION FACTOR   1.00000000
 TOTAL ATOMIC CHARGES:
   4.4986284   4.5075227   4.5077081   4.5074212   4.5072868   4.4986574
   0.8737583   0.8738799   0.8786191   0.8786887   0.8691957   0.8691472
   0.8692468   0.8690881   0.8786163   0.8787634   0.8737645   0.8738171
   5.9209992   6.1673803   6.1676554   6.1652429   6.1658148   5.9230791
   5.9294322   6.1694345   6.1703054   6.1698325   6.1697090   5.9308310
   5.9212032   6.1648743   6.1661540   6.1675476   6.1675338   5.9227616
   8.4872268   8.4873766   8.4884293   8.4873152   8.4886005   8.4874510
 TTTTTTTTTTTTTTTTTTTTTTTTTTTTTT MOQGAD      TELAPSE       54.22 TCPU     1424.24
 TTTTTTTTTTTTTTTTTTTTTTTTTTTTTT SHELLXN     TELAPSE       60.22 TCPU     1615.36
 TTTTTTTTTTTTTTTTTTTTTTTTTTTTTT MONMO3      TELAPSE       60.36 TCPU     1619.67
 NUMERICALLY INTEGRATED DENSITY    198.0000113826
 TTTTTTTTTTTTTTTTTTTTTTTTTTTTTT NUMDFT      TELAPSE       60.91 TCPU     1637.15
 CYC   6 ETOT(AU) -1.289108914185E+03 DETOT -1.56E-05 tst  1.07E-07 PX  6.46E-04
 TTTTTTTTTTTTTTTTTTTTTTTTTTTTTT DIIS        TELAPSE       60.98 TCPU     1639.36
 DIIS TEST: 0.52817E-05 AT SCF   CYCLE   6 - DIIS ACTIVE - HISTORY:     6 CYCLES
 TTTTTTTTTTTTTTTTTTTTTTTTTTTTTT FDIK        TELAPSE       61.45 TCPU     1654.39
 INSULATING STATE
 TOP OF VALENCE BANDS -    BAND     99; K   17; EIG -2.4830276E-01 AU
 TOP OF VALENCE BANDS -    BAND     99; K    1; EIG -2.4896708E-01 AU
 BOTTOM OF VIRTUAL BANDS - BAND    100; K   17; EIG -8.9728405E-02 AU
 DIRECT ENERGY BAND GAP:   4.3150 eV
 BOTTOM OF VIRTUAL BANDS - BAND    100; K    1; EIG -8.0864191E-02 AU
 TTTTTTTTTTTTTTTTTTTTTTTTTTTTTT PDIG        TELAPSE       61.76 TCPU     1660.57
 CHARGE NORMALIZATION FACTOR   1.00000000
 TOTAL ATOMIC CHARGES:
   4.4986504   4.5076106   4.5078082   4.5076238   4.5074777   4.4987367
   0.8736982   0.8738751   0.8785360   0.8787363   0.8690296   0.8691591
   0.8691534   0.8690268   0.8784986   0.8788465   0.8737389   0.8737782
   5.9220522   6.1676191   6.1674754   6.1658084   6.1650168   5.9219314
   5.9306692   6.1698389   6.1694902   6.1696821   6.1694507   5.9305162
   5.9220792   6.1656280   6.1651675   6.1674753   6.1676668   5.9217848
   8.4873264   8.4876489   8.4882181   8.4875534   8.4880429   8.4878738
 TTTTTTTTTTTTTTTTTTTTTTTTTTTTTT MOQGAD      TELAPSE       61.80 TCPU     1660.61
 TTTTTTTTTTTTTTTTTTTTTTTTTTTTTT SHELLXN     TELAPSE       67.80 TCPU     1851.66
 TTTTTTTTTTTTTTTTTTTTTTTTTTTTTT MONMO3      TELAPSE       67.93 TCPU     1855.97
 NUMERICALLY INTEGRATED DENSITY    198.0000113804
 TTTTTTTTTTTTTTTTTTTTTTTTTTTTTT NUMDFT      TELAPSE       68.48 TCPU     1873.45
 CYC   7 ETOT(AU) -1.289108914487E+03 DETOT -3.03E-07 tst  4.27E-08 PX  2.90E-04
 TTTTTTTTTTTTTTTTTTTTTTTTTTTTTT DIIS        TELAPSE       68.56 TCPU     1875.91
 DIIS TEST: 0.19761E-05 AT SCF   CYCLE   7 - DIIS ACTIVE - HISTORY:     7 CYCLES
 TTTTTTTTTTTTTTTTTTTTTTTTTTTTTT FDIK        TELAPSE       69.03 TCPU     1891.08
 INSULATING STATE
 TOP OF VALENCE BANDS -    BAND     99; K   17; EIG -2.4830435E-01 AU
 TOP OF VALENCE BANDS -    BAND     99; K    1; EIG -2.4897258E-01 AU
 BOTTOM OF VIRTUAL BANDS - BAND    100; K   17; EIG -8.9740412E-02 AU
 DIRECT ENERGY BAND GAP:   4.3147 eV
 BOTTOM OF VIRTUAL BANDS - BAND    100; K    1; EIG -8.0874590E-02 AU
 TTTTTTTTTTTTTTTTTTTTTTTTTTTTTT PDIG        TELAPSE       69.34 TCPU     1897.25
 CHARGE NORMALIZATION FACTOR   1.00000000
 TOTAL ATOMIC CHARGES:
   4.4987235   4.5076472   4.5078419   4.5076044   4.5074644   4.4987839
   0.8736859   0.8738411   0.8785529   0.8786805   0.8690384   0.8690855
   0.8691284   0.8689870   0.8785265   0.8787799   0.8737108   0.8737602
   5.9214900   6.1675238   6.1675505   6.1654776   6.1654054   5.9224565
   5.9302269   6.1696124   6.1698283   6.1697144   6.1695307   5.9307969
   5.9216237   6.1652375   6.1656158   6.1675239   6.1675968   5.9222034
   8.4873600   8.4876015   8.4882524   8.4875175   8.4882599   8.4877520
 TTTTTTTTTTTTTTTTTTTTTTTTTTTTTT MOQGAD      TELAPSE       69.39 TCPU     1897.29
 TTTTTTTTTTTTTTTTTTTTTTTTTTTTTT SHELLXN     TELAPSE       75.38 TCPU     2088.33
 +++ ENERGIES IN A.U. +++
 ::: EXT EL-POLE                                  -1.2800610993346E+03
 ::: EXT EL-SPHEROPOLE                             1.3953541731178E+01
 ::: BIELET ZONE E-E                               2.0272261168091E+03
 ::: TOTAL E-E                                     7.6111855920564E+02
 ::: TOTAL E-N + N-E                              -3.3525315436325E+03
 ::: TOTAL N-N                                     1.5608612263590E+02
 ::: KINETIC ENERGY                                1.2799357275594E+03
 ::: PSEUDO TOTAL   ENERGY                        -1.1553911342315E+03
 ::: VIRIAL COEFFICIENT                            1.0511408120536E+00
 TTTTTTTTTTTTTTTTTTTTTTTTTTTTTT MONMO3      TELAPSE       75.52 TCPU     2092.65
 NUMERICALLY INTEGRATED DENSITY    198.0000113794
 EXCHANGE ENERGY: -0.126028101255E+03  CORRELATION ENERGY: -0.768967944204E+01
 TTTTTTTTTTTTTTTTTTTTTTTTTTTTTT NUMDFT      TELAPSE       76.07 TCPU     2110.12
 CYC   8 ETOT(AU) -1.289108914928E+03 DETOT -4.41E-07 tst  1.03E-08 PX  2.90E-04

 == SCF ENDED - CONVERGENCE ON ENERGY      E(AU) -1.2891089149281E+03 CYCLES   8


 ENERGY EXPRESSION=HARTREE+FOCK EXCH*0.00000+(HSESOL     EXCH)*1.00000+PBESOL     CORR


 TOTAL ENERGY(DFT)(AU)(  8) -1.2891089149281E+03 DE-4.4E-07 tester 1.0E-08
 TTTTTTTTTTTTTTTTTTTTTTTTTTTTTT EDFT        TELAPSE       76.07 TCPU     2110.13
 
 INFORMATION **** DFTD3 ENERGY **** CALCULATE DFTD3 ENERGY

           DFT-D V3(BJ)
 DF                                         hsesol3c  
 parameters
 s6       :    1.0000
 s8       :    0.0000
 a1       :    0.5196
 a2       :    4.9385
 k1 k3    :   16.0000   -4.0000
 Cutoff   :   50.2022
 CN-Cutoff:   21.1671
 ABC-Cutoff:   21.1671
 
 Edisp /kcal,au:   -23.3531 -0.03721552

 E6    /kcal :   -24.6022
 E8    /kcal :     0.0000
 E6(ABC) "   :   1.249156
 
 INFORMATION **** DFTD3 ENERGY **** NORMAL TERMINATION OF DFTD3 MODULE

 GCP ENERGY CALCULATION
  level        hsesol3c            basis:hsesol3c
  Nbf            474
  Atoms           42

  Parameters: 
  sigma     1.0000
  eta       1.4281
  alpha     0.2936
  beta      1.9467

  dmp_scal      4.0000
  dmp_exp       6.0000
 cutoffs: 
   distance [bohr] 60.0
   noise    [a.u.] 2.2E-16
 SR-damping   T
 ** gCP correction **
  Egcp:        0.0829342358 / (a.u.) ||      52.0420 / (kcal/mol)
 INFORMATION **** GCP **** NORMAL TERMINATION OF GCP MODULE

 *******************************************************************************

 DFT-D3-GCP DISPERSION AND COUNTERPOISE CORRECTION

 D3 DISPERSION ENERGY (AU)      -3.7215518362245E-02
 GCP ENERGY (AU)                 8.2934235836199E-02
 TOTAL ENERGY + DISP + GCP (AU) -1.2890631962107E+03

 *******************************************************************************

 EIGENVECTORS IN FORTRAN UNIT  8
 TTTTTTTTTTTTTTTTTTTTTTTTTTTTTT END         TELAPSE       77.34 TCPU     2117.37
 EEEEEEEEEE TERMINATION  DATE 19 02 2026 TIME 19:12:06.4
