 Default number of threads is:           32

         
 *******************************************************************************
 *                                                                             *
 *                               CRYSTAL23                                     *
 *                      public : 1.0.1 - October 2022                          *
 *                       HTTP://WWW.CRYSTAL.UNITO.IT                           *
 *                                                                             *
 *                              MAIN AUTHORS                                   *
 *                                                                             *
 *  R. DOVESI(1,11), V.R. SAUNDERS(2), C. ROETTI(1,11), R. ORLANDO(1,11),      *
 *  C.M. ZICOVICH-WILSON(1,3), F. PASCALE(4), B. CIVALLERI(1,11),              *
 *  K. DOLL(5), N.M. HARRISON(6), I.J. BUSH(7), Ph. D'ARCO(8),                 *
 *  M. LLUNELL(9), M. CAUSA'(10), Y. NOEL(8), L. MASCHIO(1,11), A. ERBA(1,11)  *
 *  M. RE'RAT(14), S. CASASSA(1,11), B.G. SEARLE(2), J.K. DESMARAIS(1)         *
 *                                                                             *
 *        CONTRIBUTIONS TO THE CODE HAVE ALSO BEEN GIVEN BY                    *
 *                                                                             *
 *  M. FERRABONE(1,11), M. DE LA PIERRE(1,11), M. FERRERO(1,11),               *
 *  J. BAIMA(1,11), E. ALBANESE(1,11), M.F. PEINTINGER(12), R. BAST(13),       *
 *  B. KIRTMAN(15), V. LACIVITA(1,11), R. DEMICHELIS(1,16)                     *
 *  G. BRANDEBURG(17), S. SALUSTRO(1,11), G. SANSONE(1,11)                     *
 *  M.T. RUGGIERO(18), L.E. DAGA(1), L. DONA'(1), A. COSSARD(1)                *
 *                                                                             *
 * (1) THEORETICAL CHEMISTRY GROUP - UNIVERSITA' DI TORINO - TORINO (ITALY)    *
 * (2) SCIENTIFIC COMPUTING DEPARTMENT - STFC DARESBURY (UK)                   *
 * (3) UNIVERSIDAD AUTONOMA DEL ESTADO DE MORELOS - CUERNAVACA (MEXICO)        *
 * (4) UNIVERSITE' DE LORRAINE - NANCY (FRANCE)                                *
 * (5) UNIVERSITAET STUTTGART- STUTTGART (GERMANY)                             *
 * (6) IMPERIAL COLLEGE - LONDON (UK)                                          *
 * (7) SCIENTIFIC COMPUTING DEPARTMENT - STFC RAL (UK)                         *
 * (8) UPMC - SORBONNE UNIVERSITES - PARIS (FRANCE)                            *
 * (9) UNIVERSIDAD DE BARCELONA - BARCELONA (SPAIN)                            *
 *(10) UNIVERSITA' DI NAPOLI "FEDERICO II" - NAPOLI (ITALY)                    *
 *(11) NIS - NANOSTRUCTURED INTERFACES AND SURFACES - TORINO (ITALY)           *
 *(12) MPI FUER CHEMISCHE ENERGIEKONVERSION - MUELHEIM AN DER RUHR (GERMANY)   *
 *(13) UNIVERSITY OF TROMSO - TROMSO (NORWAY)                                  *
 *(14) UNIVERSITE' DE PAU ET DES PAYS DE L'ADOUR - PAU (FRANCE)                *
 *(15) UNIVERSITY OF CALIFORNIA SANTA BARBARA - SANTA BARBARA (USA)            *
 *(16) CURTIN UNIVERSITY - PERTH (AUSTRALIA)                                   *
 *(17) UNIVERSITY COLLEGE LONDON - LONDON (UK)                                 *
 *(18) UNIVERSITY OF VERMONT - BURLINGTON (USA)                                *
 *                                                                             *
 *******************************************************************************
 EEEEEEEEEE STARTING  DATE 19 02 2026 TIME 20:14:44.2
 cof-1_z36_L050_serr                                                             

 CRYSTAL CALCULATION
 (INPUT ACCORDING TO THE INTERNATIONAL TABLES FOR X-RAY CRYSTALLOGRAPHY)
 CRYSTAL FAMILY                       :  TRICLINIC   
 CRYSTAL CLASS  (GROTH - 1921)        :  TRICLINIC PEDIAL                     

 SPACE GROUP (NONCENTROSYMMETRIC)     :  P 1             

 LATTICE PARAMETERS  (ANGSTROMS AND DEGREES) - CONVENTIONAL CELL
        A           B           C        ALPHA        BETA       GAMMA
    15.02361    15.02392     7.20000    90.00032    89.99994   119.99596


 NUMBER OF IRREDUCIBLE ATOMS IN THE CONVENTIONAL CELL:   84

 INPUT COORDINATES

 ATOM AT. N.              COORDINATES
   1   5     6.136805400000E-01  2.273182200000E-01  2.506634300000E-01
   2   5     8.057969300000E-01  6.115900500000E-01  7.506634300000E-01
   3   5     7.727362000000E-01  3.863778800000E-01  2.506634400000E-01
   4   5     9.648525900000E-01  7.706497100000E-01  7.506634500000E-01
   5   5     6.136762700000E-01  3.863606700000E-01  2.492685600000E-01
   6   5     8.057926600000E-01  7.706325000000E-01  7.492685600000E-01
   7   5     2.272552500000E-01  6.136332200000E-01  2.506634400000E-01
   8   5     4.193716400000E-01  9.979050500000E-01  7.506634400000E-01
   9   5     3.863632200000E-01  6.136124500000E-01  2.506634300000E-01
  10   5     5.784796100000E-01  9.978842800000E-01  7.506634300000E-01
  11   5     3.863435000000E-01  7.727516500000E-01  2.492685600000E-01
  12   5     5.784598900000E-01  1.570234800000E-01  7.492685600000E-01
  13   1     9.030436200000E-01  3.089300500000E-01  2.477715600000E-01
  14   1     9.516001000000E-02  6.932018800000E-01  7.477715600000E-01
  15   1     9.663453000000E-02  6.910534400000E-01  2.473293400000E-01
  16   1     2.887509200000E-01  7.532527000000E-02  7.473293400000E-01
  17   1     9.029714200000E-01  5.940724300000E-01  2.472612800000E-01
  18   1     9.508781000000E-02  9.783442600000E-01  7.472612800000E-01
  19   1     9.673618000000E-02  4.056849400000E-01  2.472782600000E-01
  20   1     2.888525700000E-01  7.899567700000E-01  7.472782600000E-01
  21   1     6.910324000000E-01  9.700412000000E-02  2.522284600000E-01
  22   1     8.831487900000E-01  4.812759500000E-01  7.522284600000E-01
  23   1     3.089297200000E-01  9.034373100000E-01  2.526707100000E-01
  24   1     5.010461100000E-01  2.877091400000E-01  7.526707100000E-01
  25   1     4.058699900000E-01  9.704998000000E-02  2.527388100000E-01
  26   1     5.979863800000E-01  4.813218100000E-01  7.527388100000E-01
  27   1     5.943122100000E-01  9.033473200000E-01  2.527217200000E-01
  28   1     7.864286000000E-01  2.876191500000E-01  7.527217200000E-01
  29   1     6.910727400000E-01  5.940542100000E-01  2.477715900000E-01
  30   1     8.831891300000E-01  9.783260400000E-01  7.477715900000E-01
  31   1     3.089618300000E-01  4.056093300000E-01  2.473293200000E-01
  32   1     5.010782200000E-01  7.898811600000E-01  7.473293200000E-01
  33   1     4.058405700000E-01  3.088232500000E-01  2.472612300000E-01
  34   1     5.979569600000E-01  6.930950800000E-01  7.472612300000E-01
  35   1     5.942908800000E-01  6.909579300000E-01  2.472783100000E-01
  36   1     7.864072700000E-01  7.522976000000E-02  7.472783100000E-01
  37   6     8.918903100000E-01  4.459436900000E-01  2.492175200000E-01
  38   6     8.400670000000E-02  8.302155200000E-01  7.492175200000E-01
  39   6     9.464891100000E-01  3.927856300000E-01  2.478396100000E-01
  40   6     1.386055000000E-01  7.770574600000E-01  7.478396100000E-01
  41   6     5.338812000000E-02  6.071853000000E-01  2.477205800000E-01
  42   6     2.455045100000E-01  9.914571300000E-01  7.477205800000E-01
  43   6     9.464521100000E-01  5.536921900000E-01  2.480778100000E-01
  44   6     1.385685000000E-01  9.379640200000E-01  7.480778100000E-01
  45   6     5.342634000000E-02  4.462499700000E-01  2.471591800000E-01
  46   6     2.455427300000E-01  8.305218000000E-01  7.471591800000E-01
  47   6     1.080358900000E-01  5.540356300000E-01  2.480948000000E-01
  48   6     3.001522800000E-01  9.383074600000E-01  7.480948000000E-01
  49   6     5.540394200000E-01  1.081684600000E-01  2.507825200000E-01
  50   6     7.461558100000E-01  4.924402900000E-01  7.507825200000E-01
  51   6     6.071778500000E-01  5.355594000000E-02  2.521604000000E-01
  52   6     7.992942400000E-01  4.378277700000E-01  7.521604000000E-01
  53   6     3.927986700000E-01  9.466631600000E-01  2.522794700000E-01
  54   6     5.849150600000E-01  3.309349900000E-01  7.522794800000E-01
  55   6     4.462875800000E-01  5.360286000000E-02  2.519222600000E-01
  56   6     6.384039700000E-01  4.378746900000E-01  7.519222600000E-01
  57   6     5.537168500000E-01  9.466235600000E-01  2.528408200000E-01
  58   6     7.458332400000E-01  3.308953900000E-01  7.528408200000E-01
  59   6     4.459279100000E-01  8.919920600000E-01  2.519052300000E-01
  60   6     6.380443000000E-01  2.762638900000E-01  7.519052300000E-01
  61   6     5.540448700000E-01  4.458745500000E-01  2.492175200000E-01
  62   6     7.461612600000E-01  8.301463800000E-01  7.492175200000E-01
  63   6     6.072102200000E-01  5.536257800000E-01  2.478396400000E-01
  64   6     7.993266100000E-01  9.378976100000E-01  7.478396400000E-01
  65   6     3.928233700000E-01  4.461720300000E-01  2.477205500000E-01
  66   6     5.849397600000E-01  8.304438600000E-01  7.477205500000E-01
  67   6     4.462872600000E-01  3.926899900000E-01  2.480777700000E-01
  68   6     6.384036500000E-01  7.769618200000E-01  7.480777700000E-01
  69   6     5.537429600000E-01  6.070980000000E-01  2.471592200000E-01
  70   6     7.458593500000E-01  9.913698300000E-01  7.471592200000E-01
  71   6     4.459599800000E-01  5.539582300000E-01  2.480948000000E-01
  72   6     6.380763700000E-01  9.382300600000E-01  7.480948000000E-01
  73   8     5.607366800000E-01  2.803706300000E-01  2.496427900000E-01
  74   8     7.528530700000E-01  6.646424600000E-01  7.496427900000E-01
  75   8     7.196817000000E-01  2.803783300000E-01  2.525856600000E-01
  76   8     9.117980900000E-01  6.646501600000E-01  7.525856600000E-01
  77   8     7.196794200000E-01  4.393234600000E-01  2.481458500000E-01
  78   8     9.117958100000E-01  8.235952900000E-01  7.481458500000E-01
  79   8     2.803245100000E-01  7.196511100000E-01  2.496428000000E-01
  80   8     4.724409000000E-01  1.039229400000E-01  7.496428000000E-01
  81   8     2.803439700000E-01  5.606956100000E-01  2.525856600000E-01
  82   8     4.724603600000E-01  9.449674400000E-01  7.525856600000E-01
  83   8     4.392638400000E-01  7.196354200000E-01  2.481458400000E-01
  84   8     6.313802300000E-01  1.039072500000E-01  7.481458400000E-01

 *******************************************************************************

 << INFORMATION >>: FROM NOW ON, ALL COORDINATES REFER TO THE PRIMITIVE CELL

 *******************************************************************************

 LATTICE PARAMETERS  (ANGSTROMS AND DEGREES) - PRIMITIVE CELL
       A          B          C        ALPHA      BETA     GAMMA        VOLUME
   15.02361   15.02392    7.20000    90.00032  89.99994 119.99596   1407.467146

 COORDINATES OF THE EQUIVALENT ATOMS (FRACTIONAL UNITS)

 N. ATOM EQUIV AT. N.          X                  Y                  Z

   1   1   1    5 B    -3.86319460000E-01  2.27318220000E-01  2.50663430000E-01

   2   2   1    5 B    -1.94203070000E-01 -3.88409950000E-01 -2.49336570000E-01

   3   3   1    5 B    -2.27263800000E-01  3.86377880000E-01  2.50663440000E-01

   4   4   1    5 B    -3.51474100000E-02 -2.29350290000E-01 -2.49336550000E-01

   5   5   1    5 B    -3.86323730000E-01  3.86360670000E-01  2.49268560000E-01

   6   6   1    5 B    -1.94207340000E-01 -2.29367500000E-01 -2.50731440000E-01

   7   7   1    5 B     2.27255250000E-01 -3.86366780000E-01  2.50663440000E-01

   8   8   1    5 B     4.19371640000E-01 -2.09495000000E-03 -2.49336560000E-01

   9   9   1    5 B     3.86363220000E-01 -3.86387550000E-01  2.50663430000E-01

  10  10   1    5 B    -4.21520390000E-01 -2.11572000000E-03 -2.49336570000E-01

  11  11   1    5 B     3.86343500000E-01 -2.27248350000E-01  2.49268560000E-01

  12  12   1    5 B    -4.21540110000E-01  1.57023480000E-01 -2.50731440000E-01

  13  13   1    1 H    -9.69563800000E-02  3.08930050000E-01  2.47771560000E-01

  14  14   1    1 H     9.51600100000E-02 -3.06798120000E-01 -2.52228440000E-01

  15  15   1    1 H     9.66345300000E-02 -3.08946560000E-01  2.47329340000E-01

  16  16   1    1 H     2.88750920000E-01  7.53252700000E-02 -2.52670660000E-01

  17  17   1    1 H    -9.70285800000E-02 -4.05927570000E-01  2.47261280000E-01

  18  18   1    1 H     9.50878100000E-02 -2.16557400000E-02 -2.52738720000E-01

  19  19   1    1 H     9.67361800000E-02  4.05684940000E-01  2.47278260000E-01

  20  20   1    1 H     2.88852570000E-01 -2.10043230000E-01 -2.52721740000E-01

  21  21   1    1 H    -3.08967600000E-01  9.70041200000E-02  2.52228460000E-01

  22  22   1    1 H    -1.16851210000E-01  4.81275950000E-01 -2.47771540000E-01

  23  23   1    1 H     3.08929720000E-01 -9.65626900000E-02  2.52670710000E-01

  24  24   1    1 H    -4.98953890000E-01  2.87709140000E-01 -2.47329290000E-01

  25  25   1    1 H     4.05869990000E-01  9.70499800000E-02  2.52738810000E-01

  26  26   1    1 H    -4.02013620000E-01  4.81321810000E-01 -2.47261190000E-01

  27  27   1    1 H    -4.05687790000E-01 -9.66526800000E-02  2.52721720000E-01

  28  28   1    1 H    -2.13571400000E-01  2.87619150000E-01 -2.47278280000E-01

  29  29   1    1 H    -3.08927260000E-01 -4.05945790000E-01  2.47771590000E-01

  30  30   1    1 H    -1.16810870000E-01 -2.16739600000E-02 -2.52228410000E-01

  31  31   1    1 H     3.08961830000E-01  4.05609330000E-01  2.47329320000E-01

  32  32   1    1 H    -4.98921780000E-01 -2.10118840000E-01 -2.52670680000E-01

  33  33   1    1 H     4.05840570000E-01  3.08823250000E-01  2.47261230000E-01

  34  34   1    1 H    -4.02043040000E-01 -3.06904920000E-01 -2.52738770000E-01

  35  35   1    1 H    -4.05709120000E-01 -3.09042070000E-01  2.47278310000E-01

  36  36   1    1 H    -2.13592730000E-01  7.52297600000E-02 -2.52721690000E-01

  37  37   1    6 C    -1.08109690000E-01  4.45943690000E-01  2.49217520000E-01

  38  38   1    6 C     8.40067000000E-02 -1.69784480000E-01 -2.50782480000E-01

  39  39   1    6 C    -5.35108900000E-02  3.92785630000E-01  2.47839610000E-01

  40  40   1    6 C     1.38605500000E-01 -2.22942540000E-01 -2.52160390000E-01

  41  41   1    6 C     5.33881200000E-02 -3.92814700000E-01  2.47720580000E-01

  42  42   1    6 C     2.45504510000E-01 -8.54287000000E-03 -2.52279420000E-01

  43  43   1    6 C    -5.35478900000E-02 -4.46307810000E-01  2.48077810000E-01

  44  44   1    6 C     1.38568500000E-01 -6.20359800000E-02 -2.51922190000E-01

  45  45   1    6 C     5.34263400000E-02  4.46249970000E-01  2.47159180000E-01

  46  46   1    6 C     2.45542730000E-01 -1.69478200000E-01 -2.52840820000E-01

  47  47   1    6 C     1.08035890000E-01 -4.45964370000E-01  2.48094800000E-01

  48  48   1    6 C     3.00152280000E-01 -6.16925400000E-02 -2.51905200000E-01

  49  49   1    6 C    -4.45960580000E-01  1.08168460000E-01  2.50782520000E-01

  50  50   1    6 C    -2.53844190000E-01  4.92440290000E-01 -2.49217480000E-01

  51  51   1    6 C    -3.92822150000E-01  5.35559400000E-02  2.52160400000E-01

  52  52   1    6 C    -2.00705760000E-01  4.37827770000E-01 -2.47839600000E-01

  53  53   1    6 C     3.92798670000E-01 -5.33368400000E-02  2.52279470000E-01

  54  54   1    6 C    -4.15084940000E-01  3.30934990000E-01 -2.47720520000E-01

  55  55   1    6 C     4.46287580000E-01  5.36028600000E-02  2.51922260000E-01

  56  56   1    6 C    -3.61596030000E-01  4.37874690000E-01 -2.48077740000E-01

  57  57   1    6 C    -4.46283150000E-01 -5.33764400000E-02  2.52840820000E-01

  58  58   1    6 C    -2.54166760000E-01  3.30895390000E-01 -2.47159180000E-01

  59  59   1    6 C     4.45927910000E-01 -1.08007940000E-01  2.51905230000E-01

  60  60   1    6 C    -3.61955700000E-01  2.76263890000E-01 -2.48094770000E-01

  61  61   1    6 C    -4.45955130000E-01  4.45874550000E-01  2.49217520000E-01

  62  62   1    6 C    -2.53838740000E-01 -1.69853620000E-01 -2.50782480000E-01

  63  63   1    6 C    -3.92789780000E-01 -4.46374220000E-01  2.47839640000E-01

  64  64   1    6 C    -2.00673390000E-01 -6.21023900000E-02 -2.52160360000E-01

  65  65   1    6 C     3.92823370000E-01  4.46172030000E-01  2.47720550000E-01

  66  66   1    6 C    -4.15060240000E-01 -1.69556140000E-01 -2.52279450000E-01

  67  67   1    6 C     4.46287260000E-01  3.92689990000E-01  2.48077770000E-01

  68  68   1    6 C    -3.61596350000E-01 -2.23038180000E-01 -2.51922230000E-01

  69  69   1    6 C    -4.46257040000E-01 -3.92902000000E-01  2.47159220000E-01

  70  70   1    6 C    -2.54140650000E-01 -8.63017000000E-03 -2.52840780000E-01

  71  71   1    6 C     4.45959980000E-01 -4.46041770000E-01  2.48094800000E-01

  72  72   1    6 C    -3.61923630000E-01 -6.17699400000E-02 -2.51905200000E-01

  73  73   1    8 O    -4.39263320000E-01  2.80370630000E-01  2.49642790000E-01

  74  74   1    8 O    -2.47146930000E-01 -3.35357540000E-01 -2.50357210000E-01

  75  75   1    8 O    -2.80318300000E-01  2.80378330000E-01  2.52585660000E-01

  76  76   1    8 O    -8.82019100000E-02 -3.35349840000E-01 -2.47414340000E-01

  77  77   1    8 O    -2.80320580000E-01  4.39323460000E-01  2.48145850000E-01

  78  78   1    8 O    -8.82041900000E-02 -1.76404710000E-01 -2.51854150000E-01

  79  79   1    8 O     2.80324510000E-01 -2.80348890000E-01  2.49642800000E-01

  80  80   1    8 O     4.72440900000E-01  1.03922940000E-01 -2.50357200000E-01

  81  81   1    8 O     2.80343970000E-01 -4.39304390000E-01  2.52585660000E-01

  82  82   1    8 O     4.72460360000E-01 -5.50325600000E-02 -2.47414340000E-01

  83  83   1    8 O     4.39263840000E-01 -2.80364580000E-01  2.48145840000E-01

  84  84   1    8 O    -3.68619770000E-01  1.03907250000E-01 -2.51854160000E-01

 NUMBER OF SYMMETRY OPERATORS         :    1
 *******************************************************************************
 * GEOMETRY EDITING - INPUT COORDINATES ARE GIVEN IN ANGSTROM         
 *******************************************************************************

 GCALCO - MAX INDICES DIRECT LATTICE VECTOR    12    12    21
 NO.OF VECTORS CREATED 6999 STARS 3500 RMAX   251.34433 BOHR

 GEOMETRY FOR WAVE FUNCTION - DIMENSIONALITY OF THE SYSTEM    3
 (NON PERIODIC DIRECTION: LATTICE PARAMETER FORMALLY SET TO 500)
 *******************************************************************************
 LATTICE PARAMETERS (ANGSTROMS AND DEGREES) - BOHR = 0.5291772083 ANGSTROM
 PRIMITIVE CELL - CENTRING CODE 1/0 VOLUME=  1407.467146 - DENSITY  0.921 g/cm^3
         A              B              C           ALPHA      BETA       GAMMA 
    15.02361100    15.02391600     7.20000000    90.000323  89.999944 119.995964
 *******************************************************************************
 ATOMS IN THE ASYMMETRIC UNIT   84 - ATOMS IN THE UNIT CELL:   84
     ATOM                 X/A                 Y/B                 Z/C    
 *******************************************************************************
      1 T   5 B    -3.863194600000E-01  2.273182200000E-01  2.506634300000E-01
      2 T   5 B    -1.942030700000E-01 -3.884099500000E-01 -2.493365700000E-01
      3 T   5 B    -2.272638000000E-01  3.863778800000E-01  2.506634400000E-01
      4 T   5 B    -3.514741000000E-02 -2.293502900000E-01 -2.493365500000E-01
      5 T   5 B    -3.863237300000E-01  3.863606700000E-01  2.492685600000E-01
      6 T   5 B    -1.942073400000E-01 -2.293675000000E-01 -2.507314400000E-01
      7 T   5 B     2.272552500000E-01 -3.863667800000E-01  2.506634400000E-01
      8 T   5 B     4.193716400000E-01 -2.094950000000E-03 -2.493365600000E-01
      9 T   5 B     3.863632200000E-01 -3.863875500000E-01  2.506634300000E-01
     10 T   5 B    -4.215203900000E-01 -2.115720000000E-03 -2.493365700000E-01
     11 T   5 B     3.863435000000E-01 -2.272483500000E-01  2.492685600000E-01
     12 T   5 B    -4.215401100000E-01  1.570234800000E-01 -2.507314400000E-01
     13 T   1 H    -9.695638000000E-02  3.089300500000E-01  2.477715600000E-01
     14 T   1 H     9.516001000000E-02 -3.067981200000E-01 -2.522284400000E-01
     15 T   1 H     9.663453000000E-02 -3.089465600000E-01  2.473293400000E-01
     16 T   1 H     2.887509200000E-01  7.532527000000E-02 -2.526706600000E-01
     17 T   1 H    -9.702858000000E-02 -4.059275700000E-01  2.472612800000E-01
     18 T   1 H     9.508781000000E-02 -2.165574000000E-02 -2.527387200000E-01
     19 T   1 H     9.673618000000E-02  4.056849400000E-01  2.472782600000E-01
     20 T   1 H     2.888525700000E-01 -2.100432300000E-01 -2.527217400000E-01
     21 T   1 H    -3.089676000000E-01  9.700412000000E-02  2.522284600000E-01
     22 T   1 H    -1.168512100000E-01  4.812759500000E-01 -2.477715400000E-01
     23 T   1 H     3.089297200000E-01 -9.656269000000E-02  2.526707100000E-01
     24 T   1 H    -4.989538900000E-01  2.877091400000E-01 -2.473292900000E-01
     25 T   1 H     4.058699900000E-01  9.704998000000E-02  2.527388100000E-01
     26 T   1 H    -4.020136200000E-01  4.813218100000E-01 -2.472611900000E-01
     27 T   1 H    -4.056877900000E-01 -9.665268000000E-02  2.527217200000E-01
     28 T   1 H    -2.135714000000E-01  2.876191500000E-01 -2.472782800000E-01
     29 T   1 H    -3.089272600000E-01 -4.059457900000E-01  2.477715900000E-01
     30 T   1 H    -1.168108700000E-01 -2.167396000000E-02 -2.522284100000E-01
     31 T   1 H     3.089618300000E-01  4.056093300000E-01  2.473293200000E-01
     32 T   1 H    -4.989217800000E-01 -2.101188400000E-01 -2.526706800000E-01
     33 T   1 H     4.058405700000E-01  3.088232500000E-01  2.472612300000E-01
     34 T   1 H    -4.020430400000E-01 -3.069049200000E-01 -2.527387700000E-01
     35 T   1 H    -4.057091200000E-01 -3.090420700000E-01  2.472783100000E-01
     36 T   1 H    -2.135927300000E-01  7.522976000000E-02 -2.527216900000E-01
     37 T   6 C    -1.081096900000E-01  4.459436900000E-01  2.492175200000E-01
     38 T   6 C     8.400670000000E-02 -1.697844800000E-01 -2.507824800000E-01
     39 T   6 C    -5.351089000000E-02  3.927856300000E-01  2.478396100000E-01
     40 T   6 C     1.386055000000E-01 -2.229425400000E-01 -2.521603900000E-01
     41 T   6 C     5.338812000000E-02 -3.928147000000E-01  2.477205800000E-01
     42 T   6 C     2.455045100000E-01 -8.542870000000E-03 -2.522794200000E-01
     43 T   6 C    -5.354789000000E-02 -4.463078100000E-01  2.480778100000E-01
     44 T   6 C     1.385685000000E-01 -6.203598000000E-02 -2.519221900000E-01
     45 T   6 C     5.342634000000E-02  4.462499700000E-01  2.471591800000E-01
     46 T   6 C     2.455427300000E-01 -1.694782000000E-01 -2.528408200000E-01
     47 T   6 C     1.080358900000E-01 -4.459643700000E-01  2.480948000000E-01
     48 T   6 C     3.001522800000E-01 -6.169254000000E-02 -2.519052000000E-01
     49 T   6 C    -4.459605800000E-01  1.081684600000E-01  2.507825200000E-01
     50 T   6 C    -2.538441900000E-01  4.924402900000E-01 -2.492174800000E-01
     51 T   6 C    -3.928221500000E-01  5.355594000000E-02  2.521604000000E-01
     52 T   6 C    -2.007057600000E-01  4.378277700000E-01 -2.478396000000E-01
     53 T   6 C     3.927986700000E-01 -5.333684000000E-02  2.522794700000E-01
     54 T   6 C    -4.150849400000E-01  3.309349900000E-01 -2.477205200000E-01
     55 T   6 C     4.462875800000E-01  5.360286000000E-02  2.519222600000E-01
     56 T   6 C    -3.615960300000E-01  4.378746900000E-01 -2.480777400000E-01
     57 T   6 C    -4.462831500000E-01 -5.337644000000E-02  2.528408200000E-01
     58 T   6 C    -2.541667600000E-01  3.308953900000E-01 -2.471591800000E-01
     59 T   6 C     4.459279100000E-01 -1.080079400000E-01  2.519052300000E-01
     60 T   6 C    -3.619557000000E-01  2.762638900000E-01 -2.480947700000E-01
     61 T   6 C    -4.459551300000E-01  4.458745500000E-01  2.492175200000E-01
     62 T   6 C    -2.538387400000E-01 -1.698536200000E-01 -2.507824800000E-01
     63 T   6 C    -3.927897800000E-01 -4.463742200000E-01  2.478396400000E-01
     64 T   6 C    -2.006733900000E-01 -6.210239000000E-02 -2.521603600000E-01
     65 T   6 C     3.928233700000E-01  4.461720300000E-01  2.477205500000E-01
     66 T   6 C    -4.150602400000E-01 -1.695561400000E-01 -2.522794500000E-01
     67 T   6 C     4.462872600000E-01  3.926899900000E-01  2.480777700000E-01
     68 T   6 C    -3.615963500000E-01 -2.230381800000E-01 -2.519222300000E-01
     69 T   6 C    -4.462570400000E-01 -3.929020000000E-01  2.471592200000E-01
     70 T   6 C    -2.541406500000E-01 -8.630170000000E-03 -2.528407800000E-01
     71 T   6 C     4.459599800000E-01 -4.460417700000E-01  2.480948000000E-01
     72 T   6 C    -3.619236300000E-01 -6.176994000000E-02 -2.519052000000E-01
     73 T   8 O    -4.392633200000E-01  2.803706300000E-01  2.496427900000E-01
     74 T   8 O    -2.471469300000E-01 -3.353575400000E-01 -2.503572100000E-01
     75 T   8 O    -2.803183000000E-01  2.803783300000E-01  2.525856600000E-01
     76 T   8 O    -8.820191000000E-02 -3.353498400000E-01 -2.474143400000E-01
     77 T   8 O    -2.803205800000E-01  4.393234600000E-01  2.481458500000E-01
     78 T   8 O    -8.820419000000E-02 -1.764047100000E-01 -2.518541500000E-01
     79 T   8 O     2.803245100000E-01 -2.803488900000E-01  2.496428000000E-01
     80 T   8 O     4.724409000000E-01  1.039229400000E-01 -2.503572000000E-01
     81 T   8 O     2.803439700000E-01 -4.393043900000E-01  2.525856600000E-01
     82 T   8 O     4.724603600000E-01 -5.503256000000E-02 -2.474143400000E-01
     83 T   8 O     4.392638400000E-01 -2.803645800000E-01  2.481458400000E-01
     84 T   8 O    -3.686197700000E-01  1.039072500000E-01 -2.518541600000E-01

 T = ATOM BELONGING TO THE ASYMMETRIC UNIT

 ****    1 SYMMOPS - TRANSLATORS IN FRACTIONAL UNITS
 **** MATRICES AND TRANSLATORS IN THE CRYSTALLOGRAPHIC REFERENCE FRAME
   V INV                    ROTATION MATRICES                   TRANSLATORS
   1   1  1.00 -0.00  0.00  0.00  1.00  0.00  0.00  0.00  1.00  0.00  0.00  0.00

 DIRECT LATTICE VECTORS CARTESIAN COMPONENTS (ANGSTROM)
          X                    Y                    Z
   0.130113578931E+02  -0.751088897922E+01   0.000000000000E+00
   0.000000000000E+00   0.150239160000E+02   0.000000000000E+00
  -0.153049849927E-04  -0.405893770827E-04   0.719999999987E+01


 CARTESIAN COORDINATES - PRIMITIVE CELL
 *******************************************************************************
 *      ATOM          X(ANGSTROM)         Y(ANGSTROM)         Z(ANGSTROM)
 *******************************************************************************
    1     5 B    -5.026544591512E+00  6.316802242848E+00  1.804776695967E+00
    2     5 B    -2.526841831608E+00 -4.376790643755E+00 -1.795223303967E+00
    3     5 B    -2.957014474336E+00  7.511851809900E+00  1.804776767967E+00
    4     5 B    -4.573117144318E-01 -3.181741076703E+00 -1.795223159967E+00
    5     5 B    -5.026600128662E+00 -6.317641219805E+00  1.794733631967E+00
    6     5 B    -2.526897368758E+00 -1.987318106408E+00 -1.805266367967E+00
    7     5 B     2.956895554426E+00 -7.511641174877E+00  1.804776767967E+00
    8     5 B     5.456598314330E+00 -3.181318061480E+00 -1.795223231967E+00
    9     5 B     5.027106295734E+00  6.316920480009E+00  1.804776695967E+00
   10     5 B    -5.484548837418E+00  3.134216572623E+00 -1.795223303967E+00
   11     5 B     5.026849733105E+00 -6.315953375536E+00  1.794733631967E+00
   12     5 B     7.526552493009E+00 -1.985630262139E+00 -1.805266367967E+00
   13     1 H    -1.261537952335E+00  5.369557670189E+00  1.783955231968E+00
   14     1 H     1.238164807569E+00 -5.324035216414E+00 -1.816044767967E+00
   15     1 H     1.257342669285E+00 -5.367408431262E+00  1.780771247968E+00
   16     1 H     3.757045429190E+00 -1.037085317865E+00 -1.819228751967E+00
   17     1 H    -1.262477364565E+00 -5.369860857754E+00  1.780281215968E+00
   18     1 H     1.237225395339E+00 -1.039537744357E+00 -1.819718783967E+00
   19     1 H     1.258665274597E+00  5.368391715901E+00  1.780403471968E+00
   20     1 H     3.758368034502E+00 -5.325201170702E+00 -1.819596527967E+00
   21     1 H    -4.020091881312E+00  3.777992854513E+00  1.816044911967E+00
   22     1 H    -1.520389121407E+00 -6.915600032090E+00 -1.783955087968E+00
   23     1 H     4.019591283600E+00 -3.771096828341E+00  1.819229111967E+00
   24     1 H     6.519294043505E+00  5.592262850558E-01 -1.780770887968E+00
   25     1 H     5.280915829778E+00 -1.590383946075E+00  1.819719431967E+00
   26     1 H    -5.230739303374E+00 -4.773087853461E+00 -1.780280567968E+00
   27     1 H    -5.278552896435E+00  1.594963947602E+00  1.819596383967E+00
   28     1 H    -2.778850136531E+00  5.925287060999E+00 -1.780403615968E+00
   29     1 H    -4.019566934922E+00 -3.778587153895E+00  1.783955447968E+00
   30     1 H    -1.519864175017E+00  5.517359595024E-01 -1.816044551967E+00
   31     1 H     4.020009160052E+00  3.773252459848E+00  1.780771103968E+00
   32     1 H    -6.491645973100E+00  5.905485524611E-01 -1.819228895967E+00
   33     1 H     5.280533119463E+00  1.591501066136E+00  1.780280855968E+00
   34     1 H    -5.231122013689E+00 -1.591202841251E+00 -1.819719143967E+00
   35     1 H    -5.278830345388E+00 -1.595795978843E+00  1.780403831968E+00
   36     1 H    -2.779127585483E+00  2.734527134554E+00 -1.819596167967E+00
   37     6 C    -1.406657682568E+00  7.511810302874E+00  1.794366143967E+00
   38     6 C     1.093045077337E+00 -3.181782583729E+00 -1.805633855967E+00
   39     6 C    -6.962531341475E-01  6.303082605441E+00  1.784445191968E+00
   40     6 C     1.803449625757E+00 -4.390510281162E+00 -1.815554807967E+00
   41     6 C     6.946481451977E-01 -6.302617353318E+00  1.783588175968E+00
   42     6 C     3.194350905102E+00 -1.972294239921E+00 -1.816411823967E+00
   43     6 C    -6.967345580352E-01 -6.303108860046E+00  1.786160231968E+00
   44     6 C     1.802968201869E+00 -1.972785746649E+00 -1.813839767967E+00
   45     6 C     6.951454478886E-01  6.303132723939E+00  1.779546095968E+00
   46     6 C     3.194848207793E+00 -4.390460162664E+00 -1.820453903967E+00
   47     6 C     1.405689832998E+00 -7.511586879447E+00  1.786282559968E+00
   48     6 C     3.905392592902E+00 -3.181263766050E+00 -1.813717439967E+00
   49     6 C     7.208801342259E+00 -2.536224895946E+00  1.805634143967E+00
   50     6 C    -3.302853790893E+00 -5.718928803333E+00 -1.794365855967E+00
   51     6 C    -5.111153441281E+00  3.755053266055E+00  1.815554879967E+00
   52     6 C    -2.611450681377E+00 -6.938539620548E+00 -1.784445119968E+00
   53     6 C     5.110840214153E+00 -3.751605645286E+00  1.816412183967E+00
   54     6 C     7.610542974058E+00  5.787174681107E-01 -1.783587743968E+00
   55     6 C     5.806803570940E+00 -2.546701825551E+00  1.813840271967E+00
   56     6 C    -4.704851562212E+00 -5.729405732938E+00 -1.786159727968E+00
   57     6 C    -5.806753656016E+00  2.550049779355E+00  1.820453903967E+00
   58     6 C    -3.307050896111E+00  6.880372892752E+00 -1.779546095968E+00
   59     6 C     5.802123776107E+00 -4.972027467313E+00  1.813717655967E+00
   60     6 C     8.301826536011E+00 -6.417043539165E-01 -1.786282343968E+00
   61     6 C     7.208872278112E+00  2.537402162079E+00  1.794366143967E+00
   62     6 C    -3.302782855040E+00 -6.453017453071E-01 -1.805633855967E+00
   63     6 C    -5.110732197497E+00 -3.756098415751E+00  1.784445407968E+00
   64     6 C    -2.611029437592E+00  5.742246976457E-01 -1.815554591967E+00
   65     6 C     5.111161664467E+00  3.752788324935E+00  1.783587959968E+00
   66     6 C    -5.400493468685E+00  5.700844175484E-01 -1.816412039967E+00
   67     6 C     5.806799466145E+00  2.547717291780E+00  1.786159943968E+00
   68     6 C    -4.704855667007E+00 -6.349866156066E-01 -1.813840055967E+00
   69     6 C    -5.806413842504E+00 -2.551149592637E+00  1.779546383968E+00
   70     6 C    -3.306711082600E+00  1.779173520760E+00 -1.820453615967E+00
   71     6 C     5.802541108673E+00  4.973055946062E+00  1.786282559968E+00
   72     6 C    -4.709114024479E+00  1.790352038675E+00 -1.813717439967E+00
   73     8 O     7.295941806465E+00  6.237110873148E-04  1.797428087967E+00
   74     8 O    -3.215713326687E+00 -3.182080196299E+00 -1.802571911967E+00
   75     8 O    -3.647325591093E+00  6.317809855988E+00  1.818616751967E+00
   76     8 O    -1.147622831188E+00 -4.375783030615E+00 -1.781383247968E+00
   77     8 O    -3.647355189038E+00 -6.318110557247E+00  1.786650119968E+00
   78     8 O    -1.147652429133E+00 -1.987787443850E+00 -1.813349879967E+00
   79     8 O     3.647398705026E+00 -6.317434579662E+00  1.797428159967E+00
   80     8 O     6.147101464931E+00 -1.987111466265E+00 -1.802571839967E+00
   81     8 O     3.647651861011E+00  6.318201059251E+00  1.818616751967E+00
   82     8 O     6.147354620915E+00 -4.375391827352E+00 -1.781383247968E+00
   83     8 O    -7.295942659207E+00 -5.569269881935E-04  1.786650047968E+00
   84     8 O    -4.796239899302E+00  4.329766186409E+00 -1.813349951967E+00

 *******************************************************************************
 STARTING BASIS SET HANDLING 
 *******************************************************************************

 Loading internal basis set: SOLDEF2MSVP         

 Please cite in your publication:
 L. Dona', J. G. Brandenburg and B. Civalleri, J. Chem. Phys., 151, 121101 (2019
 )                                                                              
                                                                                
                    

 *******************************************************************************
 LOCAL ATOMIC FUNCTIONS BASIS SET
 *******************************************************************************
   ATOM   X(AU)   Y(AU)   Z(AU)  N. TYPE  EXPONENT  S COEF   P COEF   D/F/G COEF
 *******************************************************************************
   1 B   -9.499  11.937   3.411
                                  1 S  
                                         2.410E+03 1.755E-03 0.000E+00 0.000E+00
                                         3.619E+02 1.344E-02 0.000E+00 0.000E+00
                                         8.231E+01 6.637E-02 0.000E+00 0.000E+00
                                         2.311E+01 2.303E-01 0.000E+00 0.000E+00
                                         7.252E+00 5.150E-01 0.000E+00 0.000E+00
                                  2 S  
                                         2.367E+00 1.000E+00 0.000E+00 0.000E+00
                                  3 S  
                                         5.533E-01 1.000E+00 0.000E+00 0.000E+00
                                  4 S  
                                         1.716E-01 1.000E+00 0.000E+00 0.000E+00
                           5-     7 P  
                                         6.002E+00 0.000E+00-3.555E-02 0.000E+00
                                         1.240E+00 0.000E+00-1.983E-01 0.000E+00
                                         3.367E-01 0.000E+00-5.048E-01 0.000E+00
                           8-    10 P  
                                         1.256E-01 0.000E+00 1.000E+00 0.000E+00
                          11-    15 D  
                                         8.880E-01 0.000E+00 0.000E+00 1.000E+00
   2 B   -4.775  -8.271  -3.392
   3 B   -5.588  14.195   3.411
   4 B   -0.864  -6.013  -3.392
   5 B   -9.499 -11.939   3.392
   6 B   -4.775  -3.755  -3.411
   7 B    5.588 -14.195   3.411
   8 B   10.311  -6.012  -3.392
   9 B    9.500  11.937   3.411
  10 B  -10.364   5.923  -3.392
  11 B    9.499 -11.935   3.392
  12 B   14.223  -3.752  -3.411
  13 H   -2.384  10.147   3.371
                                181 S  
                                         1.874E+01 1.968E-02 0.000E+00 0.000E+00
                                         2.826E+00 1.380E-01 0.000E+00 0.000E+00
                                         6.401E-01 4.783E-01 0.000E+00 0.000E+00
                                182 S  
                                         1.756E-01 1.000E+00 0.000E+00 0.000E+00
  14 H    2.340 -10.061  -3.432
  15 H    2.376 -10.143   3.365
  16 H    7.100  -1.960  -3.438
  17 H   -2.386 -10.148   3.364
  18 H    2.338  -1.964  -3.439
  19 H    2.379  10.145   3.364
  20 H    7.102 -10.063  -3.439
  21 H   -7.597   7.139   3.432
  22 H   -2.873 -13.069  -3.371
  23 H    7.596  -7.126   3.438
  24 H   12.320   1.057  -3.365
  25 H    9.979  -3.005   3.439
  26 H   -9.885  -9.020  -3.364
  27 H   -9.975   3.014   3.439
  28 H   -5.251  11.197  -3.364
  29 H   -7.596  -7.140   3.371
  30 H   -2.872   1.043  -3.432
  31 H    7.597   7.130   3.365
  32 H  -12.267   1.116  -3.438
  33 H    9.979   3.008   3.364
  34 H   -9.885  -3.007  -3.439
  35 H   -9.976  -3.016   3.364
  36 H   -5.252   5.168  -3.439
  37 C   -2.658  14.195   3.391
                                229 S  
                                         3.624E+03 1.634E-03 0.000E+00 0.000E+00
                                         5.440E+02 1.252E-02 0.000E+00 0.000E+00
                                         1.237E+02 6.211E-02 0.000E+00 0.000E+00
                                         3.476E+01 2.182E-01 0.000E+00 0.000E+00
                                         1.093E+01 4.980E-01 0.000E+00 0.000E+00
                                230 S  
                                         3.574E+00 1.000E+00 0.000E+00 0.000E+00
                                231 S  
                                         7.742E-01 1.000E+00 0.000E+00 0.000E+00
                                232 S  
                                         2.330E-01 1.000E+00 0.000E+00 0.000E+00
                         233-   235 P  
                                         9.443E+00 0.000E+00 3.790E-02 0.000E+00
                                         2.002E+00 0.000E+00 2.082E-01 0.000E+00
                                         5.463E-01 0.000E+00 5.047E-01 0.000E+00
                         236-   238 P  
                                         1.820E-01 0.000E+00 1.000E+00 0.000E+00
                         239-   243 D  
                                         8.880E-01 0.000E+00 0.000E+00 1.000E+00
  38 C    2.066  -6.013  -3.412
  39 C   -1.316  11.911   3.372
  40 C    3.408  -8.297  -3.431
  41 C    1.313 -11.910   3.370
  42 C    6.036  -3.727  -3.433
  43 C   -1.317 -11.911   3.375
  44 C    3.407  -3.728  -3.428
  45 C    1.314  11.911   3.363
  46 C    6.037  -8.297  -3.440
  47 C    2.656 -14.195   3.376
  48 C    7.380  -6.012  -3.427
  49 C   13.623  -4.793   3.412
  50 C   -6.241 -10.807  -3.391
  51 C   -9.659   7.096   3.431
  52 C   -4.935 -13.112  -3.372
  53 C    9.658  -7.090   3.433
  54 C   14.382   1.094  -3.370
  55 C   10.973  -4.813   3.428
  56 C   -8.891 -10.827  -3.375
  57 C  -10.973   4.819   3.440
  58 C   -6.249  13.002  -3.363
  59 C   10.964  -9.396   3.427
  60 C   15.688  -1.213  -3.376
  61 C   13.623   4.795   3.391
  62 C   -6.241  -1.219  -3.412
  63 C   -9.658  -7.098   3.372
  64 C   -4.934   1.085  -3.431
  65 C    9.659   7.092   3.370
  66 C  -10.205   1.077  -3.433
  67 C   10.973   4.814   3.375
  68 C   -8.891  -1.200  -3.428
  69 C  -10.973  -4.821   3.363
  70 C   -6.249   3.362  -3.440
  71 C   10.965   9.398   3.376
  72 C   -8.899   3.383  -3.427
  73 O   13.787   0.001   3.397
                                769 S  
                                         6.773E+03 1.727E-03 0.000E+00 0.000E+00
                                         1.017E+03 1.325E-02 0.000E+00 0.000E+00
                                         2.313E+02 6.603E-02 0.000E+00 0.000E+00
                                         6.501E+01 2.353E-01 0.000E+00 0.000E+00
                                         2.050E+01 5.498E-01 0.000E+00 0.000E+00
                                770 S  
                                         6.716E+00 1.000E+00 0.000E+00 0.000E+00
                                771 S  
                                         1.147E+00 1.000E+00 0.000E+00 0.000E+00
                                772 S  
                                         3.342E-01 1.000E+00 0.000E+00 0.000E+00
                         773-   775 P  
                                         1.769E+01 0.000E+00 4.359E-02 0.000E+00
                                         3.854E+00 0.000E+00 2.318E-01 0.000E+00
                                         1.047E+00 0.000E+00 5.146E-01 0.000E+00
                         776-   778 P  
                                         2.759E-01 0.000E+00 1.000E+00 0.000E+00
                         779-   783 D  
                                         8.000E-01 0.000E+00 0.000E+00 1.000E+00
  74 O   -6.077  -6.013  -3.406
  75 O   -6.892  11.939   3.437
  76 O   -2.169  -8.269  -3.366
  77 O   -6.893 -11.939   3.376
  78 O   -2.169  -3.756  -3.427
  79 O    6.893 -11.938   3.397
  80 O   11.616  -3.755  -3.406
  81 O    6.893  11.940   3.437
  82 O   11.617  -8.268  -3.366
  83 O  -13.787  -0.001   3.376
  84 O   -9.064   8.182  -3.427

 *******************************************************************************
 FINISHED BASIS SET HANDLING 
 *******************************************************************************

 INFORMATION **** SET_MPP **** PCRYSTAL CALCULATION
 INFORMATION **** READM2 **** NEW DEFAULT: FOCK/KS MATRIX MIXING SET TO 30 %
 INFORMATION **** READM2 **** NEW DEFAULT: FULL DIRECT SCF MODE
 INFORMATION **** READM2 **** NEW DEFAULT: COULOMB BIPOLAR BUFFER SET TO 32 Mb
 INFORMATION **** READM2 **** NEW DEFAULT: EXCHANGE BIPOLAR BUFFER SET TO 32 Mb

 *******************************************************************************
 NEW DEFAULT: DFT INTEGRATION GRID INCREASED TO XLGRID
 NEW DEFAULT: DIIS ACCELERATOR ACTIVE
 USE KEYWORD NODIIS TO TURN IT OFF
 *******************************************************************************

 WARNING **** RDDFTP **** HSEsol-HJS ACTIVE
 RANGE SEPARATION - OMEGA:   0.110000000000000     
 WARNING **** RDDFTP **** HSEsol-3c has to be combined with sol-def2-mSVP basis set
 *******************************************************************************
 N. OF ATOMS PER CELL        84  COULOMB OVERLAP TOL         (T1) 10**   -6
 NUMBER OF SHELLS           468  COULOMB PENETRATION TOL     (T2) 10**   -6
 NUMBER OF AO               948  EXCHANGE OVERLAP TOL        (T3) 10**   -6
 N. OF ELECTRONS PER CELL   396  EXCHANGE PSEUDO OVP (F(G))  (T4) 10**   -6
 CORE ELECTRONS PER CELL    120  EXCHANGE PSEUDO OVP (P(G))  (T5) 10**  -12
 N. OF SYMMETRY OPERATORS     1  POLE ORDER IN MONO ZONE                  4
 *******************************************************************************
 TYPE OF CALCULATION :  RESTRICTED CLOSED SHELL
 KOHN-SHAM HAMILTONIAN

 (EXCHANGE)[CORRELATION] FUNCTIONAL:(HSEsol GGA)[PBEsol]

 RANGE-SEPARATED HYBRID FUNCTIONAL 
 OMEGA (SHORT-RANGE)[LONG-RANGE]:(    0.1100)[    0.0000]

 HYBRID EXCHANGE - PERCENTAGE OF FOCK EXCHANGE    25.0000

 CAPPA:IS1  2;IS2  2;IS3  8; K PTS MONK NET  20; SYMMOPS:K SPACE   2;G SPACE   1

 *******************************************************************************
 MAX NUMBER OF SCF CYCLES      50  CONVERGENCE ON DELTAP        10**-16
 WEIGHT OF F(I) IN F(I+1)      30% CONVERGENCE ON ENERGY        10**- 6
 SHRINK. FACT.(MONKH.)    2  2  8  NUMBER OF K POINTS IN THE IBZ     20
 SHRINKING FACTOR(GILAT NET)    8  NUMBER OF K POINTS(GILAT NET)   1028
 *******************************************************************************
 *** K POINTS COORDINATES (OBLIQUE COORDINATES IN UNITS OF IS =  2)
   1-R(  0  0  0)   2-R(  1  0  0)   3-R(  0  1  0)   4-R(  1  1  0)
   5-C(  0  0  1)   6-C(  1  0  1)   7-C(  0  1  1)   8-C(  1  1  1)
   9-C(  0  0  2)  10-C(  1  0  2)  11-C(  0  1  2)  12-C(  1  1  2)
  13-C(  0  0  3)  14-C(  1  0  3)  15-C(  0  1  3)  16-C(  1  1  3)
  17-R(  0  0  4)  18-R(  1  0  4)  19-R(  0  1  4)  20-R(  1  1  4)

 DIRECT LATTICE VECTORS COMPON. (A.U.)     RECIP. LATTICE VECTORS COMPON. (A.U.) 
        X            Y            Z              X            Y            Z
   24.5879030  -14.1935232    0.0000000      0.2555397    0.0000000    0.0000005
    0.0000000   28.3910867    0.0000000      0.1277517    0.2213084    0.0000015
   -0.0000289   -0.0000767   13.6060282      0.0000000    0.0000000    0.4617942

 DISK SPACE FOR EIGENVECTORS (FTN 10)    28758528 REALS

 SYMMETRY ADAPTION OF THE BLOCH FUNCTIONS DISABLED
 TTTTTTTTTTTTTTTTTTTTTTTTTTTTTT gordsh1     TELAPSE        0.07 TCPU        0.07

 MATRIX SIZE: P(G)  689414, F(G)  135314, P(G) IRR  346753, F(G) IRR  136346
 MAX G-VECTOR INDEX FOR 1- AND 2-ELECTRON INTEGRALS  43

 TTTTTTTTTTTTTTTTTTTTTTTTTTTTTT INPUT       TELAPSE        2.85 TCPU        2.85

 NEIGHBORS OF THE NON-EQUIVALENT ATOMS

 N = NUMBER OF NEIGHBORS AT DISTANCE R
    ATOM  N     R/ANG      R/AU   NEIGHBORS (ATOM LABELS AND CELL INDICES)
   1 B    1     1.3791     2.6061   73 O   -1 0 0
   1 B    1     1.3793     2.6065   75 O    0 0 0
   1 B    1     1.5503     2.9297   49 C   -1 0 0
   1 B    1     2.3895     4.5155    5 B    0 1 0
   1 B    1     2.3898     4.5160    3 B    0 0 0
   1 B    1     2.5632     4.8437   51 C    0 0 0

   2 B    1     1.3791     2.6061   74 O    0 0 0
   2 B    1     1.3793     2.6065   76 O    0 0 0
   2 B    1     1.5503     2.9297   50 C    0 0 0
   2 B    1     2.3895     4.5155    6 B    0 0 0
   2 B    1     2.3898     4.5160    4 B    0 0 0
   2 B    1     2.5632     4.8437   52 C    0 0 0

   3 B    1     1.3793     2.6065   77 O    0 1 0
   3 B    1     1.3793     2.6065   75 O    0 0 0
   3 B    1     1.5504     2.9298   37 C    0 0 0
   3 B    1     2.3895     4.5156    5 B    0 1 0
   3 B    1     2.3898     4.5160    1 B    0 0 0
   3 B    1     2.5634     4.8440   43 C    0 1 0

   4 B    1     1.3793     2.6065   78 O    0 0 0
   4 B    1     1.3793     2.6065   76 O    0 0 0
   4 B    1     1.5504     2.9298   38 C    0 0 0
   4 B    1     2.3895     4.5156    6 B    0 0 0
   4 B    1     2.3898     4.5160    2 B    0 0 0
   4 B    1     2.5634     4.8440   44 C    0 0 0

   5 B    1     1.3791     2.6061   73 O   -1-1 0
   5 B    1     1.3793     2.6064   77 O    0 0 0
   5 B    1     1.5502     2.9294   61 C   -1-1 0
   5 B    1     2.3895     4.5155    1 B    0-1 0
   5 B    1     2.3895     4.5156    3 B    0-1 0
   5 B    1     2.5629     4.8433   63 C    0 0 0

   6 B    1     1.3791     2.6061   74 O    0 0 0
   6 B    1     1.3793     2.6064   78 O    0 0 0
   6 B    1     1.5502     2.9294   62 C    0 0 0
   6 B    1     2.3895     4.5155    2 B    0 0 0
   6 B    1     2.3895     4.5156    4 B    0 0 0
   6 B    1     2.5629     4.8433   64 C    0 0 0

   7 B    1     1.3795     2.6068   79 O    0 0 0
   7 B    1     1.3795     2.6070   81 O    0-1 0
   7 B    1     1.5513     2.9316   47 C    0 0 0
   7 B    1     2.3905     4.5174   11 B    0 0 0
   7 B    1     2.3905     4.5175    9 B    0-1 0
   7 B    1     2.5648     4.8468   45 C    0-1 0

   8 B    1     1.3795     2.6068   80 O    0 0 0
   8 B    1     1.3795     2.6070   82 O    0 0 0
   8 B    1     1.5513     2.9316   48 C    0 0 0
   8 B    1     2.3905     4.5174   12 B    0 0 0
   8 B    1     2.3905     4.5175   10 B    1 0 0
   8 B    1     2.5648     4.8468   46 C    0 0 0

   9 B    1     1.3795     2.6069   81 O    0 0 0
   9 B    1     1.3797     2.6072   83 O    1 1 0
   9 B    1     1.5516     2.9322   71 C    0 0 0
   9 B    1     2.3905     4.5175    7 B    0 1 0
   9 B    1     2.3911     4.5185   11 B    0 1 0
   9 B    1     2.5651     4.8473   69 C    1 1 0

  10 B    1     1.3795     2.6069   82 O   -1 0 0
  10 B    1     1.3797     2.6072   84 O    0 0 0
  10 B    1     1.5516     2.9322   72 C    0 0 0
  10 B    1     2.3905     4.5175    8 B   -1 0 0
  10 B    1     2.3911     4.5185   12 B   -1 0 0
  10 B    1     2.5651     4.8473   70 C    0 0 0

  11 B    1     1.3795     2.6068   79 O    0 0 0
  11 B    1     1.3796     2.6071   83 O    1 0 0
  11 B    1     1.5516     2.9322   59 C    0 0 0
  11 B    1     2.3905     4.5174    7 B    0 0 0
  11 B    1     2.3911     4.5185    9 B    0-1 0
  11 B    1     2.5651     4.8473   57 C    1 0 0

  12 B    1     1.3795     2.6068   80 O    0 0 0
  12 B    1     1.3796     2.6071   84 O    1 0 0
  12 B    1     1.5516     2.9322   60 C    0 0 0
  12 B    1     2.3905     4.5174    8 B    0 0 0
  12 B    1     2.3911     4.5185   10 B    1 0 0
  12 B    1     2.5651     4.8473   58 C    1 0 0

  13 H    1     1.0913     2.0623   39 C    0 0 0
  13 H    1     2.1472     4.0576   37 C    0 0 0
  13 H    1     2.1680     4.0969   45 C    0 0 0
  13 H    1     2.5202     4.7625   19 H    0 0 0
  13 H    1     2.5676     4.8520   75 O    0 0 0
  13 H    1     2.7321     5.1630    3 B    0 0 0

  14 H    1     1.0913     2.0623   40 C    0 0 0
  14 H    1     2.1472     4.0576   38 C    0 0 0
  14 H    1     2.1680     4.0969   46 C    0 0 0
  14 H    1     2.5202     4.7625   20 H    0 0 0
  14 H    1     2.5676     4.8520   76 O    0 0 0
  14 H    1     2.7321     5.1630    4 B    0 0 0

  15 H    1     1.0914     2.0625   41 C    0 0 0
  15 H    1     2.1493     4.0616   47 C    0 0 0
  15 H    1     2.1666     4.0942   43 C    0 0 0
  15 H    1     2.5198     4.7618   17 H    0 0 0
  15 H    1     2.5720     4.8604   79 O    0 0 0
  15 H    1     2.7362     5.1707    7 B    0 0 0

  16 H    1     1.0914     2.0625   42 C    0 0 0
  16 H    1     2.1493     4.0616   48 C    0 0 0
  16 H    1     2.1666     4.0942   44 C    0 0 0
  16 H    1     2.5198     4.7618   18 H    0 0 0
  16 H    1     2.5720     4.8604   80 O    0 0 0
  16 H    1     2.7362     5.1707    8 B    0 0 0

  17 H    1     1.0914     2.0624   43 C    0 0 0
  17 H    1     2.1471     4.0575   37 C    0-1 0
  17 H    1     2.1680     4.0970   41 C    0 0 0
  17 H    1     2.5198     4.7618   15 H    0 0 0
  17 H    1     2.5665     4.8500   77 O    0 0 0
  17 H    1     2.7315     5.1618    3 B    0-1 0

  18 H    1     1.0914     2.0624   44 C    0 0 0
  18 H    1     2.1471     4.0575   38 C    0 0 0
  18 H    1     2.1680     4.0970   42 C    0 0 0
  18 H    1     2.5198     4.7618   16 H    0 0 0
  18 H    1     2.5665     4.8500   78 O    0 0 0
  18 H    1     2.7315     5.1618    4 B    0 0 0

  19 H    1     1.0915     2.0626   45 C    0 0 0
  19 H    1     2.1490     4.0610   47 C    0 1 0
  19 H    1     2.1669     4.0948   39 C    0 0 0
  19 H    1     2.5202     4.7625   13 H    0 0 0
  19 H    1     2.5712     4.8588   81 O    0 0 0
  19 H    1     2.7351     5.1686    7 B    0 1 0

  20 H    1     1.0915     2.0626   46 C    0 0 0
  20 H    1     2.1490     4.0610   48 C    0 0 0
  20 H    1     2.1669     4.0948   40 C    0 0 0
  20 H    1     2.5202     4.7625   14 H    0 0 0
  20 H    1     2.5712     4.8588   82 O    0 0 0
  20 H    1     2.7351     5.1686    8 B    0 0 0

  21 H    1     1.0913     2.0623   51 C    0 0 0
  21 H    1     2.1469     4.0571   49 C   -1 0 0
  21 H    1     2.1680     4.0968   57 C    0 0 0
  21 H    1     2.5198     4.7617   27 H    0 0 0
  21 H    1     2.5670     4.8510   75 O    0 0 0
  21 H    1     2.7310     5.1609    1 B    0 0 0

  22 H    1     1.0913     2.0623   52 C    0 0 0
  22 H    1     2.1469     4.0571   50 C    0 0 0
  22 H    1     2.1680     4.0968   58 C    0-1 0
  22 H    1     2.5198     4.7617   28 H    0-1 0
  22 H    1     2.5670     4.8510   76 O    0 0 0
  22 H    1     2.7310     5.1609    2 B    0 0 0

  23 H    1     1.0914     2.0625   53 C    0 0 0
  23 H    1     2.1493     4.0617   59 C    0 0 0
  23 H    1     2.1664     4.0939   55 C    0 0 0
  23 H    1     2.5192     4.7606   25 H    0 0 0
  23 H    1     2.5735     4.8632   79 O    0 0 0
  23 H    1     2.7371     5.1723   11 B    0 0 0

  24 H    1     1.0914     2.0625   54 C    0 0 0
  24 H    1     2.1493     4.0617   60 C    0 0 0
  24 H    1     2.1664     4.0939   56 C    1 1 0
  24 H    1     2.5192     4.7606   26 H    1 1 0
  24 H    1     2.5735     4.8632   80 O    0 0 0
  24 H    1     2.7371     5.1723   12 B    0 0 0

  25 H    1     1.0914     2.0624   55 C    0 0 0
  25 H    1     2.1475     4.0581   49 C    0 0 0
  25 H    1     2.1679     4.0967   53 C    0 0 0
  25 H    1     2.5192     4.7606   23 H    0 0 0
  25 H    1     2.5675     4.8519   73 O    0 0 0
  25 H    1     2.7328     5.1643    1 B    1 0 0

  26 H    1     1.0914     2.0624   56 C    0 0 0
  26 H    1     2.1475     4.0581   50 C    0 0 0
  26 H    1     2.1679     4.0967   54 C   -1-1 0
  26 H    1     2.5192     4.7606   24 H   -1-1 0
  26 H    1     2.5675     4.8519   74 O    0 0 0
  26 H    1     2.7328     5.1643    2 B    0 0 0

  27 H    1     1.0914     2.0625   57 C    0 0 0
  27 H    1     2.1491     4.0612   59 C   -1 0 0
  27 H    1     2.1666     4.0942   51 C    0 0 0
  27 H    1     2.5198     4.7617   21 H    0 0 0
  27 H    1     2.5723     4.8609   83 O    0 0 0
  27 H    1     2.7355     5.1693   11 B   -1 0 0

  28 H    1     1.0914     2.0625   58 C    0 0 0
  28 H    1     2.1491     4.0612   60 C   -1 0 0
  28 H    1     2.1666     4.0942   52 C    0 1 0
  28 H    1     2.5198     4.7617   22 H    0 1 0
  28 H    1     2.5723     4.8609   84 O    0 0 0
  28 H    1     2.7355     5.1693   12 B   -1 0 0

  29 H    1     1.0914     2.0624   63 C    0 0 0
  29 H    1     2.1475     4.0582   61 C   -1-1 0
  29 H    1     2.1678     4.0966   69 C    0 0 0
  29 H    1     2.5200     4.7621   35 H    0 0 0
  29 H    1     2.5667     4.8503   77 O    0 0 0
  29 H    1     2.7315     5.1618    5 B    0 0 0

  30 H    1     1.0914     2.0624   64 C    0 0 0
  30 H    1     2.1475     4.0582   62 C    0 0 0
  30 H    1     2.1678     4.0966   70 C    0 0 0
  30 H    1     2.5200     4.7621   36 H    0 0 0
  30 H    1     2.5667     4.8503   78 O    0 0 0
  30 H    1     2.7315     5.1618    6 B    0 0 0

  31 H    1     1.0913     2.0623   65 C    0 0 0
  31 H    1     2.1487     4.0605   71 C    0 0 0
  31 H    1     2.1667     4.0945   67 C    0 0 0
  31 H    1     2.5197     4.7616   33 H    0 0 0
  31 H    1     2.5723     4.8610   81 O    0 0 0
  31 H    1     2.7359     5.1701    9 B    0 0 0

  32 H    1     1.0913     2.0623   66 C    0 0 0
  32 H    1     2.1487     4.0605   72 C    0 0 0
  32 H    1     2.1667     4.0945   68 C    0 0 0
  32 H    1     2.5197     4.7616   34 H    0 0 0
  32 H    1     2.5723     4.8610   82 O   -1 0 0
  32 H    1     2.7359     5.1701   10 B    0 0 0

  33 H    1     1.0915     2.0626   67 C    0 0 0
  33 H    1     2.1479     4.0589   61 C    0 0 0
  33 H    1     2.1679     4.0968   65 C    0 0 0
  33 H    1     2.5197     4.7616   31 H    0 0 0
  33 H    1     2.5677     4.8522   73 O    0 0 0
  33 H    1     2.7331     5.1648    5 B    1 1 0

  34 H    1     1.0915     2.0626   68 C    0 0 0
  34 H    1     2.1479     4.0589   62 C    0 0 0
  34 H    1     2.1679     4.0968   66 C    0 0 0
  34 H    1     2.5197     4.7616   32 H    0 0 0
  34 H    1     2.5677     4.8522   74 O    0 0 0
  34 H    1     2.7331     5.1648    6 B    0 0 0

  35 H    1     1.0914     2.0624   69 C    0 0 0
  35 H    1     2.1486     4.0602   71 C   -1-1 0
  35 H    1     2.1668     4.0947   63 C    0 0 0
  35 H    1     2.5200     4.7621   29 H    0 0 0
  35 H    1     2.5717     4.8598   83 O    0 0 0
  35 H    1     2.7349     5.1682    9 B   -1-1 0

  36 H    1     1.0914     2.0624   70 C    0 0 0
  36 H    1     2.1486     4.0602   72 C    0 0 0
  36 H    1     2.1668     4.0947   64 C    0 0 0
  36 H    1     2.5200     4.7621   30 H    0 0 0
  36 H    1     2.5717     4.8598   84 O    0 0 0
  36 H    1     2.7349     5.1682   10 B    0 0 0

  37 C    1     1.4020     2.6495   43 C    0 1 0
  37 C    1     1.4021     2.6495   39 C    0 0 0
  37 C    1     1.5504     2.9298    3 B    0 0 0
  37 C    1     2.1471     4.0575   17 H    0 1 0
  37 C    1     2.1472     4.0576   13 H    0 0 0
  37 C    1     2.4246     4.5817   41 C    0 1 0

  38 C    1     1.4020     2.6495   44 C    0 0 0
  38 C    1     1.4021     2.6495   40 C    0 0 0
  38 C    1     1.5504     2.9298    4 B    0 0 0
  38 C    1     2.1471     4.0575   18 H    0 0 0
  38 C    1     2.1472     4.0576   14 H    0 0 0
  38 C    1     2.4246     4.5817   42 C    0 0 0

  39 C    1     1.0913     2.0623   13 H    0 0 0
  39 C    1     1.3914     2.6294   45 C    0 0 0
  39 C    1     1.4021     2.6495   37 C    0 0 0
  39 C    1     2.1669     4.0948   19 H    0 0 0
  39 C    1     2.4177     4.5688   43 C    0 1 0
  39 C    1     2.4250     4.5825   47 C    0 1 0

  40 C    1     1.0913     2.0623   14 H    0 0 0
  40 C    1     1.3914     2.6294   46 C    0 0 0
  40 C    1     1.4021     2.6495   38 C    0 0 0
  40 C    1     2.1669     4.0948   20 H    0 0 0
  40 C    1     2.4177     4.5688   44 C    0 0 0
  40 C    1     2.4250     4.5825   48 C    0 0 0

  41 C    1     1.0914     2.0625   15 H    0 0 0
  41 C    1     1.3914     2.6293   43 C    0 0 0
  41 C    1     1.4026     2.6505   47 C    0 0 0
  41 C    1     2.1680     4.0970   17 H    0 0 0
  41 C    1     2.4182     4.5697   45 C    0-1 0
  41 C    1     2.4246     4.5817   37 C    0-1 0

  42 C    1     1.0914     2.0625   16 H    0 0 0
  42 C    1     1.3914     2.6293   44 C    0 0 0
  42 C    1     1.4026     2.6505   48 C    0 0 0
  42 C    1     2.1680     4.0970   18 H    0 0 0
  42 C    1     2.4182     4.5697   46 C    0 0 0
  42 C    1     2.4246     4.5817   38 C    0 0 0

  43 C    1     1.0914     2.0624   17 H    0 0 0
  43 C    1     1.3914     2.6293   41 C    0 0 0
  43 C    1     1.4020     2.6495   37 C    0-1 0
  43 C    1     2.1666     4.0942   15 H    0 0 0
  43 C    1     2.4177     4.5688   39 C    0-1 0
  43 C    1     2.4250     4.5826   47 C    0 0 0

  44 C    1     1.0914     2.0624   18 H    0 0 0
  44 C    1     1.3914     2.6293   42 C    0 0 0
  44 C    1     1.4020     2.6495   38 C    0 0 0
  44 C    1     2.1666     4.0942   16 H    0 0 0
  44 C    1     2.4177     4.5688   40 C    0 0 0
  44 C    1     2.4250     4.5826   48 C    0 0 0

  45 C    1     1.0915     2.0626   19 H    0 0 0
  45 C    1     1.3914     2.6294   39 C    0 0 0
  45 C    1     1.4025     2.6504   47 C    0 1 0
  45 C    1     2.1680     4.0969   13 H    0 0 0
  45 C    1     2.4182     4.5697   41 C    0 1 0
  45 C    1     2.4246     4.5818   37 C    0 0 0

  46 C    1     1.0915     2.0626   20 H    0 0 0
  46 C    1     1.3914     2.6294   40 C    0 0 0
  46 C    1     1.4025     2.6504   48 C    0 0 0
  46 C    1     2.1680     4.0969   14 H    0 0 0
  46 C    1     2.4182     4.5697   42 C    0 0 0
  46 C    1     2.4246     4.5818   38 C    0 0 0

  47 C    1     1.4025     2.6504   45 C    0-1 0
  47 C    1     1.4026     2.6505   41 C    0 0 0
  47 C    1     1.5513     2.9316    7 B    0 0 0
  47 C    1     2.1490     4.0610   19 H    0-1 0
  47 C    1     2.1493     4.0616   15 H    0 0 0
  47 C    1     2.4250     4.5825   39 C    0-1 0

  48 C    1     1.4025     2.6504   46 C    0 0 0
  48 C    1     1.4026     2.6505   42 C    0 0 0
  48 C    1     1.5513     2.9316    8 B    0 0 0
  48 C    1     2.1490     4.0610   20 H    0 0 0
  48 C    1     2.1493     4.0616   16 H    0 0 0
  48 C    1     2.4250     4.5825   40 C    0 0 0

  49 C    1     1.4020     2.6494   51 C    1 0 0
  49 C    1     1.4021     2.6495   55 C    0 0 0
  49 C    1     1.5503     2.9297    1 B    1 0 0
  49 C    1     2.1469     4.0571   21 H    1 0 0
  49 C    1     2.1475     4.0581   25 H    0 0 0
  49 C    1     2.4246     4.5818   53 C    0 0 0

  50 C    1     1.4020     2.6494   52 C    0 0 0
  50 C    1     1.4021     2.6495   56 C    0 0 0
  50 C    1     1.5503     2.9297    2 B    0 0 0
  50 C    1     2.1469     4.0571   22 H    0 0 0
  50 C    1     2.1475     4.0581   26 H    0 0 0
  50 C    1     2.4246     4.5818   54 C   -1-1 0

  51 C    1     1.0913     2.0623   21 H    0 0 0
  51 C    1     1.3914     2.6293   57 C    0 0 0
  51 C    1     1.4020     2.6494   49 C   -1 0 0
  51 C    1     2.1666     4.0942   27 H    0 0 0
  51 C    1     2.4175     4.5684   55 C   -1 0 0
  51 C    1     2.4251     4.5828   59 C   -1 0 0

  52 C    1     1.0913     2.0623   22 H    0 0 0
  52 C    1     1.3914     2.6293   58 C    0-1 0
  52 C    1     1.4020     2.6494   50 C    0 0 0
  52 C    1     2.1666     4.0942   28 H    0-1 0
  52 C    1     2.4175     4.5684   56 C    0 0 0
  52 C    1     2.4251     4.5828   60 C   -1-1 0

  53 C    1     1.0914     2.0625   23 H    0 0 0
  53 C    1     1.3915     2.6295   55 C    0 0 0
  53 C    1     1.4026     2.6505   59 C    0 0 0
  53 C    1     2.1679     4.0967   25 H    0 0 0
  53 C    1     2.4179     4.5691   57 C    1 0 0
  53 C    1     2.4246     4.5818   49 C    0 0 0

  54 C    1     1.0914     2.0625   24 H    0 0 0
  54 C    1     1.3915     2.6295   56 C    1 1 0
  54 C    1     1.4026     2.6505   60 C    0 0 0
  54 C    1     2.1679     4.0967   26 H    1 1 0
  54 C    1     2.4179     4.5691   58 C    1 0 0
  54 C    1     2.4246     4.5818   50 C    1 1 0

  55 C    1     1.0914     2.0624   25 H    0 0 0
  55 C    1     1.3915     2.6295   53 C    0 0 0
  55 C    1     1.4021     2.6495   49 C    0 0 0
  55 C    1     2.1664     4.0939   23 H    0 0 0
  55 C    1     2.4175     4.5684   51 C    1 0 0
  55 C    1     2.4253     4.5832   59 C    0 0 0

  56 C    1     1.0914     2.0624   26 H    0 0 0
  56 C    1     1.3915     2.6295   54 C   -1-1 0
  56 C    1     1.4021     2.6495   50 C    0 0 0
  56 C    1     2.1664     4.0939   24 H   -1-1 0
  56 C    1     2.4175     4.5684   52 C    0 0 0
  56 C    1     2.4253     4.5832   60 C   -1-1 0

  57 C    1     1.0914     2.0625   27 H    0 0 0
  57 C    1     1.3914     2.6293   51 C    0 0 0
  57 C    1     1.4025     2.6504   59 C   -1 0 0
  57 C    1     2.1680     4.0968   21 H    0 0 0
  57 C    1     2.4179     4.5691   53 C   -1 0 0
  57 C    1     2.4247     4.5819   49 C   -1 0 0

  58 C    1     1.0914     2.0625   28 H    0 0 0
  58 C    1     1.3914     2.6293   52 C    0 1 0
  58 C    1     1.4025     2.6504   60 C   -1 0 0
  58 C    1     2.1680     4.0968   22 H    0 1 0
  58 C    1     2.4179     4.5691   54 C   -1 0 0
  58 C    1     2.4247     4.5819   50 C    0 1 0

  59 C    1     1.4025     2.6504   57 C    1 0 0
  59 C    1     1.4026     2.6505   53 C    0 0 0
  59 C    1     1.5516     2.9322   11 B    0 0 0
  59 C    1     2.1491     4.0612   27 H    1 0 0
  59 C    1     2.1493     4.0617   23 H    0 0 0
  59 C    1     2.4251     4.5828   51 C    1 0 0

  60 C    1     1.4025     2.6504   58 C    1 0 0
  60 C    1     1.4026     2.6505   54 C    0 0 0
  60 C    1     1.5516     2.9322   12 B    0 0 0
  60 C    1     2.1491     4.0612   28 H    1 0 0
  60 C    1     2.1493     4.0617   24 H    0 0 0
  60 C    1     2.4251     4.5828   52 C    1 1 0

  61 C    1     1.4021     2.6496   63 C    1 1 0
  61 C    1     1.4021     2.6497   67 C    0 0 0
  61 C    1     1.5502     2.9294    5 B    1 1 0
  61 C    1     2.1475     4.0582   29 H    1 1 0
  61 C    1     2.1479     4.0589   33 H    0 0 0
  61 C    1     2.4244     4.5814   65 C    0 0 0

  62 C    1     1.4021     2.6496   64 C    0 0 0
  62 C    1     1.4021     2.6497   68 C    0 0 0
  62 C    1     1.5502     2.9294    6 B    0 0 0
  62 C    1     2.1475     4.0582   30 H    0 0 0
  62 C    1     2.1479     4.0589   34 H    0 0 0
  62 C    1     2.4244     4.5814   66 C    0 0 0

  63 C    1     1.0914     2.0624   29 H    0 0 0
  63 C    1     1.3914     2.6293   69 C    0 0 0
  63 C    1     1.4021     2.6496   61 C   -1-1 0
  63 C    1     2.1668     4.0947   35 H    0 0 0
  63 C    1     2.4179     4.5692   67 C   -1-1 0
  63 C    1     2.4251     4.5827   71 C   -1-1 0

  64 C    1     1.0914     2.0624   30 H    0 0 0
  64 C    1     1.3914     2.6293   70 C    0 0 0
  64 C    1     1.4021     2.6496   62 C    0 0 0
  64 C    1     2.1668     4.0947   36 H    0 0 0
  64 C    1     2.4179     4.5692   68 C    0 0 0
  64 C    1     2.4251     4.5827   72 C    0 0 0

  65 C    1     1.0913     2.0623   31 H    0 0 0
  65 C    1     1.3914     2.6294   67 C    0 0 0
  65 C    1     1.4025     2.6504   71 C    0 0 0
  65 C    1     2.1679     4.0968   33 H    0 0 0
  65 C    1     2.4178     4.5690   69 C    1 1 0
  65 C    1     2.4244     4.5814   61 C    0 0 0

  66 C    1     1.0913     2.0623   32 H    0 0 0
  66 C    1     1.3914     2.6294   68 C    0 0 0
  66 C    1     1.4025     2.6504   72 C    0 0 0
  66 C    1     2.1679     4.0968   34 H    0 0 0
  66 C    1     2.4178     4.5690   70 C    0 0 0
  66 C    1     2.4244     4.5814   62 C    0 0 0

  67 C    1     1.0915     2.0626   33 H    0 0 0
  67 C    1     1.3914     2.6294   65 C    0 0 0
  67 C    1     1.4021     2.6497   61 C    0 0 0
  67 C    1     2.1667     4.0945   31 H    0 0 0
  67 C    1     2.4179     4.5692   63 C    1 1 0
  67 C    1     2.4253     4.5832   71 C    0 0 0

  68 C    1     1.0915     2.0626   34 H    0 0 0
  68 C    1     1.3914     2.6294   66 C    0 0 0
  68 C    1     1.4021     2.6497   62 C    0 0 0
  68 C    1     2.1667     4.0945   32 H    0 0 0
  68 C    1     2.4179     4.5692   64 C    0 0 0
  68 C    1     2.4253     4.5832   72 C    0 0 0

  69 C    1     1.0914     2.0624   35 H    0 0 0
  69 C    1     1.3914     2.6293   63 C    0 0 0
  69 C    1     1.4025     2.6503   71 C   -1-1 0
  69 C    1     2.1678     4.0966   29 H    0 0 0
  69 C    1     2.4178     4.5690   65 C   -1-1 0
  69 C    1     2.4245     4.5817   61 C   -1-1 0

  70 C    1     1.0914     2.0624   36 H    0 0 0
  70 C    1     1.3914     2.6293   64 C    0 0 0
  70 C    1     1.4025     2.6503   72 C    0 0 0
  70 C    1     2.1678     4.0966   30 H    0 0 0
  70 C    1     2.4178     4.5690   66 C    0 0 0
  70 C    1     2.4245     4.5817   62 C    0 0 0

  71 C    1     1.4025     2.6503   69 C    1 1 0
  71 C    1     1.4025     2.6504   65 C    0 0 0
  71 C    1     1.5516     2.9322    9 B    0 0 0
  71 C    1     2.1486     4.0602   35 H    1 1 0
  71 C    1     2.1487     4.0605   31 H    0 0 0
  71 C    1     2.4251     4.5827   63 C    1 1 0

  72 C    1     1.4025     2.6503   70 C    0 0 0
  72 C    1     1.4025     2.6504   66 C    0 0 0
  72 C    1     1.5516     2.9322   10 B    0 0 0
  72 C    1     2.1486     4.0602   36 H    0 0 0
  72 C    1     2.1487     4.0605   32 H    0 0 0
  72 C    1     2.4251     4.5827   64 C    0 0 0

  73 O    1     1.3791     2.6061    1 B    1 0 0
  73 O    1     1.3791     2.6061    5 B    1 1 0
  73 O    1     2.3880     4.5126   75 O    1 0 0
  73 O    1     2.3882     4.5130   77 O    1 1 0
  73 O    1     2.5383     4.7966   61 C    0 0 0
  73 O    1     2.5384     4.7968   49 C    0 0 0

  74 O    1     1.3791     2.6061    2 B    0 0 0
  74 O    1     1.3791     2.6061    6 B    0 0 0
  74 O    1     2.3880     4.5126   76 O    0 0 0
  74 O    1     2.3882     4.5130   78 O    0 0 0
  74 O    1     2.5383     4.7966   62 C    0 0 0
  74 O    1     2.5384     4.7968   50 C    0 0 0

  75 O    1     1.3793     2.6065    1 B    0 0 0
  75 O    1     1.3793     2.6065    3 B    0 0 0
  75 O    1     2.3880     4.5126   73 O   -1 0 0
  75 O    1     2.3882     4.5131   77 O    0 1 0
  75 O    1     2.5391     4.7981   37 C    0 0 0
  75 O    1     2.5395     4.7990   49 C   -1 0 0

  76 O    1     1.3793     2.6065    2 B    0 0 0
  76 O    1     1.3793     2.6065    4 B    0 0 0
  76 O    1     2.3880     4.5126   74 O    0 0 0
  76 O    1     2.3882     4.5131   78 O    0 0 0
  76 O    1     2.5391     4.7981   38 C    0 0 0
  76 O    1     2.5395     4.7990   50 C    0 0 0

  77 O    1     1.3793     2.6064    5 B    0 0 0
  77 O    1     1.3793     2.6065    3 B    0-1 0
  77 O    1     2.3882     4.5130   73 O   -1-1 0
  77 O    1     2.3882     4.5131   75 O    0-1 0
  77 O    1     2.5390     4.7980   37 C    0-1 0
  77 O    1     2.5391     4.7982   61 C   -1-1 0

  78 O    1     1.3793     2.6064    6 B    0 0 0
  78 O    1     1.3793     2.6065    4 B    0 0 0
  78 O    1     2.3882     4.5130   74 O    0 0 0
  78 O    1     2.3882     4.5131   76 O    0 0 0
  78 O    1     2.5390     4.7980   38 C    0 0 0
  78 O    1     2.5391     4.7982   62 C    0 0 0

  79 O    1     1.3795     2.6068   11 B    0 0 0
  79 O    1     1.3795     2.6068    7 B    0 0 0
  79 O    1     2.3880     4.5126   83 O    1 0 0
  79 O    1     2.3884     4.5134   81 O    0-1 0
  79 O    1     2.5400     4.7998   47 C    0 0 0
  79 O    1     2.5403     4.8005   59 C    0 0 0

  80 O    1     1.3795     2.6068   12 B    0 0 0
  80 O    1     1.3795     2.6068    8 B    0 0 0
  80 O    1     2.3880     4.5126   84 O    1 0 0
  80 O    1     2.3884     4.5134   82 O    0 0 0
  80 O    1     2.5400     4.7998   48 C    0 0 0
  80 O    1     2.5403     4.8005   60 C    0 0 0

  81 O    1     1.3795     2.6069    9 B    0 0 0
  81 O    1     1.3795     2.6070    7 B    0 1 0
  81 O    1     2.3881     4.5128   83 O    1 1 0
  81 O    1     2.3884     4.5134   79 O    0 1 0
  81 O    1     2.5404     4.8006   47 C    0 1 0
  81 O    1     2.5405     4.8008   71 C    0 0 0

  82 O    1     1.3795     2.6069   10 B    1 0 0
  82 O    1     1.3795     2.6070    8 B    0 0 0
  82 O    1     2.3881     4.5128   84 O    1 0 0
  82 O    1     2.3884     4.5134   80 O    0 0 0
  82 O    1     2.5404     4.8006   48 C    0 0 0
  82 O    1     2.5405     4.8008   72 C    1 0 0

  83 O    1     1.3796     2.6071   11 B   -1 0 0
  83 O    1     1.3797     2.6072    9 B   -1-1 0
  83 O    1     2.3880     4.5126   79 O   -1 0 0
  83 O    1     2.3881     4.5128   81 O   -1-1 0
  83 O    1     2.5409     4.8016   71 C   -1-1 0
  83 O    1     2.5410     4.8019   59 C   -1 0 0

  84 O    1     1.3796     2.6071   12 B   -1 0 0
  84 O    1     1.3797     2.6072   10 B    0 0 0
  84 O    1     2.3880     4.5126   80 O   -1 0 0
  84 O    1     2.3881     4.5128   82 O   -1 0 0
  84 O    1     2.5409     4.8016   72 C    0 0 0
  84 O    1     2.5410     4.8019   60 C   -1 0 0


 SYMMETRY ALLOWED INTERNAL DEGREE(S) OF FREEDOM: 249
 TTTTTTTTTTTTTTTTTTTTTTTTTTTTTT SYMM        TELAPSE        2.86 TCPU        2.85
 TTTTTTTTTTTTTTTTTTTTTTTTTTTTTT INT_SCREEN  TELAPSE        3.07 TCPU        3.07

 DFT PARAMETERS

     ATOM       ELECTRONS   NET CHARGE   R(ANGSTROM)
   1   5  B       5.0000      0.0000     0.89000000
  13   1  H       1.0000      0.0000     1.11000000
  37   6  C       6.0000      0.0000     0.77000000
  73   8  O       8.0000      0.0000     0.74000000

 SIZE OF GRID=    2580168
 TTTTTTTTTTTTTTTTTTTTTTTTTTTTTT MAKE_GRID2  TELAPSE       23.93 TCPU       23.90
 BECKE WEIGHT FUNCTION
 RADSAFE =     2.00
 TOLERANCES - DENSITY:10**- 6; POTENTIAL:10**- 9; GRID WGT:10**-14

 RADIAL INTEGRATION  - INTERVALS (POINTS,UPPER LIMIT):            1( 75,  4.0*R)

 ANGULAR INTEGRATION - INTERVALS (ACCURACY LEVEL [N. POINTS] UPPER LIMIT):
  1(  4[  86]   0.2)  2(  8[ 194]   0.5)  3( 12[ 350]   0.9)  4( 16[ 974]   3.5)
  5( 12[ 350]9999.0)
 TTTTTTTTTTTTTTTTTTTTTTTTTTTTTT INT_CALC    TELAPSE       24.19 TCPU       24.16
 EEEEEEEEEE INT_CALC TERMINATION  DATE 19 02 2026 TIME 20:15:08.4

 *******************************************************************************
 cof-1_z36_L050_serr                                                             
 CRYSTAL - SCF - TYPE OF CALCULATION :  RESTRICTED CLOSED SHELL
 *******************************************************************************

 CAPPA:IS1  2;IS2  2;IS3  8; K PTS MONK NET  20; SYMMOPS:K SPACE   2;G SPACE   1

 TTTTTTTTTTTTTTTTTTTTTTTTTTTTTT SDIK        TELAPSE       26.53 TCPU       45.95

 AAAAAAAAAAAAAAAAAAAAAAAAAAAAAAAAAAAAAAAAAAAAAAAAAAAAAAAAAAAAAAAAAAAAAAAAAAAAAAA
         ATOMIC WAVEFUNCTION(S)


 NUCLEAR CHARGE  5.0  SYMMETRY SPECIES            S    P
 N. ELECTRONS    5.0  NUMBER OF PRIMITIVE GTOS    8    4
                      NUMBER OF CONTRACTED GTOS   4    2
                      NUMBER OF CLOSED SHELLS     2    0
                      OPEN SHELL OCCUPATION       0    1

  ZNUC  SCFIT    TOTAL HF ENERGY   KINETIC ENERGY   VIRIAL THEOREM ACCURACY
   5.0    11    -2.451164084E+01  2.462155050E+01 -1.995536038E+00  1.5E-06

 NUCLEAR CHARGE  1.0  SYMMETRY SPECIES            S
 N. ELECTRONS    1.0  NUMBER OF PRIMITIVE GTOS    4
                      NUMBER OF CONTRACTED GTOS   2
                      NUMBER OF CLOSED SHELLS     0
                      OPEN SHELL OCCUPATION       1

  ZNUC  SCFIT    TOTAL HF ENERGY   KINETIC ENERGY   VIRIAL THEOREM ACCURACY
   1.0     1    -4.977266687E-01  5.190767460E-01 -1.958869132E+00  0.0E+00

 NUCLEAR CHARGE  6.0  SYMMETRY SPECIES            S    P
 N. ELECTRONS    6.0  NUMBER OF PRIMITIVE GTOS    8    4
                      NUMBER OF CONTRACTED GTOS   4    2
                      NUMBER OF CLOSED SHELLS     2    0
                      OPEN SHELL OCCUPATION       0    2

  ZNUC  SCFIT    TOTAL HF ENERGY   KINETIC ENERGY   VIRIAL THEOREM ACCURACY
   6.0     9    -3.766704647E+01  3.775180683E+01 -1.997754800E+00  1.1E-06

 NUCLEAR CHARGE  8.0  SYMMETRY SPECIES            S    P
 N. ELECTRONS    8.0  NUMBER OF PRIMITIVE GTOS    8    4
                      NUMBER OF CONTRACTED GTOS   4    2
                      NUMBER OF CLOSED SHELLS     2    0
                      OPEN SHELL OCCUPATION       0    4

  ZNUC  SCFIT    TOTAL HF ENERGY   KINETIC ENERGY   VIRIAL THEOREM ACCURACY
   8.0    12    -7.477373220E+01  7.477365593E+01 -2.000001020E+00  3.8E-06

 AAAAAAAAAAAAAAAAAAAAAAAAAAAAAAAAAAAAAAAAAAAAAAAAAAAAAAAAAAAAAAAAAAAAAAAAAAAAAAA

 CHARGE NORMALIZATION FACTOR   1.00000000
 TOTAL ATOMIC CHARGES:
   5.0000000   5.0000000   5.0000000   5.0000000   5.0000000   5.0000000
   5.0000000   5.0000000   5.0000000   5.0000000   5.0000000   5.0000000
   1.0000000   1.0000000   1.0000000   1.0000000   1.0000000   1.0000000
   1.0000000   1.0000000   1.0000000   1.0000000   1.0000000   1.0000000
   1.0000000   1.0000000   1.0000000   1.0000000   1.0000000   1.0000000
   1.0000000   1.0000000   1.0000000   1.0000000   1.0000000   1.0000000
   6.0000000   6.0000000   6.0000000   6.0000000   6.0000000   6.0000000
   6.0000000   6.0000000   6.0000000   6.0000000   6.0000000   6.0000000
   6.0000000   6.0000000   6.0000000   6.0000000   6.0000000   6.0000000
   6.0000000   6.0000000   6.0000000   6.0000000   6.0000000   6.0000000
   6.0000000   6.0000000   6.0000000   6.0000000   6.0000000   6.0000000
   6.0000000   6.0000000   6.0000000   6.0000000   6.0000000   6.0000000
   8.0000000   8.0000000   8.0000000   8.0000000   8.0000000   8.0000000
   8.0000000   8.0000000   8.0000000   8.0000000   8.0000000   8.0000000
 TTTTTTTTTTTTTTTTTTTTTTTTTTTTTT MOQGAD      TELAPSE       26.63 TCPU       47.74
 TTTTTTTTTTTTTTTTTTTTTTTTTTTTTT SHELLXN     TELAPSE       45.23 TCPU      632.42
 TTTTTTTTTTTTTTTTTTTTTTTTTTTTTT MONMO3      TELAPSE       45.84 TCPU      651.98
 NUMERICALLY INTEGRATED DENSITY    395.9998597453
 TTTTTTTTTTTTTTTTTTTTTTTTTTTTTT NUMDFT      TELAPSE       47.44 TCPU      703.10
 CYC   0 ETOT(AU) -2.591928472532E+03 DETOT -2.59E+03 tst  0.00E+00 PX  1.00E+00
 TTTTTTTTTTTTTTTTTTTTTTTTTTTTTT DIIS        TELAPSE       47.64 TCPU      708.89
 TTTTTTTTTTTTTTTTTTTTTTTTTTTTTT FDIK        TELAPSE       49.73 TCPU      774.98
 INSULATING STATE
 TOP OF VALENCE BANDS -    BAND    198; K    4; EIG -3.1180671E-01 AU
 TOP OF VALENCE BANDS -    BAND    198; K    1; EIG -3.1234450E-01 AU
 BOTTOM OF VIRTUAL BANDS - BAND    199; K    1; EIG -1.6909733E-01 AU
 INDIRECT ENERGY BAND GAP:   3.8833 eV
 TTTTTTTTTTTTTTTTTTTTTTTTTTTTTT PDIG        TELAPSE       51.43 TCPU      781.74
 CHARGE NORMALIZATION FACTOR   1.00000000
 TOTAL ATOMIC CHARGES:
   4.1296699   4.1578314   4.1628542   4.1660334   4.1630875   4.1662828
   4.1658740   4.1627194   4.1656423   4.1624942   4.1574332   4.1292914
   0.7854569   0.7852707   0.7853832   0.7855728   0.7842339   0.7850302
   0.7851495   0.7843577   0.7858972   0.7857935   0.7859615   0.7860606
   0.7858871   0.7857811   0.7859238   0.7860243   0.7842382   0.7850327
   0.7852145   0.7844252   0.7854101   0.7852225   0.7853785   0.7855659
   6.0469131   6.0431482   6.2682144   6.2664342   6.2664029   6.2681741
   6.2666300   6.2644431   6.2643844   6.2665731   6.0424223   6.0461787
   6.0542571   6.0427581   6.2626420   6.2614898   6.2615790   6.2627040
   6.2625570   6.2613989   6.2616019   6.2627247   6.0415530   6.0529786
   6.0472814   6.0435082   6.2664040   6.2642118   6.2647540   6.2669459
   6.2678485   6.2660559   6.2666763   6.2684482   6.0419669   6.0457072
   8.7018586   8.6915009   8.7019231   8.6916137   8.6982588   8.6907831
   8.6919300   8.7022752   8.6911894   8.6986501   8.6921036   8.7024572
 TTTTTTTTTTTTTTTTTTTTTTTTTTTTTT MOQGAD      TELAPSE       51.53 TCPU      781.84
 TTTTTTTTTTTTTTTTTTTTTTTTTTTTTT SHELLXN     TELAPSE       70.50 TCPU     1386.81
 TTTTTTTTTTTTTTTTTTTTTTTTTTTTTT MONMO3      TELAPSE       71.12 TCPU     1406.37
 NUMERICALLY INTEGRATED DENSITY    395.9999012844
 TTTTTTTTTTTTTTTTTTTTTTTTTTTTTT NUMDFT      TELAPSE       72.74 TCPU     1458.27
 CYC   1 ETOT(AU) -2.577650846867E+03 DETOT  1.43E+01 tst  0.00E+00 PX  1.00E+00
 TTTTTTTTTTTTTTTTTTTTTTTTTTTTTT DIIS        TELAPSE       72.89 TCPU     1462.94
 DIIS TEST: 0.21852E+01 AT SCF   CYCLE   1 - MIX   30 %
 TTTTTTTTTTTTTTTTTTTTTTTTTTTTTT FDIK        TELAPSE       75.03 TCPU     1531.36
 INSULATING STATE
 TOP OF VALENCE BANDS -    BAND    198; K    4; EIG -2.2562134E-01 AU
 TOP OF VALENCE BANDS -    BAND    198; K    1; EIG -2.2729579E-01 AU
 BOTTOM OF VIRTUAL BANDS - BAND    199; K    1; EIG -9.5008900E-02 AU
 INDIRECT ENERGY BAND GAP:   3.5541 eV
 TTTTTTTTTTTTTTTTTTTTTTTTTTTTTT PDIG        TELAPSE       76.69 TCPU     1538.08
 CHARGE NORMALIZATION FACTOR   1.00000000
 TOTAL ATOMIC CHARGES:
   4.6614581   4.6913476   4.6757035   4.7185830   4.6756913   4.7186052
   4.7187808   4.6758769   4.7187727   4.6758758   4.6913874   4.6613238
   0.9124012   0.9013346   0.9013984   0.9123964   0.9175641   0.9142529
   0.9142900   0.9177071   0.9018174   0.8931904   0.8931098   0.9019180
   0.9017970   0.8931815   0.8930940   0.9018857   0.9175748   0.9142450
   0.9143624   0.9177839   0.9123384   0.9012812   0.9014047   0.9123924
   5.8562043   5.8813621   6.1484459   6.1341695   6.1345813   6.1488406
   6.1287410   6.1462347   6.1468806   6.1295206   5.8840132   5.8588629
   5.9173455   5.8686431   6.1527425   6.1312867   6.1322919   6.1533927
   6.1529098   6.1314234   6.1322145   6.1534115   5.8717629   5.9203750
   5.8560982   5.8813157   6.1288078   6.1462898   6.1467415   6.1294219
   6.1486607   6.1343926   6.1343421   6.1485518   5.8842426   5.8590295
   8.3455868   8.3258360   8.3459479   8.3262023   8.3380325   8.3390655
   8.3256895   8.3453747   8.3387645   8.3380000   8.3260609   8.3457616
 TTTTTTTTTTTTTTTTTTTTTTTTTTTTTT MOQGAD      TELAPSE       76.79 TCPU     1538.18
 TTTTTTTTTTTTTTTTTTTTTTTTTTTTTT SHELLXN     TELAPSE       95.73 TCPU     2141.85
 TTTTTTTTTTTTTTTTTTTTTTTTTTTTTT MONMO3      TELAPSE       96.34 TCPU     2161.41
 NUMERICALLY INTEGRATED DENSITY    395.9998811734
 TTTTTTTTTTTTTTTTTTTTTTTTTTTTTT NUMDFT      TELAPSE       97.99 TCPU     2214.02
 CYC   2 ETOT(AU) -2.578036253624E+03 DETOT -3.85E-01 tst  4.07E-03 PX  1.59E-01
 TTTTTTTTTTTTTTTTTTTTTTTTTTTTTT DIIS        TELAPSE       98.27 TCPU     2220.77
 DIIS TEST: 0.90175E+00 AT SCF   CYCLE   2 - DIIS ACTIVE - HISTORY:     2 CYCLES
 TTTTTTTTTTTTTTTTTTTTTTTTTTTTTT FDIK        TELAPSE      100.45 TCPU     2290.33
 INSULATING STATE
 TOP OF VALENCE BANDS -    BAND    198; K    4; EIG -2.3704138E-01 AU
 TOP OF VALENCE BANDS -    BAND    198; K    1; EIG -2.3883434E-01 AU
 BOTTOM OF VIRTUAL BANDS - BAND    199; K    1; EIG -9.1895616E-02 AU
 INDIRECT ENERGY BAND GAP:   3.9496 eV
 TTTTTTTTTTTTTTTTTTTTTTTTTTTTTT PDIG        TELAPSE      102.13 TCPU     2297.06
 CHARGE NORMALIZATION FACTOR   1.00000000
 TOTAL ATOMIC CHARGES:
   4.4532742   4.4887771   4.4879882   4.5104437   4.4881352   4.5105718
   4.5102080   4.4878018   4.5100782   4.4876522   4.4882342   4.4530138
   0.8902830   0.8819605   0.8820692   0.8905291   0.8927268   0.8927404
   0.8928848   0.8927760   0.8830835   0.8742290   0.8746399   0.8831473
   0.8831131   0.8742430   0.8745910   0.8830887   0.8927415   0.8927442
   0.8929349   0.8928486   0.8902749   0.8819731   0.8820225   0.8904710
   5.9123163   5.8820479   6.1607459   6.1662654   6.1660033   6.1605735
   6.1650748   6.1474700   6.1467794   6.1639601   5.8811541   5.9114412
   5.9078034   5.9028853   6.1602457   6.1721084   6.1717155   6.1600958
   6.1603203   6.1722203   6.1715713   6.1600033   5.9015916   5.9068794
   5.9125989   5.8823630   6.1650256   6.1474060   6.1469180   6.1640619
   6.1606713   6.1661249   6.1660277   6.1606165   5.8808515   5.9111356
   8.5197190   8.5124471   8.5198588   8.5126337   8.5252853   8.5028839
   8.5126606   8.5200687   8.5029863   8.5249863   8.5128316   8.5202715
 TTTTTTTTTTTTTTTTTTTTTTTTTTTTTT MOQGAD      TELAPSE      102.23 TCPU     2297.16
 TTTTTTTTTTTTTTTTTTTTTTTTTTTTTT SHELLXN     TELAPSE      121.29 TCPU     2905.10
 TTTTTTTTTTTTTTTTTTTTTTTTTTTTTT MONMO3      TELAPSE      121.91 TCPU     2924.96
 NUMERICALLY INTEGRATED DENSITY    395.9998828106
 TTTTTTTTTTTTTTTTTTTTTTTTTTTTTT NUMDFT      TELAPSE      123.55 TCPU     2977.33
 CYC   3 ETOT(AU) -2.578221809108E+03 DETOT -1.86E-01 tst  6.40E-04 PX  6.75E-02
 TTTTTTTTTTTTTTTTTTTTTTTTTTTTTT DIIS        TELAPSE      123.79 TCPU     2984.08
 DIIS TEST: 0.32929E-01 AT SCF   CYCLE   3 - DIIS ACTIVE - HISTORY:     3 CYCLES
 TTTTTTTTTTTTTTTTTTTTTTTTTTTTTT FDIK        TELAPSE      125.95 TCPU     3052.79
 INSULATING STATE
 TOP OF VALENCE BANDS -    BAND    198; K    4; EIG -2.4745241E-01 AU
 TOP OF VALENCE BANDS -    BAND    198; K    1; EIG -2.4890302E-01 AU
 BOTTOM OF VIRTUAL BANDS - BAND    199; K    1; EIG -9.9550222E-02 AU
 INDIRECT ENERGY BAND GAP:   4.0246 eV
 TTTTTTTTTTTTTTTTTTTTTTTTTTTTTT PDIG        TELAPSE      127.60 TCPU     3059.52
 CHARGE NORMALIZATION FACTOR   1.00000000
 TOTAL ATOMIC CHARGES:
   4.4658955   4.4887665   4.4914320   4.5126072   4.4915569   4.5127368
   4.5126703   4.4914442   4.5125402   4.4913162   4.4886026   4.4656208
   0.8732121   0.8663107   0.8664579   0.8732397   0.8791172   0.8725841
   0.8725899   0.8791915   0.8636836   0.8598378   0.8597317   0.8639063
   0.8637047   0.8598705   0.8596709   0.8638393   0.8791581   0.8725907
   0.8726487   0.8792408   0.8731979   0.8662904   0.8664283   0.8731972
   5.9244906   5.9494005   6.1784620   6.1648705   6.1651435   6.1785519
   6.1527048   6.1807164   6.1818100   6.1542906   5.9520235   5.9270458
   5.9882103   5.9226548   6.1823902   6.1628301   6.1639191   6.1830529
   6.1823204   6.1627358   6.1639659   6.1831918   5.9252978   5.9904565
   5.9244550   5.9494507   6.1526037   6.1806071   6.1819079   6.1544281
   6.1783539   6.1648018   6.1651957   6.1785737   5.9520658   5.9270284
   8.4909579   8.4726864   8.4912426   8.4729691   8.4794772   8.4850318
   8.4727452   8.4907808   8.4849762   8.4800643   8.4730486   8.4911231
 TTTTTTTTTTTTTTTTTTTTTTTTTTTTTT MOQGAD      TELAPSE      127.71 TCPU     3059.62
 TTTTTTTTTTTTTTTTTTTTTTTTTTTTTT SHELLXN     TELAPSE      146.78 TCPU     3667.89
 TTTTTTTTTTTTTTTTTTTTTTTTTTTTTT MONMO3      TELAPSE      147.39 TCPU     3687.43
 NUMERICALLY INTEGRATED DENSITY    395.9998844594
 TTTTTTTTTTTTTTTTTTTTTTTTTTTTTT NUMDFT      TELAPSE      149.02 TCPU     3739.39
 CYC   4 ETOT(AU) -2.578228025355E+03 DETOT -6.22E-03 tst  4.04E-05 PX  1.90E-02
 TTTTTTTTTTTTTTTTTTTTTTTTTTTTTT DIIS        TELAPSE      149.29 TCPU     3746.10
 DIIS TEST: 0.12446E-01 AT SCF   CYCLE   4 - DIIS ACTIVE - HISTORY:     4 CYCLES
 TTTTTTTTTTTTTTTTTTTTTTTTTTTTTT FDIK        TELAPSE      151.40 TCPU     3812.88
 INSULATING STATE
 TOP OF VALENCE BANDS -    BAND    198; K    4; EIG -2.4622990E-01 AU
 TOP OF VALENCE BANDS -    BAND    198; K    1; EIG -2.4779071E-01 AU
 BOTTOM OF VIRTUAL BANDS - BAND    199; K    1; EIG -9.9586617E-02 AU
 INDIRECT ENERGY BAND GAP:   3.9904 eV
 TTTTTTTTTTTTTTTTTTTTTTTTTTTTTT PDIG        TELAPSE      153.07 TCPU     3819.61
 CHARGE NORMALIZATION FACTOR   1.00000000
 TOTAL ATOMIC CHARGES:
   4.4634122   4.4941584   4.4915740   4.5182130   4.4917078   4.5183355
   4.5181717   4.4915764   4.5180547   4.4914428   4.4938155   4.4632110
   0.8751503   0.8675187   0.8676251   0.8753066   0.8795345   0.8770036
   0.8771843   0.8796717   0.8671889   0.8596996   0.8599976   0.8672835
   0.8671993   0.8597023   0.8599587   0.8672359   0.8795539   0.8770048
   0.8772433   0.8797449   0.8751230   0.8675062   0.8675975   0.8752684
   5.9298759   5.9240392   6.1705641   6.1716394   6.1715825   6.1706268
   6.1716189   6.1617755   6.1611170   6.1706255   5.9235818   5.9294654
   5.9467559   5.9374297   6.1716366   6.1752976   6.1752242   6.1716013
   6.1717289   6.1754145   6.1750875   6.1715334   5.9368861   5.9465184
   5.9300544   5.9242658   6.1715749   6.1617258   6.1611948   6.1706942
   6.1705571   6.1715895   6.1715501   6.1705951   5.9234076   5.9292658
   8.4938066   8.4845982   8.4939969   8.4848223   8.4971223   8.4814914
   8.4846925   8.4940311   8.4814359   8.4967377   8.4849119   8.4942764
 TTTTTTTTTTTTTTTTTTTTTTTTTTTTTT MOQGAD      TELAPSE      153.17 TCPU     3819.71
 TTTTTTTTTTTTTTTTTTTTTTTTTTTTTT SHELLXN     TELAPSE      172.37 TCPU     4431.78
 TTTTTTTTTTTTTTTTTTTTTTTTTTTTTT MONMO3      TELAPSE      172.98 TCPU     4451.42
 NUMERICALLY INTEGRATED DENSITY    395.9998844368
 TTTTTTTTTTTTTTTTTTTTTTTTTTTTTT NUMDFT      TELAPSE      174.61 TCPU     4503.41
 CYC   5 ETOT(AU) -2.578230585177E+03 DETOT -2.56E-03 tst  2.69E-05 PX  1.02E-02
 TTTTTTTTTTTTTTTTTTTTTTTTTTTTTT DIIS        TELAPSE      174.95 TCPU     4510.24
 DIIS TEST: 0.17059E-02 AT SCF   CYCLE   5 - DIIS ACTIVE - HISTORY:     5 CYCLES
 TTTTTTTTTTTTTTTTTTTTTTTTTTTTTT FDIK        TELAPSE      177.07 TCPU     4577.42
 INSULATING STATE
 TOP OF VALENCE BANDS -    BAND    198; K    4; EIG -2.4548349E-01 AU
 TOP OF VALENCE BANDS -    BAND    198; K    1; EIG -2.4705841E-01 AU
 BOTTOM OF VIRTUAL BANDS - BAND    199; K    1; EIG -9.9253891E-02 AU
 INDIRECT ENERGY BAND GAP:   3.9791 eV
 TTTTTTTTTTTTTTTTTTTTTTTTTTTTTT PDIG        TELAPSE      178.73 TCPU     4584.15
 CHARGE NORMALIZATION FACTOR   1.00000000
 TOTAL ATOMIC CHARGES:
   4.4649186   4.4934504   4.4920092   4.5173558   4.4921350   4.5174814
   4.5173247   4.4919580   4.5172041   4.4918316   4.4931704   4.4646674
   0.8767080   0.8689791   0.8691186   0.8768254   0.8814569   0.8777487
   0.8778099   0.8815362   0.8682055   0.8615314   0.8616368   0.8683645
   0.8682247   0.8615512   0.8615849   0.8683063   0.8814853   0.8777517
   0.8778683   0.8815984   0.8766900   0.8689675   0.8690875   0.8767818
   5.9230802   5.9217767   6.1754668   6.1668140   6.1668341   6.1754334
   6.1605267   6.1690569   6.1694585   6.1610260   5.9229519   5.9242281
   5.9569790   5.9172697   6.1766139   6.1687467   6.1692274   6.1769297
   6.1766121   6.1687451   6.1691906   6.1769676   5.9182463   5.9579017
   5.9231818   5.9219393   6.1604551   6.1689794   6.1695594   6.1611351
   6.1753893   6.1667254   6.1668597   6.1754510   5.9228495   5.9240915
   8.4990504   8.4846841   8.4992764   8.4849304   8.4939799   8.4877711
   8.4847987   8.4990818   8.4877862   8.4942045   8.4850462   8.4993655
 TTTTTTTTTTTTTTTTTTTTTTTTTTTTTT MOQGAD      TELAPSE      178.83 TCPU     4584.25
 TTTTTTTTTTTTTTTTTTTTTTTTTTTTTT SHELLXN     TELAPSE      197.79 TCPU     5188.82
 TTTTTTTTTTTTTTTTTTTTTTTTTTTTTT MONMO3      TELAPSE      198.40 TCPU     5208.36
 NUMERICALLY INTEGRATED DENSITY    395.9998842871
 TTTTTTTTTTTTTTTTTTTTTTTTTTTTTT NUMDFT      TELAPSE      200.04 TCPU     5260.63
 CYC   6 ETOT(AU) -2.578230923970E+03 DETOT -3.39E-04 tst  7.95E-06 PX  4.76E-03
 TTTTTTTTTTTTTTTTTTTTTTTTTTTTTT DIIS        TELAPSE      200.35 TCPU     5267.39
 DIIS TEST: 0.41076E-03 AT SCF   CYCLE   6 - DIIS ACTIVE - HISTORY:     6 CYCLES
 TTTTTTTTTTTTTTTTTTTTTTTTTTTTTT FDIK        TELAPSE      202.47 TCPU     5334.83
 INSULATING STATE
 TOP OF VALENCE BANDS -    BAND    198; K    4; EIG -2.4547766E-01 AU
 TOP OF VALENCE BANDS -    BAND    198; K    1; EIG -2.4701534E-01 AU
 BOTTOM OF VIRTUAL BANDS - BAND    199; K    1; EIG -9.8950604E-02 AU
 INDIRECT ENERGY BAND GAP:   3.9872 eV
 TTTTTTTTTTTTTTTTTTTTTTTTTTTTTT PDIG        TELAPSE      204.13 TCPU     5341.56
 CHARGE NORMALIZATION FACTOR   1.00000000
 TOTAL ATOMIC CHARGES:
   4.4644607   4.4935501   4.4923173   4.5171524   4.4924478   4.5172777
   4.5171112   4.4922825   4.5169904   4.4921523   4.4932347   4.4642131
   0.8769981   0.8688605   0.8689819   0.8771181   0.8814026   0.8779888
   0.8780932   0.8815025   0.8685966   0.8617467   0.8619051   0.8687328
   0.8686143   0.8617627   0.8618569   0.8686767   0.8814295   0.8779930
   0.8781502   0.8815660   0.8769793   0.8688491   0.8689507   0.8770752
   5.9226867   5.9245214   6.1718202   6.1694212   6.1694646   6.1718573
   6.1632670   6.1671796   6.1672050   6.1632649   5.9252106   5.9233704
   5.9530756   5.9233285   6.1740543   6.1705901   6.1709240   6.1742794
   6.1740782   6.1706234   6.1708575   6.1742877   5.9239131   5.9537096
   5.9228020   5.9246958   6.1631978   6.1671008   6.1673065   6.1633712
   6.1717561   6.1693459   6.1694776   6.1718613   5.9250971   5.9232204
   8.4971100   8.4845450   8.4973285   8.4847852   8.4950790   8.4862996
   8.4846546   8.4972040   8.4862734   8.4950994   8.4848978   8.4974793
 TTTTTTTTTTTTTTTTTTTTTTTTTTTTTT MOQGAD      TELAPSE      204.23 TCPU     5341.66
 TTTTTTTTTTTTTTTTTTTTTTTTTTTTTT SHELLXN     TELAPSE      223.06 TCPU     5941.79
 TTTTTTTTTTTTTTTTTTTTTTTTTTTTTT MONMO3      TELAPSE      223.67 TCPU     5961.54
 NUMERICALLY INTEGRATED DENSITY    395.9998842773
 TTTTTTTTTTTTTTTTTTTTTTTTTTTTTT NUMDFT      TELAPSE      225.31 TCPU     6013.71
 CYC   7 ETOT(AU) -2.578231018079E+03 DETOT -9.41E-05 tst  1.09E-06 PX  1.43E-03
 TTTTTTTTTTTTTTTTTTTTTTTTTTTTTT DIIS        TELAPSE      225.60 TCPU     6020.48
 DIIS TEST: 0.26322E-04 AT SCF   CYCLE   7 - DIIS ACTIVE - HISTORY:     7 CYCLES
 TTTTTTTTTTTTTTTTTTTTTTTTTTTTTT FDIK        TELAPSE      227.71 TCPU     6087.50
 INSULATING STATE
 TOP OF VALENCE BANDS -    BAND    198; K    4; EIG -2.4556536E-01 AU
 TOP OF VALENCE BANDS -    BAND    198; K    1; EIG -2.4712372E-01 AU
 BOTTOM OF VIRTUAL BANDS - BAND    199; K    1; EIG -9.9068808E-02 AU
 INDIRECT ENERGY BAND GAP:   3.9864 eV
 TTTTTTTTTTTTTTTTTTTTTTTTTTTTTT PDIG        TELAPSE      229.36 TCPU     6094.22
 CHARGE NORMALIZATION FACTOR   1.00000000
 TOTAL ATOMIC CHARGES:
   4.4645070   4.4935970   4.4922955   4.5173241   4.4924258   4.5174492
   4.5172847   4.4922613   4.5171645   4.4921312   4.4932874   4.4642667
   0.8768604   0.8689882   0.8691135   0.8769864   0.8813128   0.8780211
   0.8781227   0.8814093   0.8684546   0.8615664   0.8617306   0.8685913
   0.8684719   0.8615817   0.8616826   0.8685356   0.8813390   0.8780243
   0.8781804   0.8814741   0.8768407   0.8689771   0.8690828   0.8769436
   5.9243515   5.9231174   6.1729043   6.1683680   6.1683826   6.1729192
   6.1635274   6.1666216   6.1666623   6.1635298   5.9237803   5.9250107
   5.9537130   5.9232912   6.1744100   6.1704724   6.1707861   6.1746216
   6.1744378   6.1705083   6.1707168   6.1746263   5.9238188   5.9542976
   5.9244743   5.9232973   6.1634616   6.1665493   6.1667589   6.1636298
   6.1728468   6.1682920   6.1683914   6.1729215   5.9236588   5.9248562
   8.4971551   8.4845308   8.4973711   8.4847708   8.4948547   8.4859361
   8.4846382   8.4972488   8.4859204   8.4948745   8.4848788   8.4975217
 TTTTTTTTTTTTTTTTTTTTTTTTTTTTTT MOQGAD      TELAPSE      229.46 TCPU     6094.32
 TTTTTTTTTTTTTTTTTTTTTTTTTTTTTT SHELLXN     TELAPSE      248.72 TCPU     6708.37
 TTTTTTTTTTTTTTTTTTTTTTTTTTTTTT MONMO3      TELAPSE      249.34 TCPU     6728.01
 NUMERICALLY INTEGRATED DENSITY    395.9998842669
 TTTTTTTTTTTTTTTTTTTTTTTTTTTTTT NUMDFT      TELAPSE      250.97 TCPU     6780.22
 CYC   8 ETOT(AU) -2.578231024351E+03 DETOT -6.27E-06 tst  8.53E-08 PX  4.01E-04
 TTTTTTTTTTTTTTTTTTTTTTTTTTTTTT DIIS        TELAPSE      251.38 TCPU     6787.03
 DIIS TEST: 0.10689E-05 AT SCF   CYCLE   8 - DIIS ACTIVE - HISTORY:     8 CYCLES
 TTTTTTTTTTTTTTTTTTTTTTTTTTTTTT FDIK        TELAPSE      253.50 TCPU     6854.47
 INSULATING STATE
 TOP OF VALENCE BANDS -    BAND    198; K    4; EIG -2.4555820E-01 AU
 TOP OF VALENCE BANDS -    BAND    198; K    1; EIG -2.4711460E-01 AU
 BOTTOM OF VIRTUAL BANDS - BAND    199; K    1; EIG -9.9071377E-02 AU
 INDIRECT ENERGY BAND GAP:   3.9861 eV
 TTTTTTTTTTTTTTTTTTTTTTTTTTTTTT PDIG        TELAPSE      255.15 TCPU     6861.19
 CHARGE NORMALIZATION FACTOR   1.00000000
 TOTAL ATOMIC CHARGES:
   4.4645379   4.4936260   4.4922382   4.5174204   4.4923676   4.5175453
   4.5173829   4.4922036   4.5172628   4.4920742   4.4933200   4.4642978
   0.8768335   0.8689574   0.8690839   0.8769590   0.8813425   0.8779791
   0.8780779   0.8814383   0.8684265   0.8615670   0.8617271   0.8685654
   0.8684441   0.8615826   0.8616787   0.8685096   0.8813689   0.8779822
   0.8781359   0.8815028   0.8768139   0.8689460   0.8690532   0.8769162
   5.9240080   5.9233123   6.1728277   6.1684889   6.1685029   6.1728382
   6.1634430   6.1667100   6.1667759   6.1634807   5.9240080   5.9246976
   5.9535634   5.9233831   6.1744156   6.1704291   6.1707530   6.1746320
   6.1744399   6.1704622   6.1706871   6.1746403   5.9239377   5.9541669
   5.9241282   5.9234907   6.1633775   6.1666372   6.1668723   6.1635807
   6.1727681   6.1684126   6.1685133   6.1728417   5.9238887   5.9245453
   8.4972101   8.4845506   8.4974273   8.4847909   8.4948990   8.4859718
   8.4846584   8.4972993   8.4859577   8.4949337   8.4848995   8.4975734
 TTTTTTTTTTTTTTTTTTTTTTTTTTTTTT MOQGAD      TELAPSE      255.26 TCPU     6861.29
 TTTTTTTTTTTTTTTTTTTTTTTTTTTTTT SHELLXN     TELAPSE      273.98 TCPU     7458.25
 TTTTTTTTTTTTTTTTTTTTTTTTTTTTTT MONMO3      TELAPSE      274.60 TCPU     7478.03
 NUMERICALLY INTEGRATED DENSITY    395.9998842676
 TTTTTTTTTTTTTTTTTTTTTTTTTTTTTT NUMDFT      TELAPSE      276.25 TCPU     7530.95
 CYC   9 ETOT(AU) -2.578231024381E+03 DETOT -2.99E-08 tst  4.16E-09 PX  9.04E-05
 TTTTTTTTTTTTTTTTTTTTTTTTTTTTTT DIIS        TELAPSE      276.70 TCPU     7537.94
 DIIS TEST: 0.43880E-07 AT SCF   CYCLE   9 - DIIS ACTIVE - HISTORY:     9 CYCLES
 TTTTTTTTTTTTTTTTTTTTTTTTTTTTTT FDIK        TELAPSE      278.90 TCPU     7607.60
 INSULATING STATE
 TOP OF VALENCE BANDS -    BAND    198; K    4; EIG -2.4556077E-01 AU
 TOP OF VALENCE BANDS -    BAND    198; K    1; EIG -2.4711718E-01 AU
 BOTTOM OF VIRTUAL BANDS - BAND    199; K    1; EIG -9.9069345E-02 AU
 INDIRECT ENERGY BAND GAP:   3.9862 eV
 TTTTTTTTTTTTTTTTTTTTTTTTTTTTTT PDIG        TELAPSE      280.57 TCPU     7614.33
 CHARGE NORMALIZATION FACTOR   1.00000000
 TOTAL ATOMIC CHARGES:
   4.4645339   4.4936215   4.4922543   4.5173775   4.4923842   4.5175025
   4.5173387   4.4922206   4.5172185   4.4920907   4.4933119   4.4642928
   0.8768431   0.8689474   0.8690719   0.8769679   0.8813275   0.8779776
   0.8780806   0.8814256   0.8684309   0.8615605   0.8617246   0.8685673
   0.8684481   0.8615757   0.8616767   0.8685117   0.8813538   0.8779810
   0.8781382   0.8814902   0.8768234   0.8689361   0.8690412   0.8769253
   5.9240906   5.9233136   6.1727704   6.1685286   6.1685485   6.1727906
   6.1634682   6.1667355   6.1667680   6.1634618   5.9239711   5.9247449
   5.9536277   5.9232891   6.1744055   6.1704837   6.1707988   6.1746183
   6.1744336   6.1705198   6.1707294   6.1746227   5.9238168   5.9542142
   5.9242127   5.9234930   6.1634017   6.1666622   6.1668652   6.1635629
   6.1727123   6.1684532   6.1685577   6.1727928   5.9238506   5.9245907
   8.4971844   8.4845414   8.4974004   8.4847813   8.4949200   8.4860016
   8.4846494   8.4972791   8.4859833   8.4949372   8.4848902   8.4975521
 TTTTTTTTTTTTTTTTTTTTTTTTTTTTTT MOQGAD      TELAPSE      280.67 TCPU     7614.43
 TTTTTTTTTTTTTTTTTTTTTTTTTTTTTT SHELLXN     TELAPSE      299.68 TCPU     8220.73
 +++ ENERGIES IN A.U. +++
 ::: EXT EL-POLE                                  -2.7891008515252E+03
 ::: EXT EL-SPHEROPOLE                             3.1842793666041E+01
 ::: BIELET ZONE E-E                               4.3112141585082E+03
 ::: TOTAL E-E                                     1.5539561006491E+03
 ::: TOTAL E-N + N-E                              -6.7607693255855E+03
 ::: TOTAL N-N                                     3.3616150010046E+02
 ::: KINETIC ENERGY                                2.5598533812761E+03
 ::: PSEUDO TOTAL   ENERGY                        -2.3107983435599E+03
 ::: VIRIAL COEFFICIENT                            1.0511338218757E+00
 TTTTTTTTTTTTTTTTTTTTTTTTTTTTTT MONMO3      TELAPSE      300.30 TCPU     8240.29
 NUMERICALLY INTEGRATED DENSITY    395.9998842667
 EXCHANGE ENERGY: -0.252045013903E+03  CORRELATION ENERGY: -0.153876669615E+02
 TTTTTTTTTTTTTTTTTTTTTTTTTTTTTT NUMDFT      TELAPSE      301.93 TCPU     8292.36
 CYC  10 ETOT(AU) -2.578231024424E+03 DETOT -4.30E-08 tst  1.87E-10 PX  9.04E-05

 == SCF ENDED - CONVERGENCE ON ENERGY      E(AU) -2.5782310244244E+03 CYCLES  10


 ENERGY EXPRESSION=HARTREE+FOCK EXCH*0.00000+(HSESOL     EXCH)*1.00000+PBESOL     CORR


 TOTAL ENERGY(DFT)(AU)( 10) -2.5782310244244E+03 DE-4.3E-08 tester 1.9E-10
 TTTTTTTTTTTTTTTTTTTTTTTTTTTTTT EDFT        TELAPSE      301.93 TCPU     8292.37
 
 INFORMATION **** DFTD3 ENERGY **** CALCULATE DFTD3 ENERGY

           DFT-D V3(BJ)
 DF                                         hsesol3c  
 parameters
 s6       :    1.0000
 s8       :    0.0000
 a1       :    0.5196
 a2       :    4.9385
 k1 k3    :   16.0000   -4.0000
 Cutoff   :   50.2022
 CN-Cutoff:   21.1671
 ABC-Cutoff:   21.1671
 
 Edisp /kcal,au:   -53.0769 -0.08458341

 E6    /kcal :   -56.6264
 E8    /kcal :     0.0000
 E6(ABC) "   :   3.549492
 
 INFORMATION **** DFTD3 ENERGY **** NORMAL TERMINATION OF DFTD3 MODULE

 GCP ENERGY CALCULATION
  level        hsesol3c            basis:hsesol3c
  Nbf            948
  Atoms           84

  Parameters: 
  sigma     1.0000
  eta       1.4281
  alpha     0.2936
  beta      1.9467

  dmp_scal      4.0000
  dmp_exp       6.0000
 cutoffs: 
   distance [bohr] 60.0
   noise    [a.u.] 2.2E-16
 SR-damping   T
 ** gCP correction **
  Egcp:        0.1663296215 / (a.u.) ||     104.3734 / (kcal/mol)
 INFORMATION **** GCP **** NORMAL TERMINATION OF GCP MODULE

 *******************************************************************************

 DFT-D3-GCP DISPERSION AND COUNTERPOISE CORRECTION

 D3 DISPERSION ENERGY (AU)      -8.4583407341689E-02
 GCP ENERGY (AU)                 1.6632962145693E-01
 TOTAL ENERGY + DISP + GCP (AU) -2.5781492782103E+03

 *******************************************************************************

 EIGENVECTORS IN FORTRAN UNIT  8
 TTTTTTTTTTTTTTTTTTTTTTTTTTTTTT END         TELAPSE      305.24 TCPU     8301.29
 EEEEEEEEEE TERMINATION  DATE 19 02 2026 TIME 20:19:49.5
