 Default number of threads is:           32

         
 *******************************************************************************
 *                                                                             *
 *                               CRYSTAL23                                     *
 *                      public : 1.0.1 - October 2022                          *
 *                       HTTP://WWW.CRYSTAL.UNITO.IT                           *
 *                                                                             *
 *                              MAIN AUTHORS                                   *
 *                                                                             *
 *  R. DOVESI(1,11), V.R. SAUNDERS(2), C. ROETTI(1,11), R. ORLANDO(1,11),      *
 *  C.M. ZICOVICH-WILSON(1,3), F. PASCALE(4), B. CIVALLERI(1,11),              *
 *  K. DOLL(5), N.M. HARRISON(6), I.J. BUSH(7), Ph. D'ARCO(8),                 *
 *  M. LLUNELL(9), M. CAUSA'(10), Y. NOEL(8), L. MASCHIO(1,11), A. ERBA(1,11)  *
 *  M. RE'RAT(14), S. CASASSA(1,11), B.G. SEARLE(2), J.K. DESMARAIS(1)         *
 *                                                                             *
 *        CONTRIBUTIONS TO THE CODE HAVE ALSO BEEN GIVEN BY                    *
 *                                                                             *
 *  M. FERRABONE(1,11), M. DE LA PIERRE(1,11), M. FERRERO(1,11),               *
 *  J. BAIMA(1,11), E. ALBANESE(1,11), M.F. PEINTINGER(12), R. BAST(13),       *
 *  B. KIRTMAN(15), V. LACIVITA(1,11), R. DEMICHELIS(1,16)                     *
 *  G. BRANDEBURG(17), S. SALUSTRO(1,11), G. SANSONE(1,11)                     *
 *  M.T. RUGGIERO(18), L.E. DAGA(1), L. DONA'(1), A. COSSARD(1)                *
 *                                                                             *
 * (1) THEORETICAL CHEMISTRY GROUP - UNIVERSITA' DI TORINO - TORINO (ITALY)    *
 * (2) SCIENTIFIC COMPUTING DEPARTMENT - STFC DARESBURY (UK)                   *
 * (3) UNIVERSIDAD AUTONOMA DEL ESTADO DE MORELOS - CUERNAVACA (MEXICO)        *
 * (4) UNIVERSITE' DE LORRAINE - NANCY (FRANCE)                                *
 * (5) UNIVERSITAET STUTTGART- STUTTGART (GERMANY)                             *
 * (6) IMPERIAL COLLEGE - LONDON (UK)                                          *
 * (7) SCIENTIFIC COMPUTING DEPARTMENT - STFC RAL (UK)                         *
 * (8) UPMC - SORBONNE UNIVERSITES - PARIS (FRANCE)                            *
 * (9) UNIVERSIDAD DE BARCELONA - BARCELONA (SPAIN)                            *
 *(10) UNIVERSITA' DI NAPOLI "FEDERICO II" - NAPOLI (ITALY)                    *
 *(11) NIS - NANOSTRUCTURED INTERFACES AND SURFACES - TORINO (ITALY)           *
 *(12) MPI FUER CHEMISCHE ENERGIEKONVERSION - MUELHEIM AN DER RUHR (GERMANY)   *
 *(13) UNIVERSITY OF TROMSO - TROMSO (NORWAY)                                  *
 *(14) UNIVERSITE' DE PAU ET DES PAYS DE L'ADOUR - PAU (FRANCE)                *
 *(15) UNIVERSITY OF CALIFORNIA SANTA BARBARA - SANTA BARBARA (USA)            *
 *(16) CURTIN UNIVERSITY - PERTH (AUSTRALIA)                                   *
 *(17) UNIVERSITY COLLEGE LONDON - LONDON (UK)                                 *
 *(18) UNIVERSITY OF VERMONT - BURLINGTON (USA)                                *
 *                                                                             *
 *******************************************************************************
 EEEEEEEEEE STARTING  DATE 19 02 2026 TIME 19:23:44.1
 cof-1_z45_L060_incl                                                             

 CRYSTAL CALCULATION
 (INPUT ACCORDING TO THE INTERNATIONAL TABLES FOR X-RAY CRYSTALLOGRAPHY)
 CRYSTAL FAMILY                       :  TRICLINIC   
 CRYSTAL CLASS  (GROTH - 1921)        :  TRICLINIC PEDIAL                     

 SPACE GROUP (NONCENTROSYMMETRIC)     :  P 1             

 LATTICE PARAMETERS  (ANGSTROMS AND DEGREES) - CONVENTIONAL CELL
        A           B           C        ALPHA        BETA       GAMMA
    15.02361    15.02392     7.50000    46.14425    89.99997   119.99596


 NUMBER OF IRREDUCIBLE ATOMS IN THE CONVENTIONAL CELL:   42

 INPUT COORDINATES

 ATOM AT. N.              COORDINATES
   1   5     4.981669000000E-01 -3.732540000000E-03  5.010575400000E-01
   2   5     6.572225600000E-01  1.553271200000E-01  5.010575500000E-01
   3   5     4.986771500000E-01  1.563390500000E-01  4.988257500000E-01
   4   5     1.117416100000E-01  3.825824600000E-01  5.010575500000E-01
   5   5     2.708495800000E-01  3.825616900000E-01  5.010575400000E-01
   6   5     2.713443800000E-01  5.427300300000E-01  4.988257500000E-01
   7   1     7.885966800000E-01  8.001291000000E-02  4.964305600000E-01
   8   1    -1.764929000000E-02  4.624625700000E-01  4.957230200000E-01
   9   1     7.887127000000E-01  3.655317700000E-01  4.956141300000E-01
  10   1    -1.752880000000E-02  1.771317500000E-01  4.956412900000E-01
  11   1     5.749414900000E-01 -1.352013100000E-01  5.035615600000E-01
  12   1     1.926756800000E-01  6.709056000000E-01  5.042691400000E-01
  13   1     2.895908300000E-01 -1.355319800000E-01  5.043781100000E-01
  14   1     4.780393500000E-01  6.707779700000E-01  5.043507600000E-01
  15   1     5.766257900000E-01  3.651370500000E-01  4.964306000000E-01
  16   1     1.946780200000E-01  1.770184800000E-01  4.957229800000E-01
  17   1     2.915818800000E-01  8.028263000000E-02  4.956140400000E-01
  18   1     4.800258800000E-01  4.624047000000E-01  4.956413800000E-01
  19   6     7.769100200000E-01  2.159597300000E-01  4.987440800000E-01
  20   6     8.320170700000E-01  1.638182800000E-01  4.965394500000E-01
  21   6    -6.104001000000E-02  3.783057700000E-01  4.963490000000E-01
  22   6     8.318922100000E-01  3.245491000000E-01  4.969205600000E-01
  23   6    -6.079472000000E-02  2.177846400000E-01  4.954507700000E-01
  24   6    -6.530280000000E-03  3.248800000000E-01  4.969477500000E-01
  25   6     4.384818600000E-01 -1.229701600000E-01  5.012480800000E-01
  26   6     4.911120400000E-01 -1.785992700000E-01  5.034526600000E-01
  27   6     2.766889400000E-01  7.144201000000E-01  5.036431800000E-01
  28   6     3.303096100000E-01 -1.783766600000E-01  5.030716400000E-01
  29   6     4.374000600000E-01  7.139663400000E-01  5.045413200000E-01
  30   6     3.299562200000E-01  6.600251100000E-01  5.030443900000E-01
  31   6     4.390645800000E-01  2.158905900000E-01  4.987440800000E-01
  32   6     4.927381700000E-01  3.246584100000E-01  4.965394900000E-01
  33   6     2.783952500000E-01  2.172925200000E-01  4.963489500000E-01
  34   6     3.317273700000E-01  1.635469300000E-01  4.969205000000E-01
  35   6     4.395218900000E-01  3.786326400000E-01  4.954508300000E-01
  36   6     3.313938100000E-01  3.248026000000E-01  4.969477500000E-01
  37   8     4.455995200000E-01  5.007290000000E-02  4.994245100000E-01
  38   8     6.034590300000E-01  4.790936000000E-02  5.041330700000E-01
  39   8     6.050944200000E-01  2.101301700000E-01  4.970294200000E-01
  40   8     1.651873500000E-01  4.893533700000E-01  4.994245300000E-01
  41   8     1.641213000000E-01  3.282266500000E-01  5.041330600000E-01
  42   8     3.246788500000E-01  4.904421400000E-01  4.970294000000E-01

 *******************************************************************************

 << INFORMATION >>: FROM NOW ON, ALL COORDINATES REFER TO THE PRIMITIVE CELL

 *******************************************************************************

 LATTICE PARAMETERS  (ANGSTROMS AND DEGREES) - PRIMITIVE CELL
       A          B          C        ALPHA      BETA     GAMMA        VOLUME
   15.02361   15.02392    7.50000    46.14425  89.99997 119.99596    879.673918

 COORDINATES OF THE EQUIVALENT ATOMS (FRACTIONAL UNITS)

 N. ATOM EQUIV AT. N.          X                  Y                  Z

   1   1   1    5 B     4.98166900000E-01 -3.73254000000E-03 -4.98942460000E-01

   2   2   1    5 B    -3.42777440000E-01  1.55327120000E-01 -4.98942450000E-01

   3   3   1    5 B     4.98677150000E-01  1.56339050000E-01  4.98825750000E-01

   4   4   1    5 B     1.11741610000E-01  3.82582460000E-01 -4.98942450000E-01

   5   5   1    5 B     2.70849580000E-01  3.82561690000E-01 -4.98942460000E-01

   6   6   1    5 B     2.71344380000E-01 -4.57269970000E-01  4.98825750000E-01

   7   7   1    1 H    -2.11403320000E-01  8.00129100000E-02  4.96430560000E-01

   8   8   1    1 H    -1.76492900000E-02  4.62462570000E-01  4.95723020000E-01

   9   9   1    1 H    -2.11287300000E-01  3.65531770000E-01  4.95614130000E-01

  10  10   1    1 H    -1.75288000000E-02  1.77131750000E-01  4.95641290000E-01

  11  11   1    1 H    -4.25058510000E-01 -1.35201310000E-01 -4.96438440000E-01

  12  12   1    1 H     1.92675680000E-01 -3.29094400000E-01 -4.95730860000E-01

  13  13   1    1 H     2.89590830000E-01 -1.35531980000E-01 -4.95621890000E-01

  14  14   1    1 H     4.78039350000E-01 -3.29222030000E-01 -4.95649240000E-01

  15  15   1    1 H    -4.23374210000E-01  3.65137050000E-01  4.96430600000E-01

  16  16   1    1 H     1.94678020000E-01  1.77018480000E-01  4.95722980000E-01

  17  17   1    1 H     2.91581880000E-01  8.02826300000E-02  4.95614040000E-01

  18  18   1    1 H     4.80025880000E-01  4.62404700000E-01  4.95641380000E-01

  19  19   1    6 C    -2.23089980000E-01  2.15959730000E-01  4.98744080000E-01

  20  20   1    6 C    -1.67982930000E-01  1.63818280000E-01  4.96539450000E-01

  21  21   1    6 C    -6.10400100000E-02  3.78305770000E-01  4.96349000000E-01

  22  22   1    6 C    -1.68107790000E-01  3.24549100000E-01  4.96920560000E-01

  23  23   1    6 C    -6.07947200000E-02  2.17784640000E-01  4.95450770000E-01

  24  24   1    6 C    -6.53028000000E-03  3.24880000000E-01  4.96947750000E-01

  25  25   1    6 C     4.38481860000E-01 -1.22970160000E-01 -4.98751920000E-01

  26  26   1    6 C     4.91112040000E-01 -1.78599270000E-01 -4.96547340000E-01

  27  27   1    6 C     2.76688940000E-01 -2.85579900000E-01 -4.96356820000E-01

  28  28   1    6 C     3.30309610000E-01 -1.78376660000E-01 -4.96928360000E-01

  29  29   1    6 C     4.37400060000E-01 -2.86033660000E-01 -4.95458680000E-01

  30  30   1    6 C     3.29956220000E-01 -3.39974890000E-01 -4.96955610000E-01

  31  31   1    6 C     4.39064580000E-01  2.15890590000E-01  4.98744080000E-01

  32  32   1    6 C     4.92738170000E-01  3.24658410000E-01  4.96539490000E-01

  33  33   1    6 C     2.78395250000E-01  2.17292520000E-01  4.96348950000E-01

  34  34   1    6 C     3.31727370000E-01  1.63546930000E-01  4.96920500000E-01

  35  35   1    6 C     4.39521890000E-01  3.78632640000E-01  4.95450830000E-01

  36  36   1    6 C     3.31393810000E-01  3.24802600000E-01  4.96947750000E-01

  37  37   1    8 O     4.45599520000E-01  5.00729000000E-02  4.99424510000E-01

  38  38   1    8 O    -3.96540970000E-01  4.79093600000E-02 -4.95866930000E-01

  39  39   1    8 O    -3.94905580000E-01  2.10130170000E-01  4.97029420000E-01

  40  40   1    8 O     1.65187350000E-01  4.89353370000E-01  4.99424530000E-01

  41  41   1    8 O     1.64121300000E-01  3.28226650000E-01 -4.95866940000E-01

  42  42   1    8 O     3.24678850000E-01  4.90442140000E-01  4.97029400000E-01

 NUMBER OF SYMMETRY OPERATORS         :    1
 *******************************************************************************
 * GEOMETRY EDITING - INPUT COORDINATES ARE GIVEN IN ANGSTROM         
 *******************************************************************************

 GCALCO - MAX INDICES DIRECT LATTICE VECTOR    10    13    24
 NO.OF VECTORS CREATED 6999 STARS 3500 RMAX   215.26444 BOHR

 GEOMETRY FOR WAVE FUNCTION - DIMENSIONALITY OF THE SYSTEM    3
 (NON PERIODIC DIRECTION: LATTICE PARAMETER FORMALLY SET TO 500)
 *******************************************************************************
 LATTICE PARAMETERS (ANGSTROMS AND DEGREES) - BOHR = 0.5291772083 ANGSTROM
 PRIMITIVE CELL - CENTRING CODE 1/0 VOLUME=   879.673918 - DENSITY  0.736 g/cm^3
         A              B              C           ALPHA      BETA       GAMMA 
    15.02361100    15.02391600     7.50000000    46.144251  89.999966 119.995964
 *******************************************************************************
 ATOMS IN THE ASYMMETRIC UNIT   42 - ATOMS IN THE UNIT CELL:   42
     ATOM                 X/A                 Y/B                 Z/C    
 *******************************************************************************
      1 T   5 B     4.981669000000E-01 -3.732540000000E-03 -4.989424600000E-01
      2 T   5 B    -3.427774400000E-01  1.553271200000E-01 -4.989424500000E-01
      3 T   5 B     4.986771500000E-01  1.563390500000E-01  4.988257500000E-01
      4 T   5 B     1.117416100000E-01  3.825824600000E-01 -4.989424500000E-01
      5 T   5 B     2.708495800000E-01  3.825616900000E-01 -4.989424600000E-01
      6 T   5 B     2.713443800000E-01 -4.572699700000E-01  4.988257500000E-01
      7 T   1 H    -2.114033200000E-01  8.001291000000E-02  4.964305600000E-01
      8 T   1 H    -1.764929000000E-02  4.624625700000E-01  4.957230200000E-01
      9 T   1 H    -2.112873000000E-01  3.655317700000E-01  4.956141300000E-01
     10 T   1 H    -1.752880000000E-02  1.771317500000E-01  4.956412900000E-01
     11 T   1 H    -4.250585100000E-01 -1.352013100000E-01 -4.964384400000E-01
     12 T   1 H     1.926756800000E-01 -3.290944000000E-01 -4.957308600000E-01
     13 T   1 H     2.895908300000E-01 -1.355319800000E-01 -4.956218900000E-01
     14 T   1 H     4.780393500000E-01 -3.292220300000E-01 -4.956492400000E-01
     15 T   1 H    -4.233742100000E-01  3.651370500000E-01  4.964306000000E-01
     16 T   1 H     1.946780200000E-01  1.770184800000E-01  4.957229800000E-01
     17 T   1 H     2.915818800000E-01  8.028263000000E-02  4.956140400000E-01
     18 T   1 H     4.800258800000E-01  4.624047000000E-01  4.956413800000E-01
     19 T   6 C    -2.230899800000E-01  2.159597300000E-01  4.987440800000E-01
     20 T   6 C    -1.679829300000E-01  1.638182800000E-01  4.965394500000E-01
     21 T   6 C    -6.104001000000E-02  3.783057700000E-01  4.963490000000E-01
     22 T   6 C    -1.681077900000E-01  3.245491000000E-01  4.969205600000E-01
     23 T   6 C    -6.079472000000E-02  2.177846400000E-01  4.954507700000E-01
     24 T   6 C    -6.530280000000E-03  3.248800000000E-01  4.969477500000E-01
     25 T   6 C     4.384818600000E-01 -1.229701600000E-01 -4.987519200000E-01
     26 T   6 C     4.911120400000E-01 -1.785992700000E-01 -4.965473400000E-01
     27 T   6 C     2.766889400000E-01 -2.855799000000E-01 -4.963568200000E-01
     28 T   6 C     3.303096100000E-01 -1.783766600000E-01 -4.969283600000E-01
     29 T   6 C     4.374000600000E-01 -2.860336600000E-01 -4.954586800000E-01
     30 T   6 C     3.299562200000E-01 -3.399748900000E-01 -4.969556100000E-01
     31 T   6 C     4.390645800000E-01  2.158905900000E-01  4.987440800000E-01
     32 T   6 C     4.927381700000E-01  3.246584100000E-01  4.965394900000E-01
     33 T   6 C     2.783952500000E-01  2.172925200000E-01  4.963489500000E-01
     34 T   6 C     3.317273700000E-01  1.635469300000E-01  4.969205000000E-01
     35 T   6 C     4.395218900000E-01  3.786326400000E-01  4.954508300000E-01
     36 T   6 C     3.313938100000E-01  3.248026000000E-01  4.969477500000E-01
     37 T   8 O     4.455995200000E-01  5.007290000000E-02  4.994245100000E-01
     38 T   8 O    -3.965409700000E-01  4.790936000000E-02 -4.958669300000E-01
     39 T   8 O    -3.949055800000E-01  2.101301700000E-01  4.970294200000E-01
     40 T   8 O     1.651873500000E-01  4.893533700000E-01  4.994245300000E-01
     41 T   8 O     1.641213000000E-01  3.282266500000E-01 -4.958669400000E-01
     42 T   8 O     3.246788500000E-01  4.904421400000E-01  4.970294000000E-01

 T = ATOM BELONGING TO THE ASYMMETRIC UNIT

 ****    1 SYMMOPS - TRANSLATORS IN FRACTIONAL UNITS
 **** MATRICES AND TRANSLATORS IN THE CRYSTALLOGRAPHIC REFERENCE FRAME
   V INV                    ROTATION MATRICES                   TRANSLATORS
   1   1  1.00  0.00  0.00  0.00  1.00  0.00  0.00 -0.00  1.00  0.00  0.00  0.00

 DIRECT LATTICE VECTORS CARTESIAN COMPONENTS (ANGSTROM)
          X                    Y                    Z
   0.130113578931E+02  -0.751088897922E+01   0.000000000000E+00
   0.000000000000E+00   0.150239160000E+02   0.000000000000E+00
   0.299962448853E+01   0.519633841069E+01   0.450003556091E+01


 CARTESIAN COORDINATES - PRIMITIVE CELL
 *******************************************************************************
 *      ATOM          X(ANGSTROM)         Y(ANGSTROM)         Z(ANGSTROM)
 *******************************************************************************
    1     5 B     1.985563316462E+00  3.437150073246E+00 -6.745294373756E+00
    2     5 B    -5.956639940892E+00  2.315511082165E+00 -2.245258767847E+00
    3     5 B     4.985132318419E+00 -4.000954961124E+00 -2.255301947212E+00
    4     5 B    -4.272991213041E-02  2.315934097387E+00 -2.245258767847E+00
    5     5 B     2.027480799181E+00  1.120579700310E+00 -2.245258812847E+00
    6     5 B     2.027224287129E+00  3.511621862361E+00 -2.255301947212E+00
    7     1 H    -4.261163480199E+00  1.732168815935E-01 -2.266080387387E+00
    8     1 H    -1.742282806958E+00  4.460166821777E+00 -2.269264342548E+00
    9     1 H    -1.262478397349E+00 -5.369863198572E+00  2.230281209489E+00
   10     1 H    -1.740960227755E+00  1.720508661347E-01 -2.269632130454E+00
   11     1 H    -4.020092812241E+00  3.777990430124E+00  2.266044927107E+00
   12     1 H     4.019590290922E+00 -3.771099161640E+00  2.269229062269E+00
   13     1 H     5.280914861911E+00 -1.590386309860E+00  2.269719431144E+00
   14     1 H    -5.278553932738E+00  1.594961596247E+00  2.269596355171E+00
   15     1 H    -4.019567984385E+00 -3.778589549319E+00  2.233955353523E+00
   16     1 H     1.020383693937E+00 -1.423088269598E+00 -2.269264522549E+00
   17     1 H     2.280907718524E+00 -3.604839777411E+00 -2.269754756423E+00
   18     1 H     4.732902055057E+00  7.208902091077E-01 -2.269631725451E+00
   19     6 C    -4.406283104787E+00  2.315469524378E+00 -2.255669465116E+00
   20     6 C    -3.695878616943E+00  1.106741821388E+00 -2.265590378515E+00
   21     6 C    -2.304977289178E+00  3.524957812315E+00 -2.266447410287E+00
   22     6 C    -3.696360028200E+00  3.524466345808E+00 -2.263875369962E+00
   23     6 C    -2.304480085905E+00  1.106791985962E+00 -2.270489477229E+00
   24     6 C    -1.593935658332E+00  2.315988308906E+00 -2.263753013995E+00
   25     6 C     1.209551448611E+00  2.095011905807E+00 -6.744436936980E+00
   26     6 C    -5.111154447276E+00  3.755050935399E+00  2.265554873234E+00
   27     6 C     5.110839239599E+00 -3.751607937491E+00  2.266412220009E+00
   28     6 C     5.806802562054E+00 -2.546704279420E+00  2.263840269685E+00
   29     6 C    -5.806754671005E+00  2.550047448936E+00  2.270453881948E+00
   30     6 C     2.802498249992E+00  4.855547749460E+00 -2.236317917193E+00
   31     6 C     4.209246855892E+00 -2.658938616416E+00 -2.255669465116E+00
   32     6 C     4.901000202636E+00 -1.439412196535E+00 -2.265590198513E+00
   33     6 C     2.111536210224E+00 -1.443552543880E+00 -2.266447635289E+00
   34     6 C     2.807173946115E+00 -2.648623438538E+00 -2.263875639964E+00
   35     6 C     4.205318566624E+00 -2.344633736581E-01 -2.270489207227E+00
   36     6 C     2.802915617344E+00 -2.232848655852E-01 -2.263753013995E+00
   37     8 O     4.296316333533E+00 -5.195717126571E+00 -2.252607505919E+00
   38     8 O    -6.646951066210E+00  1.121469026686E+00 -2.231418818479E+00
   39     8 O    -6.477317270644E-01 -1.121774531128E+00  6.736685625726E+00
   40     8 O     6.477732920866E-01  3.510140536368E+00 -2.252607415918E+00
   41     8 O     6.480263558977E-01  1.121860328225E+00 -2.231418863479E+00
   42     8 O     2.715789788886E+00  2.316129269745E+00 -2.263385586091E+00

 *******************************************************************************
 STARTING BASIS SET HANDLING 
 *******************************************************************************

 Loading internal basis set: SOLDEF2MSVP         

 Please cite in your publication:
 L. Dona', J. G. Brandenburg and B. Civalleri, J. Chem. Phys., 151, 121101 (2019
 )                                                                              
                                                                                
                    

 *******************************************************************************
 LOCAL ATOMIC FUNCTIONS BASIS SET
 *******************************************************************************
   ATOM   X(AU)   Y(AU)   Z(AU)  N. TYPE  EXPONENT  S COEF   P COEF   D/F/G COEF
 *******************************************************************************
   1 B    3.752   6.495 -12.747
                                  1 S  
                                         2.410E+03 1.755E-03 0.000E+00 0.000E+00
                                         3.619E+02 1.344E-02 0.000E+00 0.000E+00
                                         8.231E+01 6.637E-02 0.000E+00 0.000E+00
                                         2.311E+01 2.303E-01 0.000E+00 0.000E+00
                                         7.252E+00 5.150E-01 0.000E+00 0.000E+00
                                  2 S  
                                         2.367E+00 1.000E+00 0.000E+00 0.000E+00
                                  3 S  
                                         5.533E-01 1.000E+00 0.000E+00 0.000E+00
                                  4 S  
                                         1.716E-01 1.000E+00 0.000E+00 0.000E+00
                           5-     7 P  
                                         6.002E+00 0.000E+00-3.555E-02 0.000E+00
                                         1.240E+00 0.000E+00-1.983E-01 0.000E+00
                                         3.367E-01 0.000E+00-5.048E-01 0.000E+00
                           8-    10 P  
                                         1.256E-01 0.000E+00 1.000E+00 0.000E+00
                          11-    15 D  
                                         8.880E-01 0.000E+00 0.000E+00 1.000E+00
   2 B  -11.256   4.376  -4.243
   3 B    9.421  -7.561  -4.262
   4 B   -0.081   4.376  -4.243
   5 B    3.831   2.118  -4.243
   6 B    3.831   6.636  -4.262
   7 H   -8.052   0.327  -4.282
                                 91 S  
                                         1.874E+01 1.968E-02 0.000E+00 0.000E+00
                                         2.826E+00 1.380E-01 0.000E+00 0.000E+00
                                         6.401E-01 4.783E-01 0.000E+00 0.000E+00
                                 92 S  
                                         1.756E-01 1.000E+00 0.000E+00 0.000E+00
   8 H   -3.292   8.428  -4.288
   9 H   -2.386 -10.148   4.215
  10 H   -3.290   0.325  -4.289
  11 H   -7.597   7.139   4.282
  12 H    7.596  -7.126   4.288
  13 H    9.979  -3.005   4.289
  14 H   -9.975   3.014   4.289
  15 H   -7.596  -7.140   4.222
  16 H    1.928  -2.689  -4.288
  17 H    4.310  -6.812  -4.289
  18 H    8.944   1.362  -4.289
  19 C   -8.327   4.376  -4.263
                                115 S  
                                         3.624E+03 1.634E-03 0.000E+00 0.000E+00
                                         5.440E+02 1.252E-02 0.000E+00 0.000E+00
                                         1.237E+02 6.211E-02 0.000E+00 0.000E+00
                                         3.476E+01 2.182E-01 0.000E+00 0.000E+00
                                         1.093E+01 4.980E-01 0.000E+00 0.000E+00
                                116 S  
                                         3.574E+00 1.000E+00 0.000E+00 0.000E+00
                                117 S  
                                         7.742E-01 1.000E+00 0.000E+00 0.000E+00
                                118 S  
                                         2.330E-01 1.000E+00 0.000E+00 0.000E+00
                         119-   121 P  
                                         9.443E+00 0.000E+00 3.790E-02 0.000E+00
                                         2.002E+00 0.000E+00 2.082E-01 0.000E+00
                                         5.463E-01 0.000E+00 5.047E-01 0.000E+00
                         122-   124 P  
                                         1.820E-01 0.000E+00 1.000E+00 0.000E+00
                         125-   129 D  
                                         8.880E-01 0.000E+00 0.000E+00 1.000E+00
  20 C   -6.984   2.091  -4.281
  21 C   -4.356   6.661  -4.283
  22 C   -6.985   6.660  -4.278
  23 C   -4.355   2.092  -4.291
  24 C   -3.012   4.377  -4.278
  25 C    2.286   3.959 -12.745
  26 C   -9.659   7.096   4.281
  27 C    9.658  -7.090   4.283
  28 C   10.973  -4.813   4.278
  29 C  -10.973   4.819   4.291
  30 C    5.296   9.176  -4.226
  31 C    7.954  -5.025  -4.263
  32 C    9.262  -2.720  -4.281
  33 C    3.990  -2.728  -4.283
  34 C    5.305  -5.005  -4.278
  35 C    7.947  -0.443  -4.291
  36 C    5.297  -0.422  -4.278
  37 O    8.119  -9.818  -4.257
                                385 S  
                                         6.773E+03 1.727E-03 0.000E+00 0.000E+00
                                         1.017E+03 1.325E-02 0.000E+00 0.000E+00
                                         2.313E+02 6.603E-02 0.000E+00 0.000E+00
                                         6.501E+01 2.353E-01 0.000E+00 0.000E+00
                                         2.050E+01 5.498E-01 0.000E+00 0.000E+00
                                386 S  
                                         6.716E+00 1.000E+00 0.000E+00 0.000E+00
                                387 S  
                                         1.147E+00 1.000E+00 0.000E+00 0.000E+00
                                388 S  
                                         3.342E-01 1.000E+00 0.000E+00 0.000E+00
                         389-   391 P  
                                         1.769E+01 0.000E+00 4.359E-02 0.000E+00
                                         3.854E+00 0.000E+00 2.318E-01 0.000E+00
                                         1.047E+00 0.000E+00 5.146E-01 0.000E+00
                         392-   394 P  
                                         2.759E-01 0.000E+00 1.000E+00 0.000E+00
                         395-   399 D  
                                         8.000E-01 0.000E+00 0.000E+00 1.000E+00
  38 O  -12.561   2.119  -4.217
  39 O   -1.224  -2.120  12.730
  40 O    1.224   6.633  -4.257
  41 O    1.225   2.120  -4.217
  42 O    5.132   4.377  -4.277

 *******************************************************************************
 FINISHED BASIS SET HANDLING 
 *******************************************************************************

 INFORMATION **** SET_MPP **** PCRYSTAL CALCULATION
 INFORMATION **** READM2 **** NEW DEFAULT: FOCK/KS MATRIX MIXING SET TO 30 %
 INFORMATION **** READM2 **** NEW DEFAULT: FULL DIRECT SCF MODE
 INFORMATION **** READM2 **** NEW DEFAULT: COULOMB BIPOLAR BUFFER SET TO 32 Mb
 INFORMATION **** READM2 **** NEW DEFAULT: EXCHANGE BIPOLAR BUFFER SET TO 32 Mb

 *******************************************************************************
 NEW DEFAULT: DFT INTEGRATION GRID INCREASED TO XLGRID
 NEW DEFAULT: DIIS ACCELERATOR ACTIVE
 USE KEYWORD NODIIS TO TURN IT OFF
 *******************************************************************************

 WARNING **** RDDFTP **** HSEsol-HJS ACTIVE
 RANGE SEPARATION - OMEGA:   0.110000000000000     
 WARNING **** RDDFTP **** HSEsol-3c has to be combined with sol-def2-mSVP basis set
 *******************************************************************************
 N. OF ATOMS PER CELL        42  COULOMB OVERLAP TOL         (T1) 10**   -6
 NUMBER OF SHELLS           234  COULOMB PENETRATION TOL     (T2) 10**   -6
 NUMBER OF AO               474  EXCHANGE OVERLAP TOL        (T3) 10**   -6
 N. OF ELECTRONS PER CELL   198  EXCHANGE PSEUDO OVP (F(G))  (T4) 10**   -6
 CORE ELECTRONS PER CELL     60  EXCHANGE PSEUDO OVP (P(G))  (T5) 10**  -12
 N. OF SYMMETRY OPERATORS     1  POLE ORDER IN MONO ZONE                  4
 *******************************************************************************
 TYPE OF CALCULATION :  RESTRICTED CLOSED SHELL
 KOHN-SHAM HAMILTONIAN

 (EXCHANGE)[CORRELATION] FUNCTIONAL:(HSEsol GGA)[PBEsol]

 RANGE-SEPARATED HYBRID FUNCTIONAL 
 OMEGA (SHORT-RANGE)[LONG-RANGE]:(    0.1100)[    0.0000]

 HYBRID EXCHANGE - PERCENTAGE OF FOCK EXCHANGE    25.0000

 CAPPA:IS1  2;IS2  2;IS3  8; K PTS MONK NET  20; SYMMOPS:K SPACE   2;G SPACE   1

 *******************************************************************************
 MAX NUMBER OF SCF CYCLES      50  CONVERGENCE ON DELTAP        10**-16
 WEIGHT OF F(I) IN F(I+1)      30% CONVERGENCE ON ENERGY        10**- 6
 SHRINK. FACT.(MONKH.)    2  2  8  NUMBER OF K POINTS IN THE IBZ     20
 SHRINKING FACTOR(GILAT NET)    8  NUMBER OF K POINTS(GILAT NET)   1028
 *******************************************************************************
 *** K POINTS COORDINATES (OBLIQUE COORDINATES IN UNITS OF IS =  2)
   1-R(  0  0  0)   2-R(  1  0  0)   3-R(  0  1  0)   4-R(  1  1  0)
   5-C(  0  0  1)   6-C(  1  0  1)   7-C(  0  1  1)   8-C(  1  1  1)
   9-C(  0  0  2)  10-C(  1  0  2)  11-C(  0  1  2)  12-C(  1  1  2)
  13-C(  0  0  3)  14-C(  1  0  3)  15-C(  0  1  3)  16-C(  1  1  3)
  17-R(  0  0  4)  18-R(  1  0  4)  19-R(  0  1  4)  20-R(  1  1  4)

 DIRECT LATTICE VECTORS COMPON. (A.U.)     RECIP. LATTICE VECTORS COMPON. (A.U.) 
        X            Y            Z              X            Y            Z
   24.5879030  -14.1935232    0.0000000      0.2555397    0.0000000   -0.1703371
    0.0000000   28.3910867    0.0000000      0.1277517    0.2213084   -0.3407085
    5.6684688    9.8196565    8.5038348      0.0000000    0.0000000    0.7388649

 DISK SPACE FOR EIGENVECTORS (FTN 10)     7189632 REALS

 SYMMETRY ADAPTION OF THE BLOCH FUNCTIONS DISABLED
 TTTTTTTTTTTTTTTTTTTTTTTTTTTTTT gordsh1     TELAPSE        0.04 TCPU        0.04

 MATRIX SIZE: P(G)  269716, F(G)   53732, P(G) IRR  135827, F(G) IRR   54248
 MAX G-VECTOR INDEX FOR 1- AND 2-ELECTRON INTEGRALS  35

 TTTTTTTTTTTTTTTTTTTTTTTTTTTTTT INPUT       TELAPSE        0.36 TCPU        0.36

 NEIGHBORS OF THE NON-EQUIVALENT ATOMS

 N = NUMBER OF NEIGHBORS AT DISTANCE R
    ATOM  N     R/ANG      R/AU   NEIGHBORS (ATOM LABELS AND CELL INDICES)
   1 B    1     1.3791     2.6061   37 O    0 1-1
   1 B    1     1.3793     2.6065   38 O    1 1-1
   1 B    1     1.5503     2.9297   25 C    0 0 0
   1 B    1     2.3895     4.5155    3 B    0 1-1
   1 B    1     2.3898     4.5160    2 B    1 1-1
   1 B    1     2.5632     4.8437   26 C    1 1-2

   2 B    1     1.3793     2.6065   39 O    0 1-2
   2 B    1     1.3793     2.6065   38 O    0 0 0
   2 B    1     1.5504     2.9298   19 C    0 0 0
   2 B    1     2.3895     4.5156    3 B   -1 0 0
   2 B    1     2.3898     4.5160    1 B   -1-1 1
   2 B    1     2.5634     4.8440   22 C    0 0 0

   3 B    1     1.3791     2.6061   37 O    0 0 0
   3 B    1     1.3793     2.6064   39 O    1 1-2
   3 B    1     1.5502     2.9294   31 C    0 0 0
   3 B    1     2.3895     4.5155    1 B    0-1 1
   3 B    1     2.3895     4.5156    2 B    1 0 0
   3 B    1     2.5629     4.8433   32 C    0 0 0

   4 B    1     1.3795     2.6068   40 O    0 0 0
   4 B    1     1.3795     2.6070   41 O    0 0 0
   4 B    1     1.5513     2.9316   24 C    0 0 0
   4 B    1     2.3905     4.5174    6 B    0 0 0
   4 B    1     2.3905     4.5175    5 B    0 0 0
   4 B    1     2.5648     4.8468   23 C    0 0 0

   5 B    1     1.3795     2.6069   41 O    0 0 0
   5 B    1     1.3797     2.6072   42 O    0 0 0
   5 B    1     1.5516     2.9322   36 C    0 0 0
   5 B    1     2.3905     4.5175    4 B    0 0 0
   5 B    1     2.3911     4.5185    6 B    0 0 0
   5 B    1     2.5651     4.8473   35 C    0 0 0

   6 B    1     1.3795     2.6068   40 O    0 0 0
   6 B    1     1.3796     2.6071   42 O    0 0 0
   6 B    1     1.5516     2.9322   30 C    0 0 0
   6 B    1     2.3905     4.5174    4 B    0 0 0
   6 B    1     2.3911     4.5185    5 B    0 0 0
   6 B    1     2.5651     4.8473   29 C    1 1-1

   7 H    1     1.0913     2.0623   20 C    0 0 0
   7 H    1     2.1472     4.0576   19 C    0 0 0
   7 H    1     2.1680     4.0969   23 C    0 0 0
   7 H    1     2.5202     4.7625   10 H    0 0 0
   7 H    1     2.5676     4.8520   38 O    0 0 0
   7 H    1     2.7321     5.1630    2 B    0 0 0

   8 H    1     1.0914     2.0625   21 C    0 0 0
   8 H    1     2.1493     4.0616   24 C    0 0 0
   8 H    1     2.1666     4.0942   22 C    0 0 0
   8 H    1     2.5198     4.7618    9 H    0 1-1
   8 H    1     2.5720     4.8604   40 O    0 0 0
   8 H    1     2.7362     5.1707    4 B    0 0 0

   9 H    1     1.0914     2.0624   22 C    0-1 1
   9 H    1     2.1471     4.0575   19 C    0-1 1
   9 H    1     2.1680     4.0970   21 C    0-1 1
   9 H    1     2.5198     4.7618    8 H    0-1 1
   9 H    1     2.5665     4.8500   39 O    0 0-1
   9 H    1     2.7315     5.1618    2 B    0-1 1

  10 H    1     1.0915     2.0626   23 C    0 0 0
  10 H    1     2.1490     4.0610   24 C    0 0 0
  10 H    1     2.1669     4.0948   20 C    0 0 0
  10 H    1     2.5202     4.7625    7 H    0 0 0
  10 H    1     2.5712     4.8588   41 O    0 0 0
  10 H    1     2.7351     5.1686    4 B    0 0 0

  11 H    1     1.0913     2.0623   26 C    0 0 0
  11 H    1     2.1469     4.0571   25 C   -1-1 2
  11 H    1     2.1680     4.0968   29 C    0 0 0
  11 H    1     2.5198     4.7617   14 H    0 0 0
  11 H    1     2.5670     4.8510   38 O    0 0 1
  11 H    1     2.7310     5.1609    1 B   -1-1 2

  12 H    1     1.0914     2.0625   27 C    0 0 0
  12 H    1     2.1493     4.0617   30 C    0-1 1
  12 H    1     2.1664     4.0939   28 C    0 0 0
  12 H    1     2.5192     4.7606   13 H    0 0 0
  12 H    1     2.5735     4.8632   40 O    0-1 1
  12 H    1     2.7371     5.1723    6 B    0-1 1

  13 H    1     1.0914     2.0624   28 C    0 0 0
  13 H    1     2.1475     4.0581   25 C    0-1 2
  13 H    1     2.1679     4.0967   27 C    0 0 0
  13 H    1     2.5192     4.7606   12 H    0 0 0
  13 H    1     2.5675     4.8519   37 O    0 0 1
  13 H    1     2.7328     5.1643    1 B    0-1 2

  14 H    1     1.0914     2.0625   29 C    0 0 0
  14 H    1     2.1491     4.0612   30 C   -1-1 1
  14 H    1     2.1666     4.0942   26 C    0 0 0
  14 H    1     2.5198     4.7617   11 H    0 0 0
  14 H    1     2.5723     4.8609   42 O   -1-1 1
  14 H    1     2.7355     5.1693    6 B   -1-1 1

  15 H    1     1.0914     2.0624   32 C   -1-1 1
  15 H    1     2.1475     4.0582   31 C   -1-1 1
  15 H    1     2.1678     4.0966   35 C   -1-1 1
  15 H    1     2.5200     4.7621   18 H   -1-1 1
  15 H    1     2.5667     4.8503   39 O    0 0-1
  15 H    1     2.7315     5.1618    3 B   -1-1 1

  16 H    1     1.0913     2.0623   33 C    0 0 0
  16 H    1     2.1487     4.0605   36 C    0 0 0
  16 H    1     2.1667     4.0945   34 C    0 0 0
  16 H    1     2.5197     4.7616   17 H    0 0 0
  16 H    1     2.5723     4.8610   41 O    0 0 0
  16 H    1     2.7359     5.1701    5 B    0 0 0

  17 H    1     1.0915     2.0626   34 C    0 0 0
  17 H    1     2.1479     4.0589   31 C    0 0 0
  17 H    1     2.1679     4.0968   33 C    0 0 0
  17 H    1     2.5197     4.7616   16 H    0 0 0
  17 H    1     2.5677     4.8522   37 O    0 0 0
  17 H    1     2.7331     5.1648    3 B    0 0 0

  18 H    1     1.0914     2.0624   35 C    0 0 0
  18 H    1     2.1486     4.0602   36 C    0 0 0
  18 H    1     2.1668     4.0947   32 C    0 0 0
  18 H    1     2.5200     4.7621   15 H    1 1-1
  18 H    1     2.5717     4.8598   42 O    0 0 0
  18 H    1     2.7349     5.1682    5 B    0 0 0

  19 C    1     1.4020     2.6495   22 C    0 0 0
  19 C    1     1.4021     2.6495   20 C    0 0 0
  19 C    1     1.5504     2.9298    2 B    0 0 0
  19 C    1     2.1471     4.0575    9 H    0 1-1
  19 C    1     2.1472     4.0576    7 H    0 0 0
  19 C    1     2.4246     4.5817   21 C    0 0 0

  20 C    1     1.0913     2.0623    7 H    0 0 0
  20 C    1     1.3914     2.6294   23 C    0 0 0
  20 C    1     1.4021     2.6495   19 C    0 0 0
  20 C    1     2.1669     4.0948   10 H    0 0 0
  20 C    1     2.4177     4.5688   22 C    0 0 0
  20 C    1     2.4250     4.5825   24 C    0 0 0

  21 C    1     1.0914     2.0625    8 H    0 0 0
  21 C    1     1.3914     2.6293   22 C    0 0 0
  21 C    1     1.4026     2.6505   24 C    0 0 0
  21 C    1     2.1680     4.0970    9 H    0 1-1
  21 C    1     2.4182     4.5697   23 C    0 0 0
  21 C    1     2.4246     4.5817   19 C    0 0 0

  22 C    1     1.0914     2.0624    9 H    0 1-1
  22 C    1     1.3914     2.6293   21 C    0 0 0
  22 C    1     1.4020     2.6495   19 C    0 0 0
  22 C    1     2.1666     4.0942    8 H    0 0 0
  22 C    1     2.4177     4.5688   20 C    0 0 0
  22 C    1     2.4250     4.5826   24 C    0 0 0

  23 C    1     1.0915     2.0626   10 H    0 0 0
  23 C    1     1.3914     2.6294   20 C    0 0 0
  23 C    1     1.4025     2.6504   24 C    0 0 0
  23 C    1     2.1680     4.0969    7 H    0 0 0
  23 C    1     2.4182     4.5697   21 C    0 0 0
  23 C    1     2.4246     4.5818   19 C    0 0 0

  24 C    1     1.4025     2.6504   23 C    0 0 0
  24 C    1     1.4026     2.6505   21 C    0 0 0
  24 C    1     1.5513     2.9316    4 B    0 0 0
  24 C    1     2.1490     4.0610   10 H    0 0 0
  24 C    1     2.1493     4.0616    8 H    0 0 0
  24 C    1     2.4250     4.5825   20 C    0 0 0

  25 C    1     1.4020     2.6494   26 C    1 1-2
  25 C    1     1.4021     2.6495   28 C    0 1-2
  25 C    1     1.5503     2.9297    1 B    0 0 0
  25 C    1     2.1469     4.0571   11 H    1 1-2
  25 C    1     2.1475     4.0581   13 H    0 1-2
  25 C    1     2.4246     4.5818   27 C    0 1-2

  26 C    1     1.0913     2.0623   11 H    0 0 0
  26 C    1     1.3914     2.6293   29 C    0 0 0
  26 C    1     1.4020     2.6494   25 C   -1-1 2
  26 C    1     2.1666     4.0942   14 H    0 0 0
  26 C    1     2.4175     4.5684   28 C   -1 0 0
  26 C    1     2.4251     4.5828   30 C   -1-1 1

  27 C    1     1.0914     2.0625   12 H    0 0 0
  27 C    1     1.3915     2.6295   28 C    0 0 0
  27 C    1     1.4026     2.6505   30 C    0-1 1
  27 C    1     2.1679     4.0967   13 H    0 0 0
  27 C    1     2.4179     4.5691   29 C    1 0 0
  27 C    1     2.4246     4.5818   25 C    0-1 2

  28 C    1     1.0914     2.0624   13 H    0 0 0
  28 C    1     1.3915     2.6295   27 C    0 0 0
  28 C    1     1.4021     2.6495   25 C    0-1 2
  28 C    1     2.1664     4.0939   12 H    0 0 0
  28 C    1     2.4175     4.5684   26 C    1 0 0
  28 C    1     2.4253     4.5832   30 C    0-1 1

  29 C    1     1.0914     2.0625   14 H    0 0 0
  29 C    1     1.3914     2.6293   26 C    0 0 0
  29 C    1     1.4025     2.6504   30 C   -1-1 1
  29 C    1     2.1680     4.0968   11 H    0 0 0
  29 C    1     2.4179     4.5691   27 C   -1 0 0
  29 C    1     2.4247     4.5819   25 C   -1-1 2

  30 C    1     1.4025     2.6504   29 C    1 1-1
  30 C    1     1.4026     2.6505   27 C    0 1-1
  30 C    1     1.5516     2.9322    6 B    0 0 0
  30 C    1     2.1491     4.0612   14 H    1 1-1
  30 C    1     2.1493     4.0617   12 H    0 1-1
  30 C    1     2.4251     4.5828   26 C    1 1-1

  31 C    1     1.4021     2.6496   32 C    0 0 0
  31 C    1     1.4021     2.6497   34 C    0 0 0
  31 C    1     1.5502     2.9294    3 B    0 0 0
  31 C    1     2.1475     4.0582   15 H    1 1-1
  31 C    1     2.1479     4.0589   17 H    0 0 0
  31 C    1     2.4244     4.5814   33 C    0 0 0

  32 C    1     1.0914     2.0624   15 H    1 1-1
  32 C    1     1.3914     2.6293   35 C    0 0 0
  32 C    1     1.4021     2.6496   31 C    0 0 0
  32 C    1     2.1668     4.0947   18 H    0 0 0
  32 C    1     2.4179     4.5692   34 C    0 0 0
  32 C    1     2.4251     4.5827   36 C    0 0 0

  33 C    1     1.0913     2.0623   16 H    0 0 0
  33 C    1     1.3914     2.6294   34 C    0 0 0
  33 C    1     1.4025     2.6504   36 C    0 0 0
  33 C    1     2.1679     4.0968   17 H    0 0 0
  33 C    1     2.4178     4.5690   35 C    0 0 0
  33 C    1     2.4244     4.5814   31 C    0 0 0

  34 C    1     1.0915     2.0626   17 H    0 0 0
  34 C    1     1.3914     2.6294   33 C    0 0 0
  34 C    1     1.4021     2.6497   31 C    0 0 0
  34 C    1     2.1667     4.0945   16 H    0 0 0
  34 C    1     2.4179     4.5692   32 C    0 0 0
  34 C    1     2.4253     4.5832   36 C    0 0 0

  35 C    1     1.0914     2.0624   18 H    0 0 0
  35 C    1     1.3914     2.6293   32 C    0 0 0
  35 C    1     1.4025     2.6503   36 C    0 0 0
  35 C    1     2.1678     4.0966   15 H    1 1-1
  35 C    1     2.4178     4.5690   33 C    0 0 0
  35 C    1     2.4245     4.5817   31 C    0 0 0

  36 C    1     1.4025     2.6503   35 C    0 0 0
  36 C    1     1.4025     2.6504   33 C    0 0 0
  36 C    1     1.5516     2.9322    5 B    0 0 0
  36 C    1     2.1486     4.0602   18 H    0 0 0
  36 C    1     2.1487     4.0605   16 H    0 0 0
  36 C    1     2.4251     4.5827   32 C    0 0 0

  37 O    1     1.3791     2.6061    1 B    0-1 1
  37 O    1     1.3791     2.6061    3 B    0 0 0
  37 O    1     2.3880     4.5126   38 O    1 0 0
  37 O    1     2.3882     4.5130   39 O    1 1-2
  37 O    1     2.5383     4.7966   31 C    0 0 0
  37 O    1     2.5384     4.7968   25 C    0-1 1

  38 O    1     1.3793     2.6065    1 B   -1-1 1
  38 O    1     1.3793     2.6065    2 B    0 0 0
  38 O    1     2.3880     4.5126   37 O   -1 0 0
  38 O    1     2.3882     4.5131   39 O    0 1-2
  38 O    1     2.5391     4.7981   19 C    0 0 0
  38 O    1     2.5395     4.7990   25 C   -1-1 1

  39 O    1     1.3793     2.6064    3 B   -1-1 2
  39 O    1     1.3793     2.6065    2 B    0-1 2
  39 O    1     2.3882     4.5130   37 O   -1-1 2
  39 O    1     2.3882     4.5131   38 O    0-1 2
  39 O    1     2.5390     4.7980   19 C    0-1 2
  39 O    1     2.5391     4.7982   31 C   -1-1 2

  40 O    1     1.3795     2.6068    6 B    0 0 0
  40 O    1     1.3795     2.6068    4 B    0 0 0
  40 O    1     2.3880     4.5126   42 O    0 0 0
  40 O    1     2.3884     4.5134   41 O    0 0 0
  40 O    1     2.5400     4.7998   24 C    0 0 0
  40 O    1     2.5403     4.8005   30 C    0 0 0

  41 O    1     1.3795     2.6069    5 B    0 0 0
  41 O    1     1.3795     2.6070    4 B    0 0 0
  41 O    1     2.3881     4.5128   42 O    0 0 0
  41 O    1     2.3884     4.5134   40 O    0 0 0
  41 O    1     2.5404     4.8006   24 C    0 0 0
  41 O    1     2.5405     4.8008   36 C    0 0 0

  42 O    1     1.3796     2.6071    6 B    0 0 0
  42 O    1     1.3797     2.6072    5 B    0 0 0
  42 O    1     2.3880     4.5126   40 O    0 0 0
  42 O    1     2.3881     4.5128   41 O    0 0 0
  42 O    1     2.5409     4.8016   36 C    0 0 0
  42 O    1     2.5410     4.8019   30 C    0 0 0


 SYMMETRY ALLOWED INTERNAL DEGREE(S) OF FREEDOM: 123
 TTTTTTTTTTTTTTTTTTTTTTTTTTTTTT SYMM        TELAPSE        0.36 TCPU        0.36
 TTTTTTTTTTTTTTTTTTTTTTTTTTTTTT INT_SCREEN  TELAPSE        0.39 TCPU        0.39

 DFT PARAMETERS

     ATOM       ELECTRONS   NET CHARGE   R(ANGSTROM)
   1   5  B       5.0000      0.0000     0.89000000
   7   1  H       1.0000      0.0000     1.11000000
  19   6  C       6.0000      0.0000     0.77000000
  37   8  O       8.0000      0.0000     0.74000000

 SIZE OF GRID=    1343165
 TTTTTTTTTTTTTTTTTTTTTTTTTTTTTT MAKE_GRID2  TELAPSE        7.23 TCPU        7.22
 BECKE WEIGHT FUNCTION
 RADSAFE =     2.00
 TOLERANCES - DENSITY:10**- 6; POTENTIAL:10**- 9; GRID WGT:10**-14

 RADIAL INTEGRATION  - INTERVALS (POINTS,UPPER LIMIT):            1( 75,  4.0*R)

 ANGULAR INTEGRATION - INTERVALS (ACCURACY LEVEL [N. POINTS] UPPER LIMIT):
  1(  4[  86]   0.2)  2(  8[ 194]   0.5)  3( 12[ 350]   0.9)  4( 16[ 974]   3.5)
  5( 12[ 350]9999.0)
 TTTTTTTTTTTTTTTTTTTTTTTTTTTTTT INT_CALC    TELAPSE        7.29 TCPU        7.29
 EEEEEEEEEE INT_CALC TERMINATION  DATE 19 02 2026 TIME 19:23:51.4

 *******************************************************************************
 cof-1_z45_L060_incl                                                             
 CRYSTAL - SCF - TYPE OF CALCULATION :  RESTRICTED CLOSED SHELL
 *******************************************************************************

 CAPPA:IS1  2;IS2  2;IS3  8; K PTS MONK NET  20; SYMMOPS:K SPACE   2;G SPACE   1

 TTTTTTTTTTTTTTTTTTTTTTTTTTTTTT SDIK        TELAPSE        7.91 TCPU       14.06

 AAAAAAAAAAAAAAAAAAAAAAAAAAAAAAAAAAAAAAAAAAAAAAAAAAAAAAAAAAAAAAAAAAAAAAAAAAAAAAA
         ATOMIC WAVEFUNCTION(S)


 NUCLEAR CHARGE  5.0  SYMMETRY SPECIES            S    P
 N. ELECTRONS    5.0  NUMBER OF PRIMITIVE GTOS    8    4
                      NUMBER OF CONTRACTED GTOS   4    2
                      NUMBER OF CLOSED SHELLS     2    0
                      OPEN SHELL OCCUPATION       0    1

  ZNUC  SCFIT    TOTAL HF ENERGY   KINETIC ENERGY   VIRIAL THEOREM ACCURACY
   5.0    11    -2.451164084E+01  2.462155050E+01 -1.995536038E+00  1.5E-06

 NUCLEAR CHARGE  1.0  SYMMETRY SPECIES            S
 N. ELECTRONS    1.0  NUMBER OF PRIMITIVE GTOS    4
                      NUMBER OF CONTRACTED GTOS   2
                      NUMBER OF CLOSED SHELLS     0
                      OPEN SHELL OCCUPATION       1

  ZNUC  SCFIT    TOTAL HF ENERGY   KINETIC ENERGY   VIRIAL THEOREM ACCURACY
   1.0     1    -4.977266687E-01  5.190767460E-01 -1.958869132E+00  0.0E+00

 NUCLEAR CHARGE  6.0  SYMMETRY SPECIES            S    P
 N. ELECTRONS    6.0  NUMBER OF PRIMITIVE GTOS    8    4
                      NUMBER OF CONTRACTED GTOS   4    2
                      NUMBER OF CLOSED SHELLS     2    0
                      OPEN SHELL OCCUPATION       0    2

  ZNUC  SCFIT    TOTAL HF ENERGY   KINETIC ENERGY   VIRIAL THEOREM ACCURACY
   6.0     9    -3.766704647E+01  3.775180683E+01 -1.997754800E+00  1.1E-06

 NUCLEAR CHARGE  8.0  SYMMETRY SPECIES            S    P
 N. ELECTRONS    8.0  NUMBER OF PRIMITIVE GTOS    8    4
                      NUMBER OF CONTRACTED GTOS   4    2
                      NUMBER OF CLOSED SHELLS     2    0
                      OPEN SHELL OCCUPATION       0    4

  ZNUC  SCFIT    TOTAL HF ENERGY   KINETIC ENERGY   VIRIAL THEOREM ACCURACY
   8.0    12    -7.477373220E+01  7.477365593E+01 -2.000001020E+00  3.8E-06

 AAAAAAAAAAAAAAAAAAAAAAAAAAAAAAAAAAAAAAAAAAAAAAAAAAAAAAAAAAAAAAAAAAAAAAAAAAAAAAA

 CHARGE NORMALIZATION FACTOR   1.00000000
 TOTAL ATOMIC CHARGES:
   5.0000000   5.0000000   5.0000000   5.0000000   5.0000000   5.0000000
   1.0000000   1.0000000   1.0000000   1.0000000   1.0000000   1.0000000
   1.0000000   1.0000000   1.0000000   1.0000000   1.0000000   1.0000000
   6.0000000   6.0000000   6.0000000   6.0000000   6.0000000   6.0000000
   6.0000000   6.0000000   6.0000000   6.0000000   6.0000000   6.0000000
   6.0000000   6.0000000   6.0000000   6.0000000   6.0000000   6.0000000
   8.0000000   8.0000000   8.0000000   8.0000000   8.0000000   8.0000000
 TTTTTTTTTTTTTTTTTTTTTTTTTTTTTT MOQGAD      TELAPSE        7.95 TCPU       14.99
 TTTTTTTTTTTTTTTTTTTTTTTTTTTTTT SHELLXN     TELAPSE       12.70 TCPU      156.92
 TTTTTTTTTTTTTTTTTTTTTTTTTTTTTT MONMO3      TELAPSE       12.82 TCPU      160.81
 NUMERICALLY INTEGRATED DENSITY    197.9999639949
 TTTTTTTTTTTTTTTTTTTTTTTTTTTTTT NUMDFT      TELAPSE       13.35 TCPU      177.81
 CYC   0 ETOT(AU) -1.295953884892E+03 DETOT -1.30E+03 tst  0.00E+00 PX  1.00E+00
 TTTTTTTTTTTTTTTTTTTTTTTTTTTTTT DIIS        TELAPSE       13.40 TCPU      179.22
 TTTTTTTTTTTTTTTTTTTTTTTTTTTTTT FDIK        TELAPSE       13.97 TCPU      197.39
 INSULATING STATE
 TOP OF VALENCE BANDS -    BAND     99; K    1; EIG -3.1490621E-01 AU
 BOTTOM OF VIRTUAL BANDS - BAND    100; K   17; EIG -1.5745522E-01 AU
 INDIRECT ENERGY BAND GAP:   4.2845 eV
 BOTTOM OF VIRTUAL BANDS - BAND    100; K    1; EIG -1.5538481E-01 AU
 TTTTTTTTTTTTTTTTTTTTTTTTTTTTTT PDIG        TELAPSE       14.28 TCPU      203.55
 CHARGE NORMALIZATION FACTOR   1.00000000
 TOTAL ATOMIC CHARGES:
   4.1635984   4.1668761   4.1671125   4.1667270   4.1664940   4.1632765
   0.7850683   0.7851839   0.7850091   0.7851307   0.7851404   0.7853057
   0.7851294   0.7852664   0.7850109   0.7851962   0.7850200   0.7851773
   6.0429239   6.2651641   6.2651375   6.2650916   6.2650541   6.0422328
   6.0431931   6.2648201   6.2649056   6.2647302   6.2649128   6.0419833
   6.0432920   6.2648546   6.2654226   6.2647923   6.2654177   6.0417724
   8.6912436   8.6913831   8.6909835   8.6916846   8.6914026   8.6918794
 TTTTTTTTTTTTTTTTTTTTTTTTTTTTTT MOQGAD      TELAPSE       14.32 TCPU      203.59
 TTTTTTTTTTTTTTTTTTTTTTTTTTTTTT SHELLXN     TELAPSE       18.93 TCPU      350.23
 TTTTTTTTTTTTTTTTTTTTTTTTTTTTTT MONMO3      TELAPSE       19.05 TCPU      354.10
 NUMERICALLY INTEGRATED DENSITY    197.9999810190
 TTTTTTTTTTTTTTTTTTTTTTTTTTTTTT NUMDFT      TELAPSE       19.60 TCPU      371.52
 CYC   1 ETOT(AU) -1.288810417299E+03 DETOT  7.14E+00 tst  0.00E+00 PX  1.00E+00
 TTTTTTTTTTTTTTTTTTTTTTTTTTTTTT DIIS        TELAPSE       19.66 TCPU      373.41
 DIIS TEST: 0.11104E+01 AT SCF   CYCLE   1 - MIX   30 %
 TTTTTTTTTTTTTTTTTTTTTTTTTTTTTT FDIK        TELAPSE       20.23 TCPU      391.80
 INSULATING STATE
 TOP OF VALENCE BANDS -    BAND     99; K    1; EIG -2.2756463E-01 AU
 BOTTOM OF VIRTUAL BANDS - BAND    100; K   17; EIG -8.1192360E-02 AU
 INDIRECT ENERGY BAND GAP:   3.9830 eV
 BOTTOM OF VIRTUAL BANDS - BAND    100; K    1; EIG -7.7287734E-02 AU
 TTTTTTTTTTTTTTTTTTTTTTTTTTTTTT PDIG        TELAPSE       20.55 TCPU      397.96
 CHARGE NORMALIZATION FACTOR   1.00000000
 TOTAL ATOMIC CHARGES:
   4.7124288   4.7056691   4.7059130   4.7059332   4.7058599   4.7127592
   0.9092968   0.9093783   0.9120715   0.9120933   0.9066525   0.9066753
   0.9067246   0.9066107   0.9120430   0.9121668   0.9093187   0.9093430
   5.8664187   6.1376710   6.1382475   6.1337964   6.1340406   5.8687376
   5.8775538   6.1313241   6.1318859   6.1316673   6.1315758   5.8808340
   5.8663108   6.1337297   6.1341242   6.1380700   6.1377263   5.8687788
   8.3332321   8.3334687   8.3319010   8.3331074   8.3315468   8.3333137
 TTTTTTTTTTTTTTTTTTTTTTTTTTTTTT MOQGAD      TELAPSE       20.58 TCPU      398.00
 TTTTTTTTTTTTTTTTTTTTTTTTTTTTTT SHELLXN     TELAPSE       25.19 TCPU      544.59
 TTTTTTTTTTTTTTTTTTTTTTTTTTTTTT MONMO3      TELAPSE       25.32 TCPU      548.45
 NUMERICALLY INTEGRATED DENSITY    197.9999718483
 TTTTTTTTTTTTTTTTTTTTTTTTTTTTTT NUMDFT      TELAPSE       25.86 TCPU      565.74
 CYC   2 ETOT(AU) -1.289006009054E+03 DETOT -1.96E-01 tst  4.06E-03 PX  1.58E-01
 TTTTTTTTTTTTTTTTTTTTTTTTTTTTTT DIIS        TELAPSE       25.91 TCPU      567.47
 DIIS TEST: 0.45722E+00 AT SCF   CYCLE   2 - DIIS ACTIVE - HISTORY:     2 CYCLES
 TTTTTTTTTTTTTTTTTTTTTTTTTTTTTT FDIK        TELAPSE       26.45 TCPU      584.73
 INSULATING STATE
 TOP OF VALENCE BANDS -    BAND     99; K    1; EIG -2.4037699E-01 AU
 BOTTOM OF VIRTUAL BANDS - BAND    100; K   17; EIG -7.6380098E-02 AU
 INDIRECT ENERGY BAND GAP:   4.4626 eV
 BOTTOM OF VIRTUAL BANDS - BAND    100; K    1; EIG -7.2902846E-02 AU
 TTTTTTTTTTTTTTTTTTTTTTTTTTTTTT PDIG        TELAPSE       26.78 TCPU      590.90
 CHARGE NORMALIZATION FACTOR   1.00000000
 TOTAL ATOMIC CHARGES:
   4.5046689   4.5023035   4.5024893   4.5023315   4.5021258   4.5046440
   0.8877593   0.8880066   0.8899413   0.8899937   0.8852771   0.8855617
   0.8853972   0.8854381   0.8898872   0.8900847   0.8878434   0.8878864
   5.8915359   6.1602946   6.1599760   6.1589155   6.1586412   5.8911878
   5.8910470   6.1611313   6.1604976   6.1609976   6.1605974   5.8903704
   5.8916682   6.1588957   6.1587310   6.1600549   6.1601410   5.8909982
   8.5097643   8.5100191   8.5112105   8.5100204   8.5113684   8.5102962
 TTTTTTTTTTTTTTTTTTTTTTTTTTTTTT MOQGAD      TELAPSE       26.82 TCPU      590.94
 TTTTTTTTTTTTTTTTTTTTTTTTTTTTTT SHELLXN     TELAPSE       31.41 TCPU      737.02
 TTTTTTTTTTTTTTTTTTTTTTTTTTTTTT MONMO3      TELAPSE       31.53 TCPU      740.86
 NUMERICALLY INTEGRATED DENSITY    197.9999737938
 TTTTTTTTTTTTTTTTTTTTTTTTTTTTTT NUMDFT      TELAPSE       32.05 TCPU      757.48
 CYC   3 ETOT(AU) -1.289100526563E+03 DETOT -9.45E-02 tst  7.23E-04 PX  6.37E-02
 TTTTTTTTTTTTTTTTTTTTTTTTTTTTTT DIIS        TELAPSE       32.11 TCPU      759.39
 DIIS TEST: 0.13479E-01 AT SCF   CYCLE   3 - DIIS ACTIVE - HISTORY:     3 CYCLES
 TTTTTTTTTTTTTTTTTTTTTTTTTTTTTT FDIK        TELAPSE       32.63 TCPU      776.19
 INSULATING STATE
 TOP OF VALENCE BANDS -    BAND     99; K    1; EIG -2.5045552E-01 AU
 BOTTOM OF VIRTUAL BANDS - BAND    100; K   17; EIG -8.4953390E-02 AU
 INDIRECT ENERGY BAND GAP:   4.5035 eV
 BOTTOM OF VIRTUAL BANDS - BAND    100; K    1; EIG -8.0971260E-02 AU
 TTTTTTTTTTTTTTTTTTTTTTTTTTTTTT PDIG        TELAPSE       32.95 TCPU      782.35
 CHARGE NORMALIZATION FACTOR   1.00000000
 TOTAL ATOMIC CHARGES:
   4.5103478   4.5071956   4.5073879   4.5072042   4.5070110   4.5103538
   0.8705378   0.8706529   0.8726598   0.8726979   0.8679504   0.8680197
   0.8680138   0.8679518   0.8726585   0.8727596   0.8705653   0.8706001
   5.9373433   6.1685678   6.1690085   6.1658734   6.1663095   5.9389729
   5.9442864   6.1656964   6.1662114   6.1659328   6.1659352   5.9463932
   5.9374785   6.1656483   6.1665622   6.1687306   6.1687562   5.9387867
   8.4768769   8.4770208   8.4755489   8.4769069   8.4755202   8.4770651
 TTTTTTTTTTTTTTTTTTTTTTTTTTTTTT MOQGAD      TELAPSE       32.99 TCPU      782.39
 TTTTTTTTTTTTTTTTTTTTTTTTTTTTTT SHELLXN     TELAPSE       37.62 TCPU      929.37
 TTTTTTTTTTTTTTTTTTTTTTTTTTTTTT MONMO3      TELAPSE       37.74 TCPU      933.25
 NUMERICALLY INTEGRATED DENSITY    197.9999741399
 TTTTTTTTTTTTTTTTTTTTTTTTTTTTTT NUMDFT      TELAPSE       38.28 TCPU      950.65
 CYC   4 ETOT(AU) -1.289103369014E+03 DETOT -2.84E-03 tst  2.55E-05 PX  1.38E-02
 TTTTTTTTTTTTTTTTTTTTTTTTTTTTTT DIIS        TELAPSE       38.36 TCPU      953.06
 DIIS TEST: 0.40612E-02 AT SCF   CYCLE   4 - DIIS ACTIVE - HISTORY:     4 CYCLES
 TTTTTTTTTTTTTTTTTTTTTTTTTTTTTT FDIK        TELAPSE       38.92 TCPU      971.14
 INSULATING STATE
 TOP OF VALENCE BANDS -    BAND     99; K    1; EIG -2.4845649E-01 AU
 BOTTOM OF VIRTUAL BANDS - BAND    100; K   17; EIG -8.4584310E-02 AU
 INDIRECT ENERGY BAND GAP:   4.4592 eV
 BOTTOM OF VIRTUAL BANDS - BAND    100; K    1; EIG -8.0790474E-02 AU
 TTTTTTTTTTTTTTTTTTTTTTTTTTTTTT PDIG        TELAPSE       39.24 TCPU      977.31
 CHARGE NORMALIZATION FACTOR   1.00000000
 TOTAL ATOMIC CHARGES:
   4.5128479   4.5088996   4.5091190   4.5090082   4.5088110   4.5129267
   0.8737263   0.8739289   0.8759460   0.8760407   0.8711162   0.8713502
   0.8712191   0.8712450   0.8759059   0.8761307   0.8737879   0.8738399
   5.9207080   6.1680785   6.1679558   6.1658465   6.1655548   5.9207250
   5.9251027   6.1664425   6.1659739   6.1663793   6.1660085   5.9252269
   5.9207628   6.1657966   6.1656562   6.1679623   6.1679866   5.9205976
   8.4866360   8.4868838   8.4870144   8.4867916   8.4870028   8.4870575
 TTTTTTTTTTTTTTTTTTTTTTTTTTTTTT MOQGAD      TELAPSE       39.27 TCPU      977.34
 TTTTTTTTTTTTTTTTTTTTTTTTTTTTTT SHELLXN     TELAPSE       43.90 TCPU     1124.45
 TTTTTTTTTTTTTTTTTTTTTTTTTTTTTT MONMO3      TELAPSE       44.02 TCPU     1128.34
 NUMERICALLY INTEGRATED DENSITY    197.9999741880
 TTTTTTTTTTTTTTTTTTTTTTTTTTTTTT NUMDFT      TELAPSE       44.57 TCPU     1145.73
 CYC   5 ETOT(AU) -1.289104298636E+03 DETOT -9.30E-04 tst  6.99E-06 PX  6.47E-03
 TTTTTTTTTTTTTTTTTTTTTTTTTTTTTT DIIS        TELAPSE       44.65 TCPU     1148.41
 DIIS TEST: 0.58433E-04 AT SCF   CYCLE   5 - DIIS ACTIVE - HISTORY:     5 CYCLES
 TTTTTTTTTTTTTTTTTTTTTTTTTTTTTT FDIK        TELAPSE       45.22 TCPU     1166.60
 INSULATING STATE
 TOP OF VALENCE BANDS -    BAND     99; K    1; EIG -2.4825811E-01 AU
 BOTTOM OF VIRTUAL BANDS - BAND    100; K   17; EIG -8.4008108E-02 AU
 INDIRECT ENERGY BAND GAP:   4.4695 eV
 BOTTOM OF VIRTUAL BANDS - BAND    100; K    1; EIG -8.0303289E-02 AU
 TTTTTTTTTTTTTTTTTTTTTTTTTTTTTT PDIG        TELAPSE       45.54 TCPU     1172.76
 CHARGE NORMALIZATION FACTOR   1.00000000
 TOTAL ATOMIC CHARGES:
   4.5124129   4.5090331   4.5092314   4.5090102   4.5088234   4.5123796
   0.8746206   0.8747593   0.8768302   0.8768389   0.8721102   0.8721992
   0.8721774   0.8721307   0.8768141   0.8769037   0.8746542   0.8746972
   5.9199329   6.1673686   6.1676764   6.1649456   6.1654657   5.9214132
   5.9237805   6.1656294   6.1660531   6.1658401   6.1658054   5.9253989
   5.9201110   6.1647642   6.1656963   6.1674669   6.1674929   5.9211738
   8.4864482   8.4865969   8.4859894   8.4865353   8.4860906   8.4866985
 TTTTTTTTTTTTTTTTTTTTTTTTTTTTTT MOQGAD      TELAPSE       45.58 TCPU     1172.80
 TTTTTTTTTTTTTTTTTTTTTTTTTTTTTT SHELLXN     TELAPSE       50.18 TCPU     1319.30
 TTTTTTTTTTTTTTTTTTTTTTTTTTTTTT MONMO3      TELAPSE       50.30 TCPU     1323.18
 NUMERICALLY INTEGRATED DENSITY    197.9999741411
 TTTTTTTTTTTTTTTTTTTTTTTTTTTTTT NUMDFT      TELAPSE       50.85 TCPU     1340.46
 CYC   6 ETOT(AU) -1.289104315953E+03 DETOT -1.73E-05 tst  1.36E-07 PX  7.74E-04
 TTTTTTTTTTTTTTTTTTTTTTTTTTTTTT DIIS        TELAPSE       50.92 TCPU     1342.79
 DIIS TEST: 0.39993E-05 AT SCF   CYCLE   6 - DIIS ACTIVE - HISTORY:     6 CYCLES
 TTTTTTTTTTTTTTTTTTTTTTTTTTTTTT FDIK        TELAPSE       51.49 TCPU     1360.87
 INSULATING STATE
 TOP OF VALENCE BANDS -    BAND     99; K    1; EIG -2.4825224E-01 AU
 BOTTOM OF VIRTUAL BANDS - BAND    100; K   17; EIG -8.4099955E-02 AU
 INDIRECT ENERGY BAND GAP:   4.4668 eV
 BOTTOM OF VIRTUAL BANDS - BAND    100; K    1; EIG -8.0341078E-02 AU
 TTTTTTTTTTTTTTTTTTTTTTTTTTTTTT PDIG        TELAPSE       51.80 TCPU     1367.03
 CHARGE NORMALIZATION FACTOR   1.00000000
 TOTAL ATOMIC CHARGES:
   4.5126928   4.5089827   4.5091963   4.5091048   4.5089045   4.5127739
   0.8745730   0.8747764   0.8767770   0.8768882   0.8719720   0.8722174
   0.8720810   0.8721064   0.8767380   0.8769765   0.8746382   0.8746833
   5.9208251   6.1674192   6.1672944   6.1652727   6.1648306   5.9206727
   5.9251540   6.1658119   6.1652741   6.1657155   6.1653385   5.9252190
   5.9208575   6.1652154   6.1649379   6.1672847   6.1673444   5.9205738
   8.4862515   8.4865099   8.4865298   8.4864180   8.4864713   8.4866958
 TTTTTTTTTTTTTTTTTTTTTTTTTTTTTT MOQGAD      TELAPSE       51.84 TCPU     1367.07
 TTTTTTTTTTTTTTTTTTTTTTTTTTTTTT SHELLXN     TELAPSE       56.44 TCPU     1513.56
 TTTTTTTTTTTTTTTTTTTTTTTTTTTTTT MONMO3      TELAPSE       56.56 TCPU     1517.45
 NUMERICALLY INTEGRATED DENSITY    197.9999741437
 TTTTTTTTTTTTTTTTTTTTTTTTTTTTTT NUMDFT      TELAPSE       57.10 TCPU     1534.49
 CYC   7 ETOT(AU) -1.289104315919E+03 DETOT  3.37E-08 tst  2.13E-08 PX  2.78E-04
 TTTTTTTTTTTTTTTTTTTTTTTTTTTTTT DIIS        TELAPSE       57.19 TCPU     1537.42
 DIIS TEST: 0.13647E-05 AT SCF   CYCLE   7 - DIIS ACTIVE - HISTORY:     7 CYCLES
 TTTTTTTTTTTTTTTTTTTTTTTTTTTTTT FDIK        TELAPSE       57.74 TCPU     1554.93
 INSULATING STATE
 TOP OF VALENCE BANDS -    BAND     99; K    1; EIG -2.4826347E-01 AU
 BOTTOM OF VIRTUAL BANDS - BAND    100; K   17; EIG -8.4102108E-02 AU
 INDIRECT ENERGY BAND GAP:   4.4671 eV
 BOTTOM OF VIRTUAL BANDS - BAND    100; K    1; EIG -8.0347953E-02 AU
 TTTTTTTTTTTTTTTTTTTTTTTTTTTTTT PDIG        TELAPSE       58.05 TCPU     1561.09
 CHARGE NORMALIZATION FACTOR   1.00000000
 TOTAL ATOMIC CHARGES:
   4.5127067   4.5090613   4.5092687   4.5091023   4.5089095   4.5127320
   0.8745611   0.8747341   0.8767801   0.8768266   0.8719887   0.8721512
   0.8720741   0.8720641   0.8767511   0.8769049   0.8746095   0.8746579
   5.9203177   6.1673764   6.1674599   6.1650174   6.1651566   5.9210878
   5.9245644   6.1656514   6.1656247   6.1657279   6.1655155   5.9254279
   5.9204401   6.1649062   6.1653175   6.1673686   6.1673825   5.9208999
   8.4863728   8.4865705   8.4863433   8.4864892   8.4863949   8.4867032
 TTTTTTTTTTTTTTTTTTTTTTTTTTTTTT MOQGAD      TELAPSE       58.09 TCPU     1561.13
 TTTTTTTTTTTTTTTTTTTTTTTTTTTTTT SHELLXN     TELAPSE       62.69 TCPU     1707.31
 +++ ENERGIES IN A.U. +++
 ::: EXT EL-POLE                                  -1.1832220306081E+03
 ::: EXT EL-SPHEROPOLE                             1.2696606368882E+01
 ::: BIELET ZONE E-E                               1.9320538635898E+03
 ::: TOTAL E-E                                     7.6152843935056E+02
 ::: TOTAL E-N + N-E                              -3.3558393601774E+03
 ::: TOTAL N-N                                     1.5897557621615E+02
 ::: KINETIC ENERGY                                1.2799523926258E+03
 ::: PSEUDO TOTAL   ENERGY                        -1.1553829519849E+03
 ::: VIRIAL COEFFICIENT                            1.0511508367489E+00
 TTTTTTTTTTTTTTTTTTTTTTTTTTTTTT MONMO3      TELAPSE       62.81 TCPU     1711.19
 NUMERICALLY INTEGRATED DENSITY    197.9999741432
 EXCHANGE ENERGY: -0.126031748035E+03  CORRELATION ENERGY: -0.768961623344E+01
 TTTTTTTTTTTTTTTTTTTTTTTTTTTTTT NUMDFT      TELAPSE       63.33 TCPU     1727.86
 CYC   8 ETOT(AU) -1.289104316253E+03 DETOT -3.34E-07 tst  6.82E-09 PX  2.78E-04

 == SCF ENDED - CONVERGENCE ON ENERGY      E(AU) -1.2891043162534E+03 CYCLES   8


 ENERGY EXPRESSION=HARTREE+FOCK EXCH*0.00000+(HSESOL     EXCH)*1.00000+PBESOL     CORR


 TOTAL ENERGY(DFT)(AU)(  8) -1.2891043162534E+03 DE-3.3E-07 tester 6.8E-09
 TTTTTTTTTTTTTTTTTTTTTTTTTTTTTT EDFT        TELAPSE       63.33 TCPU     1727.87
 
 INFORMATION **** DFTD3 ENERGY **** CALCULATE DFTD3 ENERGY

           DFT-D V3(BJ)
 DF                                         hsesol3c  
 parameters
 s6       :    1.0000
 s8       :    0.0000
 a1       :    0.5196
 a2       :    4.9385
 k1 k3    :   16.0000   -4.0000
 Cutoff   :   50.2022
 CN-Cutoff:   21.1671
 ABC-Cutoff:   21.1671
 
 Edisp /kcal,au:   -21.1902 -0.03376871

 E6    /kcal :   -22.1419
 E8    /kcal :     0.0000
 E6(ABC) "   :   0.951736
 
 INFORMATION **** DFTD3 ENERGY **** NORMAL TERMINATION OF DFTD3 MODULE

 GCP ENERGY CALCULATION
  level        hsesol3c            basis:hsesol3c
  Nbf            474
  Atoms           42

  Parameters: 
  sigma     1.0000
  eta       1.4281
  alpha     0.2936
  beta      1.9467

  dmp_scal      4.0000
  dmp_exp       6.0000
 cutoffs: 
   distance [bohr] 60.0
   noise    [a.u.] 2.2E-16
 SR-damping   T
 ** gCP correction **
  Egcp:        0.0829184874 / (a.u.) ||      52.0321 / (kcal/mol)
 INFORMATION **** GCP **** NORMAL TERMINATION OF GCP MODULE

 *******************************************************************************

 DFT-D3-GCP DISPERSION AND COUNTERPOISE CORRECTION

 D3 DISPERSION ENERGY (AU)      -3.3768713525929E-02
 GCP ENERGY (AU)                 8.2918487375266E-02
 TOTAL ENERGY + DISP + GCP (AU) -1.2890551664795E+03

 *******************************************************************************

 EIGENVECTORS IN FORTRAN UNIT  8
 TTTTTTTTTTTTTTTTTTTTTTTTTTTTTT END         TELAPSE       64.48 TCPU     1734.99
 EEEEEEEEEE TERMINATION  DATE 19 02 2026 TIME 19:24:48.6
