 Default number of threads is:           32

         
 *******************************************************************************
 *                                                                             *
 *                               CRYSTAL23                                     *
 *                      public : 1.0.1 - October 2022                          *
 *                       HTTP://WWW.CRYSTAL.UNITO.IT                           *
 *                                                                             *
 *                              MAIN AUTHORS                                   *
 *                                                                             *
 *  R. DOVESI(1,11), V.R. SAUNDERS(2), C. ROETTI(1,11), R. ORLANDO(1,11),      *
 *  C.M. ZICOVICH-WILSON(1,3), F. PASCALE(4), B. CIVALLERI(1,11),              *
 *  K. DOLL(5), N.M. HARRISON(6), I.J. BUSH(7), Ph. D'ARCO(8),                 *
 *  M. LLUNELL(9), M. CAUSA'(10), Y. NOEL(8), L. MASCHIO(1,11), A. ERBA(1,11)  *
 *  M. RE'RAT(14), S. CASASSA(1,11), B.G. SEARLE(2), J.K. DESMARAIS(1)         *
 *                                                                             *
 *        CONTRIBUTIONS TO THE CODE HAVE ALSO BEEN GIVEN BY                    *
 *                                                                             *
 *  M. FERRABONE(1,11), M. DE LA PIERRE(1,11), M. FERRERO(1,11),               *
 *  J. BAIMA(1,11), E. ALBANESE(1,11), M.F. PEINTINGER(12), R. BAST(13),       *
 *  B. KIRTMAN(15), V. LACIVITA(1,11), R. DEMICHELIS(1,16)                     *
 *  G. BRANDEBURG(17), S. SALUSTRO(1,11), G. SANSONE(1,11)                     *
 *  M.T. RUGGIERO(18), L.E. DAGA(1), L. DONA'(1), A. COSSARD(1)                *
 *                                                                             *
 * (1) THEORETICAL CHEMISTRY GROUP - UNIVERSITA' DI TORINO - TORINO (ITALY)    *
 * (2) SCIENTIFIC COMPUTING DEPARTMENT - STFC DARESBURY (UK)                   *
 * (3) UNIVERSIDAD AUTONOMA DEL ESTADO DE MORELOS - CUERNAVACA (MEXICO)        *
 * (4) UNIVERSITE' DE LORRAINE - NANCY (FRANCE)                                *
 * (5) UNIVERSITAET STUTTGART- STUTTGART (GERMANY)                             *
 * (6) IMPERIAL COLLEGE - LONDON (UK)                                          *
 * (7) SCIENTIFIC COMPUTING DEPARTMENT - STFC RAL (UK)                         *
 * (8) UPMC - SORBONNE UNIVERSITES - PARIS (FRANCE)                            *
 * (9) UNIVERSIDAD DE BARCELONA - BARCELONA (SPAIN)                            *
 *(10) UNIVERSITA' DI NAPOLI "FEDERICO II" - NAPOLI (ITALY)                    *
 *(11) NIS - NANOSTRUCTURED INTERFACES AND SURFACES - TORINO (ITALY)           *
 *(12) MPI FUER CHEMISCHE ENERGIEKONVERSION - MUELHEIM AN DER RUHR (GERMANY)   *
 *(13) UNIVERSITY OF TROMSO - TROMSO (NORWAY)                                  *
 *(14) UNIVERSITE' DE PAU ET DES PAYS DE L'ADOUR - PAU (FRANCE)                *
 *(15) UNIVERSITY OF CALIFORNIA SANTA BARBARA - SANTA BARBARA (USA)            *
 *(16) CURTIN UNIVERSITY - PERTH (AUSTRALIA)                                   *
 *(17) UNIVERSITY COLLEGE LONDON - LONDON (UK)                                 *
 *(18) UNIVERSITY OF VERMONT - BURLINGTON (USA)                                *
 *                                                                             *
 *******************************************************************************
 EEEEEEEEEE STARTING  DATE 19 02 2026 TIME 19:23:41.3
 cof-1_z45_L080_incl                                                             

 CRYSTAL CALCULATION
 (INPUT ACCORDING TO THE INTERNATIONAL TABLES FOR X-RAY CRYSTALLOGRAPHY)
 CRYSTAL FAMILY                       :  TRICLINIC   
 CRYSTAL CLASS  (GROTH - 1921)        :  TRICLINIC PEDIAL                     

 SPACE GROUP (NONCENTROSYMMETRIC)     :  P 1             

 LATTICE PARAMETERS  (ANGSTROMS AND DEGREES) - CONVENTIONAL CELL
        A           B           C        ALPHA        BETA       GAMMA
    15.02361    15.02392     9.17878    40.98909    89.99997   119.99596


 NUMBER OF IRREDUCIBLE ATOMS IN THE CONVENTIONAL CELL:   42

 INPUT COORDINATES

 ATOM AT. N.              COORDINATES
   1   5     4.596627600000E-01 -8.074865000000E-02  5.010562200000E-01
   2   5     6.187184200000E-01  7.831101000000E-02  5.010562300000E-01
   3   5     4.603445100000E-01  7.966598000000E-02  4.988244300000E-01
   4   5     7.323747000000E-02  3.055663500000E-01  5.010562300000E-01
   5   5     2.323454400000E-01  3.055455800000E-01  5.010562200000E-01
   6   5     2.330117400000E-01  4.660569600000E-01  4.988244300000E-01
   7   1     7.504481100000E-01  3.708000000000E-03  4.964292600000E-01
   8   1    -5.574349000000E-02  3.862664100000E-01  4.957217100000E-01
   9   1     7.506268700000E-01  2.893523500000E-01  4.956128200000E-01
  10   1    -5.561672000000E-02  1.009481600000E-01  4.956399800000E-01
  11   1     5.362449200000E-01 -2.126023000000E-01  5.035602300000E-01
  12   1     1.539247400000E-01  5.933958400000E-01  5.042678100000E-01
  13   1     2.508315200000E-01 -2.130584900000E-01  5.043767800000E-01
  14   1     4.392821400000E-01  5.932556700000E-01  5.043494300000E-01
  15   1     5.384772200000E-01  2.888321400000E-01  4.964293000000E-01
  16   1     1.565838200000E-01  1.008223300000E-01  4.957216700000E-01
  17   1     2.534960400000E-01  4.103230000000E-03  4.956127300000E-01
  18   1     4.419379500000E-01  3.862211000000E-01  4.956400700000E-01
  19   6     7.385836600000E-01  1.392992200000E-01  4.987427600000E-01
  20   6     7.938601300000E-01  8.749663000000E-02  4.965381400000E-01
  21   6    -9.918232000000E-02  3.020134000000E-01  4.963477000000E-01
  22   6     7.937059800000E-01  2.481688800000E-01  4.969192500000E-01
  23   6    -9.886800000000E-02  1.416303300000E-01  4.954494700000E-01
  24   6    -4.471860000000E-02  2.484956000000E-01  4.969464400000E-01
  25   6     3.999630700000E-01 -2.000155600000E-01  5.012467500000E-01
  26   6     4.524238500000E-01 -2.559835300000E-01  5.034513300000E-01
  27   6     2.379861100000E-01  6.370065600000E-01  5.036418500000E-01
  28   6     2.916507000000E-01 -2.557023400000E-01  5.030703200000E-01
  29   6     3.986282100000E-01  6.364147500000E-01  5.045399900000E-01
  30   6     2.912994000000E-01  5.827036100000E-01  5.030430700000E-01
  31   6     4.007382200000E-01  1.392300800000E-01  4.987427600000E-01
  32   6     4.545812200000E-01  2.483367600000E-01  4.965381800000E-01
  33   6     2.402529400000E-01  1.410001600000E-01  4.963476500000E-01
  34   6     2.935411500000E-01  8.716671000000E-02  4.969191900000E-01
  35   6     4.014486000000E-01  3.024783200000E-01  4.954495300000E-01
  36   6     2.932054900000E-01  2.484182000000E-01  4.969464400000E-01
  37   8     4.072208700000E-01 -2.669220000000E-02  4.994231900000E-01
  38   8     5.647185500000E-01 -2.957948000000E-02  5.041317400000E-01
  39   8     5.668998300000E-01  1.337332100000E-01  4.970281100000E-01
  40   8     1.268087000000E-01  4.125882700000E-01  4.994232100000E-01
  41   8     1.253808200000E-01  2.507378100000E-01  5.041317300000E-01
  42   8     2.864842500000E-01  4.140451900000E-01  4.970280900000E-01

 *******************************************************************************

 << INFORMATION >>: FROM NOW ON, ALL COORDINATES REFER TO THE PRIMITIVE CELL

 *******************************************************************************

 LATTICE PARAMETERS  (ANGSTROMS AND DEGREES) - PRIMITIVE CELL
       A          B          C        ALPHA      BETA     GAMMA        VOLUME
   15.02361   15.02392    9.17878    40.98909  89.99997 119.99596    879.676250

 COORDINATES OF THE EQUIVALENT ATOMS (FRACTIONAL UNITS)

 N. ATOM EQUIV AT. N.          X                  Y                  Z

   1   1   1    5 B     4.59662760000E-01 -8.07486500000E-02 -4.98943780000E-01

   2   2   1    5 B    -3.81281580000E-01  7.83110100000E-02 -4.98943770000E-01

   3   3   1    5 B     4.60344510000E-01  7.96659800000E-02  4.98824430000E-01

   4   4   1    5 B     7.32374700000E-02  3.05566350000E-01 -4.98943770000E-01

   5   5   1    5 B     2.32345440000E-01  3.05545580000E-01 -4.98943780000E-01

   6   6   1    5 B     2.33011740000E-01  4.66056960000E-01  4.98824430000E-01

   7   7   1    1 H    -2.49551890000E-01  3.70800000000E-03  4.96429260000E-01

   8   8   1    1 H    -5.57434900000E-02  3.86266410000E-01  4.95721710000E-01

   9   9   1    1 H    -2.49373130000E-01  2.89352350000E-01  4.95612820000E-01

  10  10   1    1 H    -5.56167200000E-02  1.00948160000E-01  4.95639980000E-01

  11  11   1    1 H    -4.63755080000E-01 -2.12602300000E-01 -4.96439770000E-01

  12  12   1    1 H     1.53924740000E-01 -4.06604160000E-01 -4.95732190000E-01

  13  13   1    1 H     2.50831520000E-01 -2.13058490000E-01 -4.95623220000E-01

  14  14   1    1 H     4.39282140000E-01 -4.06744330000E-01 -4.95650570000E-01

  15  15   1    1 H    -4.61522780000E-01  2.88832140000E-01  4.96429300000E-01

  16  16   1    1 H     1.56583820000E-01  1.00822330000E-01  4.95721670000E-01

  17  17   1    1 H     2.53496040000E-01  4.10323000000E-03  4.95612730000E-01

  18  18   1    1 H     4.41937950000E-01  3.86221100000E-01  4.95640070000E-01

  19  19   1    6 C    -2.61416340000E-01  1.39299220000E-01  4.98742760000E-01

  20  20   1    6 C    -2.06139870000E-01  8.74966300000E-02  4.96538140000E-01

  21  21   1    6 C    -9.91823200000E-02  3.02013400000E-01  4.96347700000E-01

  22  22   1    6 C    -2.06294020000E-01  2.48168880000E-01  4.96919250000E-01

  23  23   1    6 C    -9.88680000000E-02  1.41630330000E-01  4.95449470000E-01

  24  24   1    6 C    -4.47186000000E-02  2.48495600000E-01  4.96946440000E-01

  25  25   1    6 C     3.99963070000E-01 -2.00015560000E-01 -4.98753250000E-01

  26  26   1    6 C     4.52423850000E-01 -2.55983530000E-01 -4.96548670000E-01

  27  27   1    6 C     2.37986110000E-01 -3.62993440000E-01 -4.96358150000E-01

  28  28   1    6 C     2.91650700000E-01 -2.55702340000E-01 -4.96929680000E-01

  29  29   1    6 C     3.98628210000E-01 -3.63585250000E-01 -4.95460010000E-01

  30  30   1    6 C     2.91299400000E-01 -4.17296390000E-01 -4.96956930000E-01

  31  31   1    6 C     4.00738220000E-01  1.39230080000E-01  4.98742760000E-01

  32  32   1    6 C     4.54581220000E-01  2.48336760000E-01  4.96538180000E-01

  33  33   1    6 C     2.40252940000E-01  1.41000160000E-01  4.96347650000E-01

  34  34   1    6 C     2.93541150000E-01  8.71667100000E-02  4.96919190000E-01

  35  35   1    6 C     4.01448600000E-01  3.02478320000E-01  4.95449530000E-01

  36  36   1    6 C     2.93205490000E-01  2.48418200000E-01  4.96946440000E-01

  37  37   1    8 O     4.07220870000E-01 -2.66922000000E-02  4.99423190000E-01

  38  38   1    8 O    -4.35281450000E-01 -2.95794800000E-02 -4.95868260000E-01

  39  39   1    8 O    -4.33100170000E-01  1.33733210000E-01  4.97028110000E-01

  40  40   1    8 O     1.26808700000E-01  4.12588270000E-01  4.99423210000E-01

  41  41   1    8 O     1.25380820000E-01  2.50737810000E-01 -4.95868270000E-01

  42  42   1    8 O     2.86484250000E-01  4.14045190000E-01  4.97028090000E-01

 NUMBER OF SYMMETRY OPERATORS         :    1
 *******************************************************************************
 * GEOMETRY EDITING - INPUT COORDINATES ARE GIVEN IN ANGSTROM         
 *******************************************************************************

 GCALCO - MAX INDICES DIRECT LATTICE VECTOR    10    15    21
 NO.OF VECTORS CREATED 6999 STARS 3500 RMAX   221.02571 BOHR

 GEOMETRY FOR WAVE FUNCTION - DIMENSIONALITY OF THE SYSTEM    3
 (NON PERIODIC DIRECTION: LATTICE PARAMETER FORMALLY SET TO 500)
 *******************************************************************************
 LATTICE PARAMETERS (ANGSTROMS AND DEGREES) - BOHR = 0.5291772083 ANGSTROM
 PRIMITIVE CELL - CENTRING CODE 1/0 VOLUME=   879.676250 - DENSITY  0.736 g/cm^3
         A              B              C           ALPHA      BETA       GAMMA 
    15.02361100    15.02391600     9.17878000    40.989090  89.999972 119.995964
 *******************************************************************************
 ATOMS IN THE ASYMMETRIC UNIT   42 - ATOMS IN THE UNIT CELL:   42
     ATOM                 X/A                 Y/B                 Z/C    
 *******************************************************************************
      1 T   5 B     4.596627600000E-01 -8.074865000000E-02 -4.989437800000E-01
      2 T   5 B    -3.812815800000E-01  7.831101000000E-02 -4.989437700000E-01
      3 T   5 B     4.603445100000E-01  7.966598000000E-02  4.988244300000E-01
      4 T   5 B     7.323747000000E-02  3.055663500000E-01 -4.989437700000E-01
      5 T   5 B     2.323454400000E-01  3.055455800000E-01 -4.989437800000E-01
      6 T   5 B     2.330117400000E-01  4.660569600000E-01  4.988244300000E-01
      7 T   1 H    -2.495518900000E-01  3.708000000000E-03  4.964292600000E-01
      8 T   1 H    -5.574349000000E-02  3.862664100000E-01  4.957217100000E-01
      9 T   1 H    -2.493731300000E-01  2.893523500000E-01  4.956128200000E-01
     10 T   1 H    -5.561672000000E-02  1.009481600000E-01  4.956399800000E-01
     11 T   1 H    -4.637550800000E-01 -2.126023000000E-01 -4.964397700000E-01
     12 T   1 H     1.539247400000E-01 -4.066041600000E-01 -4.957321900000E-01
     13 T   1 H     2.508315200000E-01 -2.130584900000E-01 -4.956232200000E-01
     14 T   1 H     4.392821400000E-01 -4.067443300000E-01 -4.956505700000E-01
     15 T   1 H    -4.615227800000E-01  2.888321400000E-01  4.964293000000E-01
     16 T   1 H     1.565838200000E-01  1.008223300000E-01  4.957216700000E-01
     17 T   1 H     2.534960400000E-01  4.103230000000E-03  4.956127300000E-01
     18 T   1 H     4.419379500000E-01  3.862211000000E-01  4.956400700000E-01
     19 T   6 C    -2.614163400000E-01  1.392992200000E-01  4.987427600000E-01
     20 T   6 C    -2.061398700000E-01  8.749663000000E-02  4.965381400000E-01
     21 T   6 C    -9.918232000000E-02  3.020134000000E-01  4.963477000000E-01
     22 T   6 C    -2.062940200000E-01  2.481688800000E-01  4.969192500000E-01
     23 T   6 C    -9.886800000000E-02  1.416303300000E-01  4.954494700000E-01
     24 T   6 C    -4.471860000000E-02  2.484956000000E-01  4.969464400000E-01
     25 T   6 C     3.999630700000E-01 -2.000155600000E-01 -4.987532500000E-01
     26 T   6 C     4.524238500000E-01 -2.559835300000E-01 -4.965486700000E-01
     27 T   6 C     2.379861100000E-01 -3.629934400000E-01 -4.963581500000E-01
     28 T   6 C     2.916507000000E-01 -2.557023400000E-01 -4.969296800000E-01
     29 T   6 C     3.986282100000E-01 -3.635852500000E-01 -4.954600100000E-01
     30 T   6 C     2.912994000000E-01 -4.172963900000E-01 -4.969569300000E-01
     31 T   6 C     4.007382200000E-01  1.392300800000E-01  4.987427600000E-01
     32 T   6 C     4.545812200000E-01  2.483367600000E-01  4.965381800000E-01
     33 T   6 C     2.402529400000E-01  1.410001600000E-01  4.963476500000E-01
     34 T   6 C     2.935411500000E-01  8.716671000000E-02  4.969191900000E-01
     35 T   6 C     4.014486000000E-01  3.024783200000E-01  4.954495300000E-01
     36 T   6 C     2.932054900000E-01  2.484182000000E-01  4.969464400000E-01
     37 T   8 O     4.072208700000E-01 -2.669220000000E-02  4.994231900000E-01
     38 T   8 O    -4.352814500000E-01 -2.957948000000E-02 -4.958682600000E-01
     39 T   8 O    -4.331001700000E-01  1.337332100000E-01  4.970281100000E-01
     40 T   8 O     1.268087000000E-01  4.125882700000E-01  4.994232100000E-01
     41 T   8 O     1.253808200000E-01  2.507378100000E-01 -4.958682700000E-01
     42 T   8 O     2.864842500000E-01  4.140451900000E-01  4.970280900000E-01

 T = ATOM BELONGING TO THE ASYMMETRIC UNIT

 ****    1 SYMMOPS - TRANSLATORS IN FRACTIONAL UNITS
 **** MATRICES AND TRANSLATORS IN THE CRYSTALLOGRAPHIC REFERENCE FRAME
   V INV                    ROTATION MATRICES                   TRANSLATORS
   1   1  1.00 -0.00  0.00  0.00  1.00  0.00 -0.00 -0.00  1.00  0.00  0.00  0.00

 DIRECT LATTICE VECTORS CARTESIAN COMPONENTS (ANGSTROM)
          X                    Y                    Z
   0.130113578931E+02  -0.751088897922E+01   0.000000000000E+00
   0.000000000000E+00   0.150239160000E+02   0.000000000000E+00
   0.399950255714E+01   0.692845972284E+01   0.450004749450E+01


 CARTESIAN COORDINATES - PRIMITIVE CELL
 *******************************************************************************
 *      ATOM          X(ANGSTROM)         Y(ANGSTROM)         Z(ANGSTROM)
 *******************************************************************************
    1     5 B    -1.419280064642E-02 -2.709249948850E-02 -6.745318201592E+00
    2     5 B     2.055337356525E+00  1.167957136849E+00 -6.745318156592E+00
    3     5 B    -1.027098578856E+00  6.108161588593E-01  6.744781120924E+00
    4     5 B    -1.042607950631E+00  5.838128541298E-01 -2.245270662087E+00
    5     5 B     1.027602750681E+00 -6.115415602686E-01 -2.245270707088E+00
    6     5 B     1.027346168634E+00  1.779500557444E+00 -2.255313868085E+00
    7     1 H    -5.261041416009E+00 -1.558904368820E+00 -2.266092246843E+00
    8     1 H    -2.742160808962E+00  2.728045440797E+00 -2.269276255448E+00
    9     1 H    -1.262478302401E+00 -5.369863243873E+00  2.230281228885E+00
   10     1 H    -2.740838238466E+00 -1.560070398879E+00 -2.269644044329E+00
   11     1 H    -4.020092893045E+00  3.777990594401E+00  2.266044951344E+00
   12     1 H     2.008771917490E-02  4.324357109883E+00 -2.230818399555E+00
   13     1 H     5.280914898951E+00 -1.590386350688E+00  2.269719465125E+00
   14     1 H     3.733301417406E+00  2.179528957662E+00 -2.230451105678E+00
   15     1 H    -4.019567811590E+00 -3.778589418292E+00  2.233955427664E+00
   16     1 H     2.050565193750E-02 -3.155209569624E+00 -2.269276435449E+00
   17     1 H     1.281029524760E+00 -5.336960915172E+00 -2.269766670624E+00
   18     1 H     3.733024004221E+00 -1.011230975145E+00 -2.269643639325E+00
   19     6 C    -5.406161171997E+00  5.833482891156E-01 -2.255681386964E+00
   20     6 C    -4.695756621090E+00 -6.253795218340E-01 -2.265602281672E+00
   21     6 C    -3.304855323942E+00  1.792836671829E+00 -2.266459270716E+00
   22     6 C    -4.696238071489E+00  1.792345174518E+00 -2.263887268571E+00
   23     6 C    -3.304358067111E+00 -6.253292726742E-01 -2.270501348377E+00
   24     6 C    -2.593813708674E+00  5.838671317832E-01 -2.263764912280E+00
   25     6 C     3.209297749020E+00  5.559229009049E+00 -2.244413313039E+00
   26     6 C     3.900700956296E+00  4.339618178471E+00 -2.234492598333E+00
   27     6 C     1.111336760605E+00  4.343848347704E+00 -2.233635249284E+00
   28     6 C     1.807300111583E+00  5.548752221461E+00 -2.236207161429E+00
   29     6 C     3.205100729624E+00  3.134614792303E+00 -2.229593576628E+00
   30     6 C     1.802620235110E+00  3.123426562932E+00 -2.236329787723E+00
   31     6 C     3.209368788682E+00 -4.391059851679E+00 -2.255681386964E+00
   32     6 C     3.901122108371E+00 -3.171533395363E+00 -2.265602101670E+00
   33     6 C     1.111658125465E+00 -3.175673620734E+00 -2.266459495719E+00
   34     6 C     1.807295972947E+00 -4.380744788865E+00 -2.263887538574E+00
   35     6 C     3.205440515296E+00 -1.966584603497E+00 -2.270501078375E+00
   36     6 C     1.803037567001E+00 -1.955406042708E+00 -2.263764912280E+00
   37     8 O    -1.715914529327E+00 -5.839459566181E-01  6.747475569362E+00
   38     8 O     1.365026231886E+00 -2.608494648586E-02 -6.731478215522E+00
   39     8 O     3.521464386393E-01  6.103467712978E-01  6.736697595608E+00
   40     8 O    -3.521047719959E-01  1.778019316062E+00 -2.252619329647E+00
   41     8 O    -3.518516919239E-01 -6.102609602096E-01 -2.231430766018E+00
   42     8 O     1.715911667260E+00  5.840081385639E-01 -2.263397483402E+00

 *******************************************************************************
 STARTING BASIS SET HANDLING 
 *******************************************************************************

 Loading internal basis set: SOLDEF2MSVP         

 Please cite in your publication:
 L. Dona', J. G. Brandenburg and B. Civalleri, J. Chem. Phys., 151, 121101 (2019
 )                                                                              
                                                                                
                    

 *******************************************************************************
 LOCAL ATOMIC FUNCTIONS BASIS SET
 *******************************************************************************
   ATOM   X(AU)   Y(AU)   Z(AU)  N. TYPE  EXPONENT  S COEF   P COEF   D/F/G COEF
 *******************************************************************************
   1 B   -0.027  -0.051 -12.747
                                  1 S  
                                         2.410E+03 1.755E-03 0.000E+00 0.000E+00
                                         3.619E+02 1.344E-02 0.000E+00 0.000E+00
                                         8.231E+01 6.637E-02 0.000E+00 0.000E+00
                                         2.311E+01 2.303E-01 0.000E+00 0.000E+00
                                         7.252E+00 5.150E-01 0.000E+00 0.000E+00
                                  2 S  
                                         2.367E+00 1.000E+00 0.000E+00 0.000E+00
                                  3 S  
                                         5.533E-01 1.000E+00 0.000E+00 0.000E+00
                                  4 S  
                                         1.716E-01 1.000E+00 0.000E+00 0.000E+00
                           5-     7 P  
                                         6.002E+00 0.000E+00-3.555E-02 0.000E+00
                                         1.240E+00 0.000E+00-1.983E-01 0.000E+00
                                         3.367E-01 0.000E+00-5.048E-01 0.000E+00
                           8-    10 P  
                                         1.256E-01 0.000E+00 1.000E+00 0.000E+00
                          11-    15 D  
                                         8.880E-01 0.000E+00 0.000E+00 1.000E+00
   2 B    3.884   2.207 -12.747
   3 B   -1.941   1.154  12.746
   4 B   -1.970   1.103  -4.243
   5 B    1.942  -1.156  -4.243
   6 B    1.941   3.363  -4.262
   7 H   -9.942  -2.946  -4.282
                                 91 S  
                                         1.874E+01 1.968E-02 0.000E+00 0.000E+00
                                         2.826E+00 1.380E-01 0.000E+00 0.000E+00
                                         6.401E-01 4.783E-01 0.000E+00 0.000E+00
                                 92 S  
                                         1.756E-01 1.000E+00 0.000E+00 0.000E+00
   8 H   -5.182   5.155  -4.288
   9 H   -2.386 -10.148   4.215
  10 H   -5.179  -2.948  -4.289
  11 H   -7.597   7.139   4.282
  12 H    0.038   8.172  -4.216
  13 H    9.979  -3.005   4.289
  14 H    7.055   4.119  -4.215
  15 H   -7.596  -7.140   4.222
  16 H    0.039  -5.962  -4.288
  17 H    2.421 -10.085  -4.289
  18 H    7.054  -1.911  -4.289
  19 C  -10.216   1.102  -4.263
                                115 S  
                                         3.624E+03 1.634E-03 0.000E+00 0.000E+00
                                         5.440E+02 1.252E-02 0.000E+00 0.000E+00
                                         1.237E+02 6.211E-02 0.000E+00 0.000E+00
                                         3.476E+01 2.182E-01 0.000E+00 0.000E+00
                                         1.093E+01 4.980E-01 0.000E+00 0.000E+00
                                116 S  
                                         3.574E+00 1.000E+00 0.000E+00 0.000E+00
                                117 S  
                                         7.742E-01 1.000E+00 0.000E+00 0.000E+00
                                118 S  
                                         2.330E-01 1.000E+00 0.000E+00 0.000E+00
                         119-   121 P  
                                         9.443E+00 0.000E+00 3.790E-02 0.000E+00
                                         2.002E+00 0.000E+00 2.082E-01 0.000E+00
                                         5.463E-01 0.000E+00 5.047E-01 0.000E+00
                         122-   124 P  
                                         1.820E-01 0.000E+00 1.000E+00 0.000E+00
                         125-   129 D  
                                         8.880E-01 0.000E+00 0.000E+00 1.000E+00
  20 C   -8.874  -1.182  -4.281
  21 C   -6.245   3.388  -4.283
  22 C   -8.875   3.387  -4.278
  23 C   -6.244  -1.182  -4.291
  24 C   -4.902   1.103  -4.278
  25 C    6.065  10.505  -4.241
  26 C    7.371   8.201  -4.223
  27 C    2.100   8.209  -4.221
  28 C    3.415  10.486  -4.226
  29 C    6.057   5.924  -4.213
  30 C    3.406   5.902  -4.226
  31 C    6.065  -8.298  -4.263
  32 C    7.372  -5.993  -4.281
  33 C    2.101  -6.001  -4.283
  34 C    3.415  -8.278  -4.278
  35 C    6.057  -3.716  -4.291
  36 C    3.407  -3.695  -4.278
  37 O   -3.243  -1.103  12.751
                                385 S  
                                         6.773E+03 1.727E-03 0.000E+00 0.000E+00
                                         1.017E+03 1.325E-02 0.000E+00 0.000E+00
                                         2.313E+02 6.603E-02 0.000E+00 0.000E+00
                                         6.501E+01 2.353E-01 0.000E+00 0.000E+00
                                         2.050E+01 5.498E-01 0.000E+00 0.000E+00
                                386 S  
                                         6.716E+00 1.000E+00 0.000E+00 0.000E+00
                                387 S  
                                         1.147E+00 1.000E+00 0.000E+00 0.000E+00
                                388 S  
                                         3.342E-01 1.000E+00 0.000E+00 0.000E+00
                         389-   391 P  
                                         1.769E+01 0.000E+00 4.359E-02 0.000E+00
                                         3.854E+00 0.000E+00 2.318E-01 0.000E+00
                                         1.047E+00 0.000E+00 5.146E-01 0.000E+00
                         392-   394 P  
                                         2.759E-01 0.000E+00 1.000E+00 0.000E+00
                         395-   399 D  
                                         8.000E-01 0.000E+00 0.000E+00 1.000E+00
  38 O    2.580  -0.049 -12.721
  39 O    0.665   1.153  12.731
  40 O   -0.665   3.360  -4.257
  41 O   -0.665  -1.153  -4.217
  42 O    3.243   1.104  -4.277

 *******************************************************************************
 FINISHED BASIS SET HANDLING 
 *******************************************************************************

 INFORMATION **** SET_MPP **** PCRYSTAL CALCULATION
 INFORMATION **** READM2 **** NEW DEFAULT: FOCK/KS MATRIX MIXING SET TO 30 %
 INFORMATION **** READM2 **** NEW DEFAULT: FULL DIRECT SCF MODE
 INFORMATION **** READM2 **** NEW DEFAULT: COULOMB BIPOLAR BUFFER SET TO 32 Mb
 INFORMATION **** READM2 **** NEW DEFAULT: EXCHANGE BIPOLAR BUFFER SET TO 32 Mb

 *******************************************************************************
 NEW DEFAULT: DFT INTEGRATION GRID INCREASED TO XLGRID
 NEW DEFAULT: DIIS ACCELERATOR ACTIVE
 USE KEYWORD NODIIS TO TURN IT OFF
 *******************************************************************************

 WARNING **** RDDFTP **** HSEsol-HJS ACTIVE
 RANGE SEPARATION - OMEGA:   0.110000000000000     
 WARNING **** RDDFTP **** HSEsol-3c has to be combined with sol-def2-mSVP basis set
 *******************************************************************************
 N. OF ATOMS PER CELL        42  COULOMB OVERLAP TOL         (T1) 10**   -6
 NUMBER OF SHELLS           234  COULOMB PENETRATION TOL     (T2) 10**   -6
 NUMBER OF AO               474  EXCHANGE OVERLAP TOL        (T3) 10**   -6
 N. OF ELECTRONS PER CELL   198  EXCHANGE PSEUDO OVP (F(G))  (T4) 10**   -6
 CORE ELECTRONS PER CELL     60  EXCHANGE PSEUDO OVP (P(G))  (T5) 10**  -12
 N. OF SYMMETRY OPERATORS     1  POLE ORDER IN MONO ZONE                  4
 *******************************************************************************
 TYPE OF CALCULATION :  RESTRICTED CLOSED SHELL
 KOHN-SHAM HAMILTONIAN

 (EXCHANGE)[CORRELATION] FUNCTIONAL:(HSEsol GGA)[PBEsol]

 RANGE-SEPARATED HYBRID FUNCTIONAL 
 OMEGA (SHORT-RANGE)[LONG-RANGE]:(    0.1100)[    0.0000]

 HYBRID EXCHANGE - PERCENTAGE OF FOCK EXCHANGE    25.0000

 CAPPA:IS1  2;IS2  2;IS3  8; K PTS MONK NET  20; SYMMOPS:K SPACE   2;G SPACE   1

 *******************************************************************************
 MAX NUMBER OF SCF CYCLES      50  CONVERGENCE ON DELTAP        10**-16
 WEIGHT OF F(I) IN F(I+1)      30% CONVERGENCE ON ENERGY        10**- 6
 SHRINK. FACT.(MONKH.)    2  2  8  NUMBER OF K POINTS IN THE IBZ     20
 SHRINKING FACTOR(GILAT NET)    8  NUMBER OF K POINTS(GILAT NET)   1028
 *******************************************************************************
 *** K POINTS COORDINATES (OBLIQUE COORDINATES IN UNITS OF IS =  2)
   1-R(  0  0  0)   2-R(  1  0  0)   3-R(  0  1  0)   4-R(  1  1  0)
   5-C(  0  0  1)   6-C(  1  0  1)   7-C(  0  1  1)   8-C(  1  1  1)
   9-C(  0  0  2)  10-C(  1  0  2)  11-C(  0  1  2)  12-C(  1  1  2)
  13-C(  0  0  3)  14-C(  1  0  3)  15-C(  0  1  3)  16-C(  1  1  3)
  17-R(  0  0  4)  18-R(  1  0  4)  19-R(  0  1  4)  20-R(  1  1  4)

 DIRECT LATTICE VECTORS COMPON. (A.U.)     RECIP. LATTICE VECTORS COMPON. (A.U.) 
        X            Y            Z              X            Y            Z
   24.5879030  -14.1935232    0.0000000      0.2555397    0.0000000   -0.2271158
    0.0000000   28.3910867    0.0000000      0.1277517    0.2213084   -0.4542773
    7.5579645   13.0928914    8.5038574      0.0000000    0.0000000    0.7388630

 DISK SPACE FOR EIGENVECTORS (FTN 10)     7189632 REALS

 SYMMETRY ADAPTION OF THE BLOCH FUNCTIONS DISABLED
 TTTTTTTTTTTTTTTTTTTTTTTTTTTTTT gordsh1     TELAPSE        0.04 TCPU        0.04

 MATRIX SIZE: P(G)  263662, F(G)   52785, P(G) IRR  132890, F(G) IRR   53265
 MAX G-VECTOR INDEX FOR 1- AND 2-ELECTRON INTEGRALS  67

 TTTTTTTTTTTTTTTTTTTTTTTTTTTTTT INPUT       TELAPSE        0.38 TCPU        0.37

 NEIGHBORS OF THE NON-EQUIVALENT ATOMS

 N = NUMBER OF NEIGHBORS AT DISTANCE R
    ATOM  N     R/ANG      R/AU   NEIGHBORS (ATOM LABELS AND CELL INDICES)
   1 B    1     1.3791     2.6061   37 O    1 2-3
   1 B    1     1.3793     2.6065   38 O    0 0 0
   1 B    1     1.5503     2.9297   25 C    0 0-1
   1 B    1     2.3895     4.5155    3 B    1 2-3
   1 B    1     2.3898     4.5160    2 B    0 0 0
   1 B    1     2.5632     4.8437   26 C    0 0-1

   2 B    1     1.3793     2.6065   39 O    1 2-3
   2 B    1     1.3793     2.6065   38 O    0 0 0
   2 B    1     1.5504     2.9298   19 C    1 1-1
   2 B    1     2.3895     4.5156    3 B    1 2-3
   2 B    1     2.3898     4.5160    1 B    0 0 0
   2 B    1     2.5634     4.8440   22 C    1 1-1

   3 B    1     1.3791     2.6061   37 O    0 0 0
   3 B    1     1.3793     2.6064   39 O    0 0 0
   3 B    1     1.5502     2.9294   31 C   -1-1 2
   3 B    1     2.3895     4.5155    1 B   -1-2 3
   3 B    1     2.3895     4.5156    2 B   -1-2 3
   3 B    1     2.5629     4.8433   32 C   -1-1 2

   4 B    1     1.3795     2.6068   40 O    0 0 0
   4 B    1     1.3795     2.6070   41 O    0 0 0
   4 B    1     1.5513     2.9316   24 C    0 0 0
   4 B    1     2.3905     4.5174    6 B    0 0 0
   4 B    1     2.3905     4.5175    5 B    0 0 0
   4 B    1     2.5648     4.8468   23 C    0 0 0

   5 B    1     1.3795     2.6069   41 O    0 0 0
   5 B    1     1.3797     2.6072   42 O    0 0 0
   5 B    1     1.5516     2.9322   36 C    0 0 0
   5 B    1     2.3905     4.5175    4 B    0 0 0
   5 B    1     2.3911     4.5185    6 B    0 0 0
   5 B    1     2.5651     4.8473   35 C    0 0 0

   6 B    1     1.3795     2.6068   40 O    0 0 0
   6 B    1     1.3796     2.6071   42 O    0 0 0
   6 B    1     1.5516     2.9322   30 C    0 0 0
   6 B    1     2.3905     4.5174    4 B    0 0 0
   6 B    1     2.3911     4.5185    5 B    0 0 0
   6 B    1     2.5651     4.8473   29 C    0 0 0

   7 H    1     1.0913     2.0623   20 C    0 0 0
   7 H    1     2.1472     4.0576   19 C    0 0 0
   7 H    1     2.1680     4.0969   23 C    0 0 0
   7 H    1     2.5202     4.7625   10 H    0 0 0
   7 H    1     2.5676     4.8520   38 O   -1-1 1
   7 H    1     2.7321     5.1630    2 B   -1-1 1

   8 H    1     1.0914     2.0625   21 C    0 0 0
   8 H    1     2.1493     4.0616   24 C    0 0 0
   8 H    1     2.1666     4.0942   22 C    0 0 0
   8 H    1     2.5198     4.7618    9 H    0 1-1
   8 H    1     2.5720     4.8604   40 O    0 0 0
   8 H    1     2.7362     5.1707    4 B    0 0 0

   9 H    1     1.0914     2.0624   22 C    0-1 1
   9 H    1     2.1471     4.0575   19 C    0-1 1
   9 H    1     2.1680     4.0970   21 C    0-1 1
   9 H    1     2.5198     4.7618    8 H    0-1 1
   9 H    1     2.5665     4.8500   39 O    0 0-1
   9 H    1     2.7315     5.1618    2 B   -1-2 2

  10 H    1     1.0915     2.0626   23 C    0 0 0
  10 H    1     2.1490     4.0610   24 C    0 0 0
  10 H    1     2.1669     4.0948   20 C    0 0 0
  10 H    1     2.5202     4.7625    7 H    0 0 0
  10 H    1     2.5712     4.8588   41 O    0 0 0
  10 H    1     2.7351     5.1686    4 B    0 0 0

  11 H    1     1.0913     2.0623   26 C   -1-1 1
  11 H    1     2.1469     4.0571   25 C   -1-1 1
  11 H    1     2.1680     4.0968   29 C   -1-1 1
  11 H    1     2.5198     4.7617   14 H   -1-1 1
  11 H    1     2.5670     4.8510   38 O   -1-1 2
  11 H    1     2.7310     5.1609    1 B   -1-1 2

  12 H    1     1.0914     2.0625   27 C    0 0 0
  12 H    1     2.1493     4.0617   30 C    0 0 0
  12 H    1     2.1664     4.0939   28 C    0 0 0
  12 H    1     2.5192     4.7606   13 H    0 1-1
  12 H    1     2.5735     4.8632   40 O    0 0 0
  12 H    1     2.7371     5.1723    6 B    0 0 0

  13 H    1     1.0914     2.0624   28 C    0-1 1
  13 H    1     2.1475     4.0581   25 C    0-1 1
  13 H    1     2.1679     4.0967   27 C    0-1 1
  13 H    1     2.5192     4.7606   12 H    0-1 1
  13 H    1     2.5675     4.8519   37 O    1 1-1
  13 H    1     2.7328     5.1643    1 B    0-1 2

  14 H    1     1.0914     2.0625   29 C    0 0 0
  14 H    1     2.1491     4.0612   30 C    0 0 0
  14 H    1     2.1666     4.0942   26 C    0 0 0
  14 H    1     2.5198     4.7617   11 H    1 1-1
  14 H    1     2.5723     4.8609   42 O    0 0 0
  14 H    1     2.7355     5.1693    6 B    0 0 0

  15 H    1     1.0914     2.0624   32 C   -1-1 1
  15 H    1     2.1475     4.0582   31 C   -1-1 1
  15 H    1     2.1678     4.0966   35 C   -1-1 1
  15 H    1     2.5200     4.7621   18 H   -1-1 1
  15 H    1     2.5667     4.8503   39 O    0 0-1
  15 H    1     2.7315     5.1618    3 B    0 0-1

  16 H    1     1.0913     2.0623   33 C    0 0 0
  16 H    1     2.1487     4.0605   36 C    0 0 0
  16 H    1     2.1667     4.0945   34 C    0 0 0
  16 H    1     2.5197     4.7616   17 H    0 0 0
  16 H    1     2.5723     4.8610   41 O    0 0 0
  16 H    1     2.7359     5.1701    5 B    0 0 0

  17 H    1     1.0915     2.0626   34 C    0 0 0
  17 H    1     2.1479     4.0589   31 C    0 0 0
  17 H    1     2.1679     4.0968   33 C    0 0 0
  17 H    1     2.5197     4.7616   16 H    0 0 0
  17 H    1     2.5677     4.8522   37 O    1 1-2
  17 H    1     2.7331     5.1648    3 B    1 1-2

  18 H    1     1.0914     2.0624   35 C    0 0 0
  18 H    1     2.1486     4.0602   36 C    0 0 0
  18 H    1     2.1668     4.0947   32 C    0 0 0
  18 H    1     2.5200     4.7621   15 H    1 1-1
  18 H    1     2.5717     4.8598   42 O    0 0 0
  18 H    1     2.7349     5.1682    5 B    0 0 0

  19 C    1     1.4020     2.6495   22 C    0 0 0
  19 C    1     1.4021     2.6495   20 C    0 0 0
  19 C    1     1.5504     2.9298    2 B   -1-1 1
  19 C    1     2.1471     4.0575    9 H    0 1-1
  19 C    1     2.1472     4.0576    7 H    0 0 0
  19 C    1     2.4246     4.5817   21 C    0 0 0

  20 C    1     1.0913     2.0623    7 H    0 0 0
  20 C    1     1.3914     2.6294   23 C    0 0 0
  20 C    1     1.4021     2.6495   19 C    0 0 0
  20 C    1     2.1669     4.0948   10 H    0 0 0
  20 C    1     2.4177     4.5688   22 C    0 0 0
  20 C    1     2.4250     4.5825   24 C    0 0 0

  21 C    1     1.0914     2.0625    8 H    0 0 0
  21 C    1     1.3914     2.6293   22 C    0 0 0
  21 C    1     1.4026     2.6505   24 C    0 0 0
  21 C    1     2.1680     4.0970    9 H    0 1-1
  21 C    1     2.4182     4.5697   23 C    0 0 0
  21 C    1     2.4246     4.5817   19 C    0 0 0

  22 C    1     1.0914     2.0624    9 H    0 1-1
  22 C    1     1.3914     2.6293   21 C    0 0 0
  22 C    1     1.4020     2.6495   19 C    0 0 0
  22 C    1     2.1666     4.0942    8 H    0 0 0
  22 C    1     2.4177     4.5688   20 C    0 0 0
  22 C    1     2.4250     4.5826   24 C    0 0 0

  23 C    1     1.0915     2.0626   10 H    0 0 0
  23 C    1     1.3914     2.6294   20 C    0 0 0
  23 C    1     1.4025     2.6504   24 C    0 0 0
  23 C    1     2.1680     4.0969    7 H    0 0 0
  23 C    1     2.4182     4.5697   21 C    0 0 0
  23 C    1     2.4246     4.5818   19 C    0 0 0

  24 C    1     1.4025     2.6504   23 C    0 0 0
  24 C    1     1.4026     2.6505   21 C    0 0 0
  24 C    1     1.5513     2.9316    4 B    0 0 0
  24 C    1     2.1490     4.0610   10 H    0 0 0
  24 C    1     2.1493     4.0616    8 H    0 0 0
  24 C    1     2.4250     4.5825   20 C    0 0 0

  25 C    1     1.4020     2.6494   26 C    0 0 0
  25 C    1     1.4021     2.6495   28 C    0 0 0
  25 C    1     1.5503     2.9297    1 B    0 0 1
  25 C    1     2.1469     4.0571   11 H    1 1-1
  25 C    1     2.1475     4.0581   13 H    0 1-1
  25 C    1     2.4246     4.5818   27 C    0 0 0

  26 C    1     1.0913     2.0623   11 H    1 1-1
  26 C    1     1.3914     2.6293   29 C    0 0 0
  26 C    1     1.4020     2.6494   25 C    0 0 0
  26 C    1     2.1666     4.0942   14 H    0 0 0
  26 C    1     2.4175     4.5684   28 C    0 0 0
  26 C    1     2.4251     4.5828   30 C    0 0 0

  27 C    1     1.0914     2.0625   12 H    0 0 0
  27 C    1     1.3915     2.6295   28 C    0 0 0
  27 C    1     1.4026     2.6505   30 C    0 0 0
  27 C    1     2.1679     4.0967   13 H    0 1-1
  27 C    1     2.4179     4.5691   29 C    0 0 0
  27 C    1     2.4246     4.5818   25 C    0 0 0

  28 C    1     1.0914     2.0624   13 H    0 1-1
  28 C    1     1.3915     2.6295   27 C    0 0 0
  28 C    1     1.4021     2.6495   25 C    0 0 0
  28 C    1     2.1664     4.0939   12 H    0 0 0
  28 C    1     2.4175     4.5684   26 C    0 0 0
  28 C    1     2.4253     4.5832   30 C    0 0 0

  29 C    1     1.0914     2.0625   14 H    0 0 0
  29 C    1     1.3914     2.6293   26 C    0 0 0
  29 C    1     1.4025     2.6504   30 C    0 0 0
  29 C    1     2.1680     4.0968   11 H    1 1-1
  29 C    1     2.4179     4.5691   27 C    0 0 0
  29 C    1     2.4247     4.5819   25 C    0 0 0

  30 C    1     1.4025     2.6504   29 C    0 0 0
  30 C    1     1.4026     2.6505   27 C    0 0 0
  30 C    1     1.5516     2.9322    6 B    0 0 0
  30 C    1     2.1491     4.0612   14 H    0 0 0
  30 C    1     2.1493     4.0617   12 H    0 0 0
  30 C    1     2.4251     4.5828   26 C    0 0 0

  31 C    1     1.4021     2.6496   32 C    0 0 0
  31 C    1     1.4021     2.6497   34 C    0 0 0
  31 C    1     1.5502     2.9294    3 B    1 1-2
  31 C    1     2.1475     4.0582   15 H    1 1-1
  31 C    1     2.1479     4.0589   17 H    0 0 0
  31 C    1     2.4244     4.5814   33 C    0 0 0

  32 C    1     1.0914     2.0624   15 H    1 1-1
  32 C    1     1.3914     2.6293   35 C    0 0 0
  32 C    1     1.4021     2.6496   31 C    0 0 0
  32 C    1     2.1668     4.0947   18 H    0 0 0
  32 C    1     2.4179     4.5692   34 C    0 0 0
  32 C    1     2.4251     4.5827   36 C    0 0 0

  33 C    1     1.0913     2.0623   16 H    0 0 0
  33 C    1     1.3914     2.6294   34 C    0 0 0
  33 C    1     1.4025     2.6504   36 C    0 0 0
  33 C    1     2.1679     4.0968   17 H    0 0 0
  33 C    1     2.4178     4.5690   35 C    0 0 0
  33 C    1     2.4244     4.5814   31 C    0 0 0

  34 C    1     1.0915     2.0626   17 H    0 0 0
  34 C    1     1.3914     2.6294   33 C    0 0 0
  34 C    1     1.4021     2.6497   31 C    0 0 0
  34 C    1     2.1667     4.0945   16 H    0 0 0
  34 C    1     2.4179     4.5692   32 C    0 0 0
  34 C    1     2.4253     4.5832   36 C    0 0 0

  35 C    1     1.0914     2.0624   18 H    0 0 0
  35 C    1     1.3914     2.6293   32 C    0 0 0
  35 C    1     1.4025     2.6503   36 C    0 0 0
  35 C    1     2.1678     4.0966   15 H    1 1-1
  35 C    1     2.4178     4.5690   33 C    0 0 0
  35 C    1     2.4245     4.5817   31 C    0 0 0

  36 C    1     1.4025     2.6503   35 C    0 0 0
  36 C    1     1.4025     2.6504   33 C    0 0 0
  36 C    1     1.5516     2.9322    5 B    0 0 0
  36 C    1     2.1486     4.0602   18 H    0 0 0
  36 C    1     2.1487     4.0605   16 H    0 0 0
  36 C    1     2.4251     4.5827   32 C    0 0 0

  37 O    1     1.3791     2.6061    1 B   -1-2 3
  37 O    1     1.3791     2.6061    3 B    0 0 0
  37 O    1     2.3880     4.5126   38 O   -1-2 3
  37 O    1     2.3882     4.5130   39 O    0 0 0
  37 O    1     2.5383     4.7966   31 C   -1-1 2
  37 O    1     2.5384     4.7968   25 C   -1-2 2

  38 O    1     1.3793     2.6065    1 B    0 0 0
  38 O    1     1.3793     2.6065    2 B    0 0 0
  38 O    1     2.3880     4.5126   37 O    1 2-3
  38 O    1     2.3882     4.5131   39 O    1 2-3
  38 O    1     2.5391     4.7981   19 C    1 1-1
  38 O    1     2.5395     4.7990   25 C    0 0-1

  39 O    1     1.3793     2.6064    3 B    0 0 0
  39 O    1     1.3793     2.6065    2 B   -1-2 3
  39 O    1     2.3882     4.5130   37 O    0 0 0
  39 O    1     2.3882     4.5131   38 O   -1-2 3
  39 O    1     2.5390     4.7980   19 C    0-1 2
  39 O    1     2.5391     4.7982   31 C   -1-1 2

  40 O    1     1.3795     2.6068    6 B    0 0 0
  40 O    1     1.3795     2.6068    4 B    0 0 0
  40 O    1     2.3880     4.5126   42 O    0 0 0
  40 O    1     2.3884     4.5134   41 O    0 0 0
  40 O    1     2.5400     4.7998   24 C    0 0 0
  40 O    1     2.5403     4.8005   30 C    0 0 0

  41 O    1     1.3795     2.6069    5 B    0 0 0
  41 O    1     1.3795     2.6070    4 B    0 0 0
  41 O    1     2.3881     4.5128   42 O    0 0 0
  41 O    1     2.3884     4.5134   40 O    0 0 0
  41 O    1     2.5404     4.8006   24 C    0 0 0
  41 O    1     2.5405     4.8008   36 C    0 0 0

  42 O    1     1.3796     2.6071    6 B    0 0 0
  42 O    1     1.3797     2.6072    5 B    0 0 0
  42 O    1     2.3880     4.5126   40 O    0 0 0
  42 O    1     2.3881     4.5128   41 O    0 0 0
  42 O    1     2.5409     4.8016   36 C    0 0 0
  42 O    1     2.5410     4.8019   30 C    0 0 0


 SYMMETRY ALLOWED INTERNAL DEGREE(S) OF FREEDOM: 123
 TTTTTTTTTTTTTTTTTTTTTTTTTTTTTT SYMM        TELAPSE        0.38 TCPU        0.38
 TTTTTTTTTTTTTTTTTTTTTTTTTTTTTT INT_SCREEN  TELAPSE        0.41 TCPU        0.41

 DFT PARAMETERS

     ATOM       ELECTRONS   NET CHARGE   R(ANGSTROM)
   1   5  B       5.0000      0.0000     0.89000000
   7   1  H       1.0000      0.0000     1.11000000
  19   6  C       6.0000      0.0000     0.77000000
  37   8  O       8.0000      0.0000     0.74000000

 SIZE OF GRID=    1344790
 TTTTTTTTTTTTTTTTTTTTTTTTTTTTTT MAKE_GRID2  TELAPSE        7.16 TCPU        7.15
 BECKE WEIGHT FUNCTION
 RADSAFE =     2.00
 TOLERANCES - DENSITY:10**- 6; POTENTIAL:10**- 9; GRID WGT:10**-14

 RADIAL INTEGRATION  - INTERVALS (POINTS,UPPER LIMIT):            1( 75,  4.0*R)

 ANGULAR INTEGRATION - INTERVALS (ACCURACY LEVEL [N. POINTS] UPPER LIMIT):
  1(  4[  86]   0.2)  2(  8[ 194]   0.5)  3( 12[ 350]   0.9)  4( 16[ 974]   3.5)
  5( 12[ 350]9999.0)
 TTTTTTTTTTTTTTTTTTTTTTTTTTTTTT INT_CALC    TELAPSE        7.22 TCPU        7.21
 EEEEEEEEEE INT_CALC TERMINATION  DATE 19 02 2026 TIME 19:23:48.5

 *******************************************************************************
 cof-1_z45_L080_incl                                                             
 CRYSTAL - SCF - TYPE OF CALCULATION :  RESTRICTED CLOSED SHELL
 *******************************************************************************

 CAPPA:IS1  2;IS2  2;IS3  8; K PTS MONK NET  20; SYMMOPS:K SPACE   2;G SPACE   1

 TTTTTTTTTTTTTTTTTTTTTTTTTTTTTT SDIK        TELAPSE        7.83 TCPU       15.21

 AAAAAAAAAAAAAAAAAAAAAAAAAAAAAAAAAAAAAAAAAAAAAAAAAAAAAAAAAAAAAAAAAAAAAAAAAAAAAAA
         ATOMIC WAVEFUNCTION(S)


 NUCLEAR CHARGE  5.0  SYMMETRY SPECIES            S    P
 N. ELECTRONS    5.0  NUMBER OF PRIMITIVE GTOS    8    4
                      NUMBER OF CONTRACTED GTOS   4    2
                      NUMBER OF CLOSED SHELLS     2    0
                      OPEN SHELL OCCUPATION       0    1

  ZNUC  SCFIT    TOTAL HF ENERGY   KINETIC ENERGY   VIRIAL THEOREM ACCURACY
   5.0    11    -2.451164084E+01  2.462155050E+01 -1.995536038E+00  1.5E-06

 NUCLEAR CHARGE  1.0  SYMMETRY SPECIES            S
 N. ELECTRONS    1.0  NUMBER OF PRIMITIVE GTOS    4
                      NUMBER OF CONTRACTED GTOS   2
                      NUMBER OF CLOSED SHELLS     0
                      OPEN SHELL OCCUPATION       1

  ZNUC  SCFIT    TOTAL HF ENERGY   KINETIC ENERGY   VIRIAL THEOREM ACCURACY
   1.0     1    -4.977266687E-01  5.190767460E-01 -1.958869132E+00  0.0E+00

 NUCLEAR CHARGE  6.0  SYMMETRY SPECIES            S    P
 N. ELECTRONS    6.0  NUMBER OF PRIMITIVE GTOS    8    4
                      NUMBER OF CONTRACTED GTOS   4    2
                      NUMBER OF CLOSED SHELLS     2    0
                      OPEN SHELL OCCUPATION       0    2

  ZNUC  SCFIT    TOTAL HF ENERGY   KINETIC ENERGY   VIRIAL THEOREM ACCURACY
   6.0     9    -3.766704647E+01  3.775180683E+01 -1.997754800E+00  1.1E-06

 NUCLEAR CHARGE  8.0  SYMMETRY SPECIES            S    P
 N. ELECTRONS    8.0  NUMBER OF PRIMITIVE GTOS    8    4
                      NUMBER OF CONTRACTED GTOS   4    2
                      NUMBER OF CLOSED SHELLS     2    0
                      OPEN SHELL OCCUPATION       0    4

  ZNUC  SCFIT    TOTAL HF ENERGY   KINETIC ENERGY   VIRIAL THEOREM ACCURACY
   8.0    12    -7.477373220E+01  7.477365593E+01 -2.000001020E+00  3.8E-06

 AAAAAAAAAAAAAAAAAAAAAAAAAAAAAAAAAAAAAAAAAAAAAAAAAAAAAAAAAAAAAAAAAAAAAAAAAAAAAAA

 CHARGE NORMALIZATION FACTOR   1.00000000
 TOTAL ATOMIC CHARGES:
   5.0000000   5.0000000   5.0000000   5.0000000   5.0000000   5.0000000
   1.0000000   1.0000000   1.0000000   1.0000000   1.0000000   1.0000000
   1.0000000   1.0000000   1.0000000   1.0000000   1.0000000   1.0000000
   6.0000000   6.0000000   6.0000000   6.0000000   6.0000000   6.0000000
   6.0000000   6.0000000   6.0000000   6.0000000   6.0000000   6.0000000
   6.0000000   6.0000000   6.0000000   6.0000000   6.0000000   6.0000000
   8.0000000   8.0000000   8.0000000   8.0000000   8.0000000   8.0000000
 TTTTTTTTTTTTTTTTTTTTTTTTTTTTTT MOQGAD      TELAPSE        7.87 TCPU       16.40
 TTTTTTTTTTTTTTTTTTTTTTTTTTTTTT SHELLXN     TELAPSE       12.16 TCPU      153.48
 TTTTTTTTTTTTTTTTTTTTTTTTTTTTTT MONMO3      TELAPSE       12.28 TCPU      157.25
 NUMERICALLY INTEGRATED DENSITY    197.9999652099
 TTTTTTTTTTTTTTTTTTTTTTTTTTTTTT NUMDFT      TELAPSE       12.79 TCPU      173.43
 CYC   0 ETOT(AU) -1.295953808934E+03 DETOT -1.30E+03 tst  0.00E+00 PX  1.00E+00
 TTTTTTTTTTTTTTTTTTTTTTTTTTTTTT DIIS        TELAPSE       12.82 TCPU      174.56
 TTTTTTTTTTTTTTTTTTTTTTTTTTTTTT FDIK        TELAPSE       13.31 TCPU      189.99
 INSULATING STATE
 TOP OF VALENCE BANDS -    BAND     99; K    1; EIG -3.1432937E-01 AU
 BOTTOM OF VIRTUAL BANDS - BAND    100; K    1; EIG -1.5679812E-01 AU
 DIRECT ENERGY BAND GAP:   4.2866 eV
 TTTTTTTTTTTTTTTTTTTTTTTTTTTTTT PDIG        TELAPSE       13.63 TCPU      196.17
 CHARGE NORMALIZATION FACTOR   1.00000000
 TOTAL ATOMIC CHARGES:
   4.1640784   4.1655050   4.1657835   4.1653488   4.1650982   4.1636714
   0.7850859   0.7852031   0.7850422   0.7851682   0.7851178   0.7852785
   0.7851076   0.7852425   0.7850453   0.7852342   0.7850366   0.7851962
   6.0430326   6.2651817   6.2651515   6.2650955   6.2650573   6.0423464
   6.0436901   6.2651770   6.2652408   6.2650891   6.2652509   6.0424589
   6.0434030   6.2648599   6.2654299   6.2648101   6.2654318   6.0418903
   8.6914070   8.6915528   8.6914520   8.6918443   8.6918504   8.6920534
 TTTTTTTTTTTTTTTTTTTTTTTTTTTTTT MOQGAD      TELAPSE       13.67 TCPU      196.21
 TTTTTTTTTTTTTTTTTTTTTTTTTTTTTT SHELLXN     TELAPSE       18.22 TCPU      341.15
 TTTTTTTTTTTTTTTTTTTTTTTTTTTTTT MONMO3      TELAPSE       18.34 TCPU      345.02
 NUMERICALLY INTEGRATED DENSITY    197.9999997315
 TTTTTTTTTTTTTTTTTTTTTTTTTTTTTT NUMDFT      TELAPSE       18.85 TCPU      361.54
 CYC   1 ETOT(AU) -1.288808501569E+03 DETOT  7.15E+00 tst  0.00E+00 PX  1.00E+00
 TTTTTTTTTTTTTTTTTTTTTTTTTTTTTT DIIS        TELAPSE       18.90 TCPU      363.03
 DIIS TEST: 0.11169E+01 AT SCF   CYCLE   1 - MIX   30 %
 TTTTTTTTTTTTTTTTTTTTTTTTTTTTTT FDIK        TELAPSE       19.39 TCPU      378.78
 INSULATING STATE
 TOP OF VALENCE BANDS -    BAND     99; K    1; EIG -2.2629534E-01 AU
 BOTTOM OF VIRTUAL BANDS - BAND    100; K    1; EIG -8.0957064E-02 AU
 DIRECT ENERGY BAND GAP:   3.9549 eV
 TTTTTTTTTTTTTTTTTTTTTTTTTTTTTT PDIG        TELAPSE       19.71 TCPU      384.95
 CHARGE NORMALIZATION FACTOR   1.00000000
 TOTAL ATOMIC CHARGES:
   4.7168574   4.7123361   4.7126513   4.7127013   4.7123801   4.7173051
   0.9086689   0.9087755   0.9088603   0.9086816   0.9084832   0.9086860
   0.9084898   0.9086006   0.9088093   0.9087513   0.9087001   0.9087769
   5.8696481   6.1346950   6.1351411   6.1312376   6.1314989   5.8723358
   5.8732725   6.1292398   6.1303184   6.1296238   6.1302219   5.8766640
   5.8696834   6.1313544   6.1314221   6.1350023   6.1346719   5.8722956
   8.3327173   8.3330364   8.3310654   8.3326741   8.3305987   8.3330666
 TTTTTTTTTTTTTTTTTTTTTTTTTTTTTT MOQGAD      TELAPSE       19.75 TCPU      384.99
 TTTTTTTTTTTTTTTTTTTTTTTTTTTTTT SHELLXN     TELAPSE       24.26 TCPU      528.70
 TTTTTTTTTTTTTTTTTTTTTTTTTTTTTT MONMO3      TELAPSE       24.38 TCPU      532.52
 NUMERICALLY INTEGRATED DENSITY    197.9999920517
 TTTTTTTTTTTTTTTTTTTTTTTTTTTTTT NUMDFT      TELAPSE       24.90 TCPU      549.05
 CYC   2 ETOT(AU) -1.289004028213E+03 DETOT -1.96E-01 tst  3.62E-03 PX  1.58E-01
 TTTTTTTTTTTTTTTTTTTTTTTTTTTTTT DIIS        TELAPSE       24.95 TCPU      550.59
 DIIS TEST: 0.46260E+00 AT SCF   CYCLE   2 - DIIS ACTIVE - HISTORY:     2 CYCLES
 TTTTTTTTTTTTTTTTTTTTTTTTTTTTTT FDIK        TELAPSE       25.44 TCPU      566.29
 INSULATING STATE
 TOP OF VALENCE BANDS -    BAND     99; K    1; EIG -2.3960202E-01 AU
 BOTTOM OF VIRTUAL BANDS - BAND    100; K    1; EIG -7.5637581E-02 AU
 DIRECT ENERGY BAND GAP:   4.4617 eV
 TTTTTTTTTTTTTTTTTTTTTTTTTTTTTT PDIG        TELAPSE       25.76 TCPU      572.46
 CHARGE NORMALIZATION FACTOR   1.00000000
 TOTAL ATOMIC CHARGES:
   4.5080747   4.5053791   4.5057046   4.5056447   4.5052680   4.5082096
   0.8870876   0.8873416   0.8873071   0.8872890   0.8865026   0.8869180
   0.8865608   0.8867948   0.8872762   0.8873402   0.8871777   0.8872638
   5.8894701   6.1609284   6.1603207   6.1606373   6.1604719   5.8891170
   5.8891075   6.1607950   6.1601513   6.1607093   6.1602384   5.8879776
   5.8895247   6.1605992   6.1606313   6.1606779   6.1604454   5.8889886
   8.5087414   8.5090196   8.5099845   8.5089037   8.5102181   8.5092008
 TTTTTTTTTTTTTTTTTTTTTTTTTTTTTT MOQGAD      TELAPSE       25.80 TCPU      572.50
 TTTTTTTTTTTTTTTTTTTTTTTTTTTTTT SHELLXN     TELAPSE       30.31 TCPU      716.40
 TTTTTTTTTTTTTTTTTTTTTTTTTTTTTT MONMO3      TELAPSE       30.44 TCPU      720.31
 NUMERICALLY INTEGRATED DENSITY    197.9999946496
 TTTTTTTTTTTTTTTTTTTTTTTTTTTTTT NUMDFT      TELAPSE       30.96 TCPU      736.91
 CYC   3 ETOT(AU) -1.289099489749E+03 DETOT -9.55E-02 tst  6.68E-04 PX  6.32E-02
 TTTTTTTTTTTTTTTTTTTTTTTTTTTTTT DIIS        TELAPSE       31.01 TCPU      738.74
 DIIS TEST: 0.13194E-01 AT SCF   CYCLE   3 - DIIS ACTIVE - HISTORY:     3 CYCLES
 TTTTTTTTTTTTTTTTTTTTTTTTTTTTTT FDIK        TELAPSE       31.51 TCPU      754.55
 INSULATING STATE
 TOP OF VALENCE BANDS -    BAND     99; K    1; EIG -2.4892944E-01 AU
 BOTTOM OF VIRTUAL BANDS - BAND    100; K    1; EIG -8.4077234E-02 AU
 DIRECT ENERGY BAND GAP:   4.4859 eV
 TTTTTTTTTTTTTTTTTTTTTTTTTTTTTT PDIG        TELAPSE       31.83 TCPU      760.73
 CHARGE NORMALIZATION FACTOR   1.00000000
 TOTAL ATOMIC CHARGES:
   4.5136021   4.5106140   4.5109430   4.5107618   4.5103415   4.5136834
   0.8701408   0.8702351   0.8704066   0.8703500   0.8699205   0.8700499
   0.8699370   0.8699626   0.8703897   0.8704107   0.8701794   0.8702131
   5.9391478   6.1670096   6.1674841   6.1648253   6.1649825   5.9409617
   5.9411191   6.1637919   6.1647054   6.1639841   6.1646053   5.9434803
   5.9393564   6.1647639   6.1650938   6.1670876   6.1672921   5.9407090
   8.4766019   8.4768377   8.4752674   8.4767063   8.4750243   8.4770213
 TTTTTTTTTTTTTTTTTTTTTTTTTTTTTT MOQGAD      TELAPSE       31.86 TCPU      760.77
 TTTTTTTTTTTTTTTTTTTTTTTTTTTTTT SHELLXN     TELAPSE       36.43 TCPU      906.16
 TTTTTTTTTTTTTTTTTTTTTTTTTTTTTT MONMO3      TELAPSE       36.55 TCPU      910.03
 NUMERICALLY INTEGRATED DENSITY    197.9999945681
 TTTTTTTTTTTTTTTTTTTTTTTTTTTTTT NUMDFT      TELAPSE       37.07 TCPU      926.56
 CYC   4 ETOT(AU) -1.289102252775E+03 DETOT -2.76E-03 tst  2.69E-05 PX  1.32E-02
 TTTTTTTTTTTTTTTTTTTTTTTTTTTTTT DIIS        TELAPSE       37.13 TCPU      928.45
 DIIS TEST: 0.39467E-02 AT SCF   CYCLE   4 - DIIS ACTIVE - HISTORY:     4 CYCLES
 TTTTTTTTTTTTTTTTTTTTTTTTTTTTTT FDIK        TELAPSE       37.62 TCPU      944.13
 INSULATING STATE
 TOP OF VALENCE BANDS -    BAND     99; K    1; EIG -2.4720050E-01 AU
 BOTTOM OF VIRTUAL BANDS - BAND    100; K    1; EIG -8.3826289E-02 AU
 DIRECT ENERGY BAND GAP:   4.4456 eV
 TTTTTTTTTTTTTTTTTTTTTTTTTTTTTT PDIG        TELAPSE       37.94 TCPU      950.31
 CHARGE NORMALIZATION FACTOR   1.00000000
 TOTAL ATOMIC CHARGES:
   4.5162425   4.5128114   4.5131513   4.5131128   4.5127123   4.5164943
   0.8731418   0.8733747   0.8733783   0.8733508   0.8727452   0.8730932
   0.8727847   0.8729822   0.8733490   0.8734105   0.8732117   0.8733226
   5.9206568   6.1673729   6.1669723   6.1657873   6.1656378   5.9209140
   5.9219098   6.1653394   6.1650896   6.1653433   6.1651544   5.9216911
   5.9206993   6.1657637   6.1657499   6.1672282   6.1669911   5.9208095
   8.4861442   8.4864332   8.4863777   8.4862477   8.4864365   8.4865812
 TTTTTTTTTTTTTTTTTTTTTTTTTTTTTT MOQGAD      TELAPSE       37.98 TCPU      950.35
 TTTTTTTTTTTTTTTTTTTTTTTTTTTTTT SHELLXN     TELAPSE       42.43 TCPU     1092.15
 TTTTTTTTTTTTTTTTTTTTTTTTTTTTTT MONMO3      TELAPSE       42.55 TCPU     1095.90
 NUMERICALLY INTEGRATED DENSITY    197.9999947138
 TTTTTTTTTTTTTTTTTTTTTTTTTTTTTT NUMDFT      TELAPSE       43.06 TCPU     1112.29
 CYC   5 ETOT(AU) -1.289103157652E+03 DETOT -9.05E-04 tst  6.76E-06 PX  6.49E-03
 TTTTTTTTTTTTTTTTTTTTTTTTTTTTTT DIIS        TELAPSE       43.13 TCPU     1114.50
 DIIS TEST: 0.65045E-04 AT SCF   CYCLE   5 - DIIS ACTIVE - HISTORY:     5 CYCLES
 TTTTTTTTTTTTTTTTTTTTTTTTTTTTTT FDIK        TELAPSE       43.62 TCPU     1130.14
 INSULATING STATE
 TOP OF VALENCE BANDS -    BAND     99; K    1; EIG -2.4706922E-01 AU
 BOTTOM OF VIRTUAL BANDS - BAND    100; K    1; EIG -8.3260761E-02 AU
 DIRECT ENERGY BAND GAP:   4.4575 eV
 TTTTTTTTTTTTTTTTTTTTTTTTTTTTTT PDIG        TELAPSE       43.94 TCPU     1136.33
 CHARGE NORMALIZATION FACTOR   1.00000000
 TOTAL ATOMIC CHARGES:
   4.5158148   4.5127460   4.5130774   4.5129066   4.5125098   4.5158883
   0.8740625   0.8741817   0.8742804   0.8742154   0.8737064   0.8738958
   0.8737259   0.8738052   0.8742559   0.8742702   0.8741099   0.8741526
   5.9200930   6.1666491   6.1669386   6.1651577   6.1653000   5.9214793
   5.9209081   6.1644524   6.1651192   6.1646003   6.1650350   5.9225715
   5.9202946   6.1651042   6.1654366   6.1666629   6.1668015   5.9212177
   8.4858099   8.4860374   8.4853290   8.4859502   8.4852096   8.4862373
 TTTTTTTTTTTTTTTTTTTTTTTTTTTTTT MOQGAD      TELAPSE       43.98 TCPU     1136.37
 TTTTTTTTTTTTTTTTTTTTTTTTTTTTTT SHELLXN     TELAPSE       48.53 TCPU     1281.16
 TTTTTTTTTTTTTTTTTTTTTTTTTTTTTT MONMO3      TELAPSE       48.65 TCPU     1285.04
 NUMERICALLY INTEGRATED DENSITY    197.9999946707
 TTTTTTTTTTTTTTTTTTTTTTTTTTTTTT NUMDFT      TELAPSE       49.17 TCPU     1301.62
 CYC   6 ETOT(AU) -1.289103177542E+03 DETOT -1.99E-05 tst  1.90E-07 PX  8.60E-04
 TTTTTTTTTTTTTTTTTTTTTTTTTTTTTT DIIS        TELAPSE       49.24 TCPU     1303.81
 DIIS TEST: 0.42161E-05 AT SCF   CYCLE   6 - DIIS ACTIVE - HISTORY:     6 CYCLES
 TTTTTTTTTTTTTTTTTTTTTTTTTTTTTT FDIK        TELAPSE       49.73 TCPU     1319.47
 INSULATING STATE
 TOP OF VALENCE BANDS -    BAND     99; K    1; EIG -2.4703082E-01 AU
 BOTTOM OF VIRTUAL BANDS - BAND    100; K    1; EIG -8.3343544E-02 AU
 DIRECT ENERGY BAND GAP:   4.4542 eV
 TTTTTTTTTTTTTTTTTTTTTTTTTTTTTT PDIG        TELAPSE       50.05 TCPU     1325.64
 CHARGE NORMALIZATION FACTOR   1.00000000
 TOTAL ATOMIC CHARGES:
   4.5160619   4.5127433   4.5130827   4.5130483   4.5126453   4.5163061
   0.8739959   0.8742264   0.8742517   0.8742271   0.8736011   0.8739538
   0.8736431   0.8738401   0.8742231   0.8742860   0.8740690   0.8741714
   5.9209238   6.1666952   6.1662861   6.1650787   6.1649136   5.9211720
   5.9222378   6.1646442   6.1643556   6.1646370   6.1644308   5.9220056
   5.9209525   6.1650507   6.1650276   6.1665400   6.1663172   5.9210831
   8.4856982   8.4859949   8.4857948   8.4857957   8.4858482   8.4861405
 TTTTTTTTTTTTTTTTTTTTTTTTTTTTTT MOQGAD      TELAPSE       50.09 TCPU     1325.68
 TTTTTTTTTTTTTTTTTTTTTTTTTTTTTT SHELLXN     TELAPSE       54.62 TCPU     1469.73
 TTTTTTTTTTTTTTTTTTTTTTTTTTTTTT MONMO3      TELAPSE       54.74 TCPU     1473.57
 NUMERICALLY INTEGRATED DENSITY    197.9999946766
 TTTTTTTTTTTTTTTTTTTTTTTTTTTTTT NUMDFT      TELAPSE       55.26 TCPU     1490.12
 CYC   7 ETOT(AU) -1.289103177430E+03 DETOT  1.11E-07 tst  2.32E-08 PX  2.81E-04
 TTTTTTTTTTTTTTTTTTTTTTTTTTTTTT DIIS        TELAPSE       55.34 TCPU     1492.70
 DIIS TEST: 0.10531E-05 AT SCF   CYCLE   7 - DIIS ACTIVE - HISTORY:     7 CYCLES
 TTTTTTTTTTTTTTTTTTTTTTTTTTTTTT FDIK        TELAPSE       55.83 TCPU     1508.48
 INSULATING STATE
 TOP OF VALENCE BANDS -    BAND     99; K    1; EIG -2.4704647E-01 AU
 BOTTOM OF VIRTUAL BANDS - BAND    100; K    1; EIG -8.3343201E-02 AU
 DIRECT ENERGY BAND GAP:   4.4546 eV
 TTTTTTTTTTTTTTTTTTTTTTTTTTTTTT PDIG        TELAPSE       56.15 TCPU     1514.66
 CHARGE NORMALIZATION FACTOR   1.00000000
 TOTAL ATOMIC CHARGES:
   4.5160785   4.5128339   4.5131685   4.5130572   4.5126581   4.5162337
   0.8739921   0.8741628   0.8742275   0.8741796   0.8736182   0.8738792
   0.8736469   0.8737791   0.8742007   0.8742369   0.8740500   0.8741232
   5.9204808   6.1666253   6.1665992   6.1650672   6.1650763   5.9213549
   5.9215365   6.1644763   6.1647275   6.1645616   6.1647092   5.9223436
   5.9206145   6.1650289   6.1651994   6.1665703   6.1665298   5.9211612
   8.4857860   8.4860404   8.4856492   8.4859091   8.4856107   8.4862159
 TTTTTTTTTTTTTTTTTTTTTTTTTTTTTT MOQGAD      TELAPSE       56.19 TCPU     1514.70
 TTTTTTTTTTTTTTTTTTTTTTTTTTTTTT SHELLXN     TELAPSE       60.71 TCPU     1658.50
 +++ ENERGIES IN A.U. +++
 ::: EXT EL-POLE                                  -1.1952076003193E+03
 ::: EXT EL-SPHEROPOLE                             1.2692480557870E+01
 ::: BIELET ZONE E-E                               1.9183026321238E+03
 ::: TOTAL E-E                                     7.3578751236233E+02
 ::: TOTAL E-N + N-E                              -3.3044253085950E+03
 ::: TOTAL N-N                                     1.3329611242143E+02
 ::: KINETIC ENERGY                                1.2799611257993E+03
 ::: PSEUDO TOTAL   ENERGY                        -1.1553805580119E+03
 ::: VIRIAL COEFFICIENT                            1.0511552726320E+00
 TTTTTTTTTTTTTTTTTTTTTTTTTTTTTT MONMO3      TELAPSE       60.83 TCPU     1662.42
 NUMERICALLY INTEGRATED DENSITY    197.9999946752
 EXCHANGE ENERGY: -0.126032801381E+03  CORRELATION ENERGY: -0.768981836010E+01
 TTTTTTTTTTTTTTTTTTTTTTTTTTTTTT NUMDFT      TELAPSE       61.35 TCPU     1678.99
 CYC   8 ETOT(AU) -1.289103177753E+03 DETOT -3.22E-07 tst  7.14E-09 PX  2.81E-04

 == SCF ENDED - CONVERGENCE ON ENERGY      E(AU) -1.2891031777527E+03 CYCLES   8


 ENERGY EXPRESSION=HARTREE+FOCK EXCH*0.00000+(HSESOL     EXCH)*1.00000+PBESOL     CORR


 TOTAL ENERGY(DFT)(AU)(  8) -1.2891031777527E+03 DE-3.2E-07 tester 7.1E-09
 TTTTTTTTTTTTTTTTTTTTTTTTTTTTTT EDFT        TELAPSE       61.35 TCPU     1679.00
 
 INFORMATION **** DFTD3 ENERGY **** CALCULATE DFTD3 ENERGY

           DFT-D V3(BJ)
 DF                                         hsesol3c  
 parameters
 s6       :    1.0000
 s8       :    0.0000
 a1       :    0.5196
 a2       :    4.9385
 k1 k3    :   16.0000   -4.0000
 Cutoff   :   50.2022
 CN-Cutoff:   21.1671
 ABC-Cutoff:   21.1671
 
 Edisp /kcal,au:   -20.8822 -0.03327796

 E6    /kcal :   -21.7570
 E8    /kcal :     0.0000
 E6(ABC) "   :   0.874721
 
 INFORMATION **** DFTD3 ENERGY **** NORMAL TERMINATION OF DFTD3 MODULE

 GCP ENERGY CALCULATION
  level        hsesol3c            basis:hsesol3c
  Nbf            474
  Atoms           42

  Parameters: 
  sigma     1.0000
  eta       1.4281
  alpha     0.2936
  beta      1.9467

  dmp_scal      4.0000
  dmp_exp       6.0000
 cutoffs: 
   distance [bohr] 60.0
   noise    [a.u.] 2.2E-16
 SR-damping   T
 ** gCP correction **
  Egcp:        0.0829189555 / (a.u.) ||      52.0324 / (kcal/mol)
 INFORMATION **** GCP **** NORMAL TERMINATION OF GCP MODULE

 *******************************************************************************

 DFT-D3-GCP DISPERSION AND COUNTERPOISE CORRECTION

 D3 DISPERSION ENERGY (AU)      -3.3277961045472E-02
 GCP ENERGY (AU)                 8.2918955515504E-02
 TOTAL ENERGY + DISP + GCP (AU) -1.2890535367583E+03

 *******************************************************************************

 EIGENVECTORS IN FORTRAN UNIT  8
 TTTTTTTTTTTTTTTTTTTTTTTTTTTTTT END         TELAPSE       62.58 TCPU     1686.15
 EEEEEEEEEE TERMINATION  DATE 19 02 2026 TIME 19:24:43.8
