 Default number of threads is:           32

         
 *******************************************************************************
 *                                                                             *
 *                               CRYSTAL23                                     *
 *                      public : 1.0.1 - October 2022                          *
 *                       HTTP://WWW.CRYSTAL.UNITO.IT                           *
 *                                                                             *
 *                              MAIN AUTHORS                                   *
 *                                                                             *
 *  R. DOVESI(1,11), V.R. SAUNDERS(2), C. ROETTI(1,11), R. ORLANDO(1,11),      *
 *  C.M. ZICOVICH-WILSON(1,3), F. PASCALE(4), B. CIVALLERI(1,11),              *
 *  K. DOLL(5), N.M. HARRISON(6), I.J. BUSH(7), Ph. D'ARCO(8),                 *
 *  M. LLUNELL(9), M. CAUSA'(10), Y. NOEL(8), L. MASCHIO(1,11), A. ERBA(1,11)  *
 *  M. RE'RAT(14), S. CASASSA(1,11), B.G. SEARLE(2), J.K. DESMARAIS(1)         *
 *                                                                             *
 *        CONTRIBUTIONS TO THE CODE HAVE ALSO BEEN GIVEN BY                    *
 *                                                                             *
 *  M. FERRABONE(1,11), M. DE LA PIERRE(1,11), M. FERRERO(1,11),               *
 *  J. BAIMA(1,11), E. ALBANESE(1,11), M.F. PEINTINGER(12), R. BAST(13),       *
 *  B. KIRTMAN(15), V. LACIVITA(1,11), R. DEMICHELIS(1,16)                     *
 *  G. BRANDEBURG(17), S. SALUSTRO(1,11), G. SANSONE(1,11)                     *
 *  M.T. RUGGIERO(18), L.E. DAGA(1), L. DONA'(1), A. COSSARD(1)                *
 *                                                                             *
 * (1) THEORETICAL CHEMISTRY GROUP - UNIVERSITA' DI TORINO - TORINO (ITALY)    *
 * (2) SCIENTIFIC COMPUTING DEPARTMENT - STFC DARESBURY (UK)                   *
 * (3) UNIVERSIDAD AUTONOMA DEL ESTADO DE MORELOS - CUERNAVACA (MEXICO)        *
 * (4) UNIVERSITE' DE LORRAINE - NANCY (FRANCE)                                *
 * (5) UNIVERSITAET STUTTGART- STUTTGART (GERMANY)                             *
 * (6) IMPERIAL COLLEGE - LONDON (UK)                                          *
 * (7) SCIENTIFIC COMPUTING DEPARTMENT - STFC RAL (UK)                         *
 * (8) UPMC - SORBONNE UNIVERSITES - PARIS (FRANCE)                            *
 * (9) UNIVERSIDAD DE BARCELONA - BARCELONA (SPAIN)                            *
 *(10) UNIVERSITA' DI NAPOLI "FEDERICO II" - NAPOLI (ITALY)                    *
 *(11) NIS - NANOSTRUCTURED INTERFACES AND SURFACES - TORINO (ITALY)           *
 *(12) MPI FUER CHEMISCHE ENERGIEKONVERSION - MUELHEIM AN DER RUHR (GERMANY)   *
 *(13) UNIVERSITY OF TROMSO - TROMSO (NORWAY)                                  *
 *(14) UNIVERSITE' DE PAU ET DES PAYS DE L'ADOUR - PAU (FRANCE)                *
 *(15) UNIVERSITY OF CALIFORNIA SANTA BARBARA - SANTA BARBARA (USA)            *
 *(16) CURTIN UNIVERSITY - PERTH (AUSTRALIA)                                   *
 *(17) UNIVERSITY COLLEGE LONDON - LONDON (UK)                                 *
 *(18) UNIVERSITY OF VERMONT - BURLINGTON (USA)                                *
 *                                                                             *
 *******************************************************************************
 EEEEEEEEEE STARTING  DATE 02 12 2025 TIME 08:02:33.2
 COF-5_z39_inc_L030                                                              

 CRYSTAL CALCULATION
 (INPUT ACCORDING TO THE INTERNATIONAL TABLES FOR X-RAY CRYSTALLOGRAPHY)
 CRYSTAL FAMILY                       :  TRICLINIC   
 CRYSTAL CLASS  (GROTH - 1921)        :  TRICLINIC PEDIAL                     

 SPACE GROUP (NONCENTROSYMMETRIC)     :  P 1             

 LATTICE PARAMETERS  (ANGSTROMS AND DEGREES) - CONVENTIONAL CELL
        A           B           C        ALPHA        BETA       GAMMA
    15.02070    15.04439     4.92037    58.15005    89.99943   120.05310


 NUMBER OF IRREDUCIBLE ATOMS IN THE CONVENTIONAL CELL:   42

 INPUT COORDINATES

 ATOM AT. N.              COORDINATES
   1   5     5.577627000000E-01  1.127349000000E-01  5.006472300000E-01
   2   5     7.165409500000E-01  2.717593200000E-01  5.006572200000E-01
   3   5     5.574744800000E-01  2.717761500000E-01  4.992272700000E-01
   4   5     1.703821300000E-01  4.979141600000E-01  5.054421700000E-01
   5   5     3.284894200000E-01  4.964817100000E-01  5.094860200000E-01
   6   5     3.294513400000E-01  6.571945800000E-01  5.035204500000E-01
   7   1     8.461172200000E-01  1.933103200000E-01  5.045455800000E-01
   8   1     4.190448000000E-02  5.778718700000E-01  4.929553900000E-01
   9   1     8.475381800000E-01  4.806042500000E-01  4.928171000000E-01
  10   1     4.060645000000E-02  2.906234700000E-01  5.041141600000E-01
  11   1     5.361318100000E-01  7.870621100000E-01  5.042362300000E-01
  12   1     3.511071300000E-01 -1.530814000000E-02  4.945876000000E-01
  13   1     2.526158300000E-01  7.906789500000E-01  4.958944300000E-01
  14   1     6.344484600000E-01 -1.881906000000E-02  5.023749200000E-01
  15   1     5.364739800000E-01  5.758826200000E-01  4.977918800000E-01
  16   1     3.482065500000E-01  1.923612000000E-01  5.060749100000E-01
  17   1     2.508846700000E-01  2.883667300000E-01  5.057100400000E-01
  18   1     6.341575300000E-01  4.798083400000E-01  4.987253200000E-01
  19   6     8.358623500000E-01  3.312460000000E-01  5.004072300000E-01
  20   6     8.901824700000E-01  2.776626500000E-01  5.021733000000E-01
  21   6    -2.061710000000E-03  4.934717500000E-01  4.957804800000E-01
  22   6     8.909208500000E-01  4.398691700000E-01  4.961176400000E-01
  23   6    -2.712500000000E-03  3.313759000000E-01  5.015296000000E-01
  24   6     5.204109000000E-02  4.395509800000E-01  4.993463600000E-01
  25   6     3.886029700000E-01  7.769465800000E-01  5.018886700000E-01
  26   6     4.964311500000E-01  8.313387400000E-01  5.022788500000E-01
  27   6     3.905813800000E-01 -5.990062000000E-02  4.970025500000E-01
  28   6     3.363338000000E-01  8.328864400000E-01  4.981212100000E-01
  29   6     5.506805500000E-01 -6.146359000000E-02  5.008414600000E-01
  30   6     4.981887600000E-01 -6.096150000000E-03  4.992172300000E-01
  31   6     3.884232000000E-01  4.383308800000E-01  4.999884300000E-01
  32   6     4.963361200000E-01  4.917129200000E-01  4.994369600000E-01
  33   6     3.889758300000E-01  2.766413500000E-01  5.039604300000E-01
  34   6     3.351446200000E-01  3.298270100000E-01  5.033525000000E-01
  35   6     5.500413300000E-01  4.384322100000E-01  5.003753000000E-01
  36   6     4.971432100000E-01  3.304228000000E-01  5.016171400000E-01
  37   8     5.047650100000E-01  1.657876600000E-01  4.996171300000E-01
  38   8     6.635789400000E-01  1.653960300000E-01  5.026071300000E-01
  39   8     6.637096500000E-01  3.251810600000E-01  4.980874800000E-01
  40   8     2.235314200000E-01  6.043951800000E-01  5.027538000000E-01
  41   8     2.224263900000E-01  4.436085300000E-01  5.102414500000E-01
  42   8     3.820543000000E-01  6.035361000000E-01  5.052255000000E-01

 *******************************************************************************

 << INFORMATION >>: FROM NOW ON, ALL COORDINATES REFER TO THE PRIMITIVE CELL

 *******************************************************************************

 LATTICE PARAMETERS  (ANGSTROMS AND DEGREES) - PRIMITIVE CELL
       A          B          C        ALPHA      BETA     GAMMA        VOLUME
   15.02070   15.04439    4.92037    58.15005  89.99943 120.05310    762.864065

 COORDINATES OF THE EQUIVALENT ATOMS (FRACTIONAL UNITS)

 N. ATOM EQUIV AT. N.          X                  Y                  Z

   1   1   1    5 B    -4.42237300000E-01  1.12734900000E-01 -4.99352770000E-01

   2   2   1    5 B    -2.83459050000E-01  2.71759320000E-01 -4.99342780000E-01

   3   3   1    5 B    -4.42525520000E-01  2.71776150000E-01  4.99227270000E-01

   4   4   1    5 B     1.70382130000E-01  4.97914160000E-01 -4.94557830000E-01

   5   5   1    5 B     3.28489420000E-01  4.96481710000E-01 -4.90513980000E-01

   6   6   1    5 B     3.29451340000E-01 -3.42805420000E-01 -4.96479550000E-01

   7   7   1    1 H    -1.53882780000E-01  1.93310320000E-01 -4.95454420000E-01

   8   8   1    1 H     4.19044800000E-02 -4.22128130000E-01  4.92955390000E-01

   9   9   1    1 H    -1.52461820000E-01  4.80604250000E-01  4.92817100000E-01

  10  10   1    1 H     4.06064500000E-02  2.90623470000E-01 -4.95885840000E-01

  11  11   1    1 H    -4.63868190000E-01 -2.12937890000E-01 -4.95763770000E-01

  12  12   1    1 H     3.51107130000E-01 -1.53081400000E-02  4.94587600000E-01

  13  13   1    1 H     2.52615830000E-01 -2.09321050000E-01  4.95894430000E-01

  14  14   1    1 H    -3.65551540000E-01 -1.88190600000E-02 -4.97625080000E-01

  15  15   1    1 H    -4.63526020000E-01 -4.24117380000E-01  4.97791880000E-01

  16  16   1    1 H     3.48206550000E-01  1.92361200000E-01 -4.93925090000E-01

  17  17   1    1 H     2.50884670000E-01  2.88366730000E-01 -4.94289960000E-01

  18  18   1    1 H    -3.65842470000E-01  4.79808340000E-01  4.98725320000E-01

  19  19   1    6 C    -1.64137650000E-01  3.31246000000E-01 -4.99592770000E-01

  20  20   1    6 C    -1.09817530000E-01  2.77662650000E-01 -4.97826700000E-01

  21  21   1    6 C    -2.06171000000E-03  4.93471750000E-01  4.95780480000E-01

  22  22   1    6 C    -1.09079150000E-01  4.39869170000E-01  4.96117640000E-01

  23  23   1    6 C    -2.71250000000E-03  3.31375900000E-01 -4.98470400000E-01

  24  24   1    6 C     5.20410900000E-02  4.39550980000E-01  4.99346360000E-01

  25  25   1    6 C     3.88602970000E-01 -2.23053420000E-01 -4.98111330000E-01

  26  26   1    6 C     4.96431150000E-01 -1.68661260000E-01 -4.97721150000E-01

  27  27   1    6 C     3.90581380000E-01 -5.99006200000E-02  4.97002550000E-01

  28  28   1    6 C     3.36333800000E-01 -1.67113560000E-01  4.98121210000E-01

  29  29   1    6 C    -4.49319450000E-01 -6.14635900000E-02 -4.99158540000E-01

  30  30   1    6 C     4.98188760000E-01 -6.09615000000E-03  4.99217230000E-01

  31  31   1    6 C     3.88423200000E-01  4.38330880000E-01  4.99988430000E-01

  32  32   1    6 C     4.96336120000E-01  4.91712920000E-01  4.99436960000E-01

  33  33   1    6 C     3.88975830000E-01  2.76641350000E-01 -4.96039570000E-01

  34  34   1    6 C     3.35144620000E-01  3.29827010000E-01 -4.96647500000E-01

  35  35   1    6 C    -4.49958670000E-01  4.38432210000E-01 -4.99624700000E-01

  36  36   1    6 C     4.97143210000E-01  3.30422800000E-01 -4.98382860000E-01

  37  37   1    8 O    -4.95234990000E-01  1.65787660000E-01  4.99617130000E-01

  38  38   1    8 O    -3.36421060000E-01  1.65396030000E-01 -4.97392870000E-01

  39  39   1    8 O    -3.36290350000E-01  3.25181060000E-01  4.98087480000E-01

  40  40   1    8 O     2.23531420000E-01 -3.95604820000E-01 -4.97246200000E-01

  41  41   1    8 O     2.22426390000E-01  4.43608530000E-01 -4.89758550000E-01

  42  42   1    8 O     3.82054300000E-01 -3.96463900000E-01 -4.94774500000E-01

 NUMBER OF SYMMETRY OPERATORS         :    1
 *******************************************************************************
 * GEOMETRY EDITING - INPUT COORDINATES ARE GIVEN IN ANGSTROM         
 *******************************************************************************

 GCALCO - MAX INDICES DIRECT LATTICE VECTOR     9    11    31
 NO.OF VECTORS CREATED 6999 STARS 3500 RMAX   205.09114 BOHR

 GEOMETRY FOR WAVE FUNCTION - DIMENSIONALITY OF THE SYSTEM    3
 (NON PERIODIC DIRECTION: LATTICE PARAMETER FORMALLY SET TO 500)
 *******************************************************************************
 LATTICE PARAMETERS (ANGSTROMS AND DEGREES) - BOHR = 0.5291772083 ANGSTROM
 PRIMITIVE CELL - CENTRING CODE 1/0 VOLUME=   762.864065 - DENSITY  0.849 g/cm^3
         A              B              C           ALPHA      BETA       GAMMA 
    15.02070100    15.04438700     4.92036600    58.150051  89.999434 120.053104
 *******************************************************************************
 ATOMS IN THE ASYMMETRIC UNIT   42 - ATOMS IN THE UNIT CELL:   42
     ATOM                 X/A                 Y/B                 Z/C    
 *******************************************************************************
      1 T   5 B    -4.422373000000E-01  1.127349000000E-01 -4.993527700000E-01
      2 T   5 B    -2.834590500000E-01  2.717593200000E-01 -4.993427800000E-01
      3 T   5 B    -4.425255200000E-01  2.717761500000E-01  4.992272700000E-01
      4 T   5 B     1.703821300000E-01  4.979141600000E-01 -4.945578300000E-01
      5 T   5 B     3.284894200000E-01  4.964817100000E-01 -4.905139800000E-01
      6 T   5 B     3.294513400000E-01 -3.428054200000E-01 -4.964795500000E-01
      7 T   1 H    -1.538827800000E-01  1.933103200000E-01 -4.954544200000E-01
      8 T   1 H     4.190448000000E-02 -4.221281300000E-01  4.929553900000E-01
      9 T   1 H    -1.524618200000E-01  4.806042500000E-01  4.928171000000E-01
     10 T   1 H     4.060645000000E-02  2.906234700000E-01 -4.958858400000E-01
     11 T   1 H    -4.638681900000E-01 -2.129378900000E-01 -4.957637700000E-01
     12 T   1 H     3.511071300000E-01 -1.530814000000E-02  4.945876000000E-01
     13 T   1 H     2.526158300000E-01 -2.093210500000E-01  4.958944300000E-01
     14 T   1 H    -3.655515400000E-01 -1.881906000000E-02 -4.976250800000E-01
     15 T   1 H    -4.635260200000E-01 -4.241173800000E-01  4.977918800000E-01
     16 T   1 H     3.482065500000E-01  1.923612000000E-01 -4.939250900000E-01
     17 T   1 H     2.508846700000E-01  2.883667300000E-01 -4.942899600000E-01
     18 T   1 H    -3.658424700000E-01  4.798083400000E-01  4.987253200000E-01
     19 T   6 C    -1.641376500000E-01  3.312460000000E-01 -4.995927700000E-01
     20 T   6 C    -1.098175300000E-01  2.776626500000E-01 -4.978267000000E-01
     21 T   6 C    -2.061710000000E-03  4.934717500000E-01  4.957804800000E-01
     22 T   6 C    -1.090791500000E-01  4.398691700000E-01  4.961176400000E-01
     23 T   6 C    -2.712500000000E-03  3.313759000000E-01 -4.984704000000E-01
     24 T   6 C     5.204109000000E-02  4.395509800000E-01  4.993463600000E-01
     25 T   6 C     3.886029700000E-01 -2.230534200000E-01 -4.981113300000E-01
     26 T   6 C     4.964311500000E-01 -1.686612600000E-01 -4.977211500000E-01
     27 T   6 C     3.905813800000E-01 -5.990062000000E-02  4.970025500000E-01
     28 T   6 C     3.363338000000E-01 -1.671135600000E-01  4.981212100000E-01
     29 T   6 C    -4.493194500000E-01 -6.146359000000E-02 -4.991585400000E-01
     30 T   6 C     4.981887600000E-01 -6.096150000000E-03  4.992172300000E-01
     31 T   6 C     3.884232000000E-01  4.383308800000E-01  4.999884300000E-01
     32 T   6 C     4.963361200000E-01  4.917129200000E-01  4.994369600000E-01
     33 T   6 C     3.889758300000E-01  2.766413500000E-01 -4.960395700000E-01
     34 T   6 C     3.351446200000E-01  3.298270100000E-01 -4.966475000000E-01
     35 T   6 C    -4.499586700000E-01  4.384322100000E-01 -4.996247000000E-01
     36 T   6 C     4.971432100000E-01  3.304228000000E-01 -4.983828600000E-01
     37 T   8 O    -4.952349900000E-01  1.657876600000E-01  4.996171300000E-01
     38 T   8 O    -3.364210600000E-01  1.653960300000E-01 -4.973928700000E-01
     39 T   8 O    -3.362903500000E-01  3.251810600000E-01  4.980874800000E-01
     40 T   8 O     2.235314200000E-01 -3.956048200000E-01 -4.972462000000E-01
     41 T   8 O     2.224263900000E-01  4.436085300000E-01 -4.897585500000E-01
     42 T   8 O     3.820543000000E-01 -3.964639000000E-01 -4.947745000000E-01

 T = ATOM BELONGING TO THE ASYMMETRIC UNIT

 ****    1 SYMMOPS - TRANSLATORS IN FRACTIONAL UNITS
 **** MATRICES AND TRANSLATORS IN THE CRYSTALLOGRAPHIC REFERENCE FRAME
   V INV                    ROTATION MATRICES                   TRANSLATORS
   1   1  1.00  0.00  0.00  0.00  1.00  0.00  0.00 -0.00  1.00  0.00  0.00  0.00

 DIRECT LATTICE VECTORS CARTESIAN COMPONENTS (ANGSTROM)
          X                    Y                    Z
   0.130013421718E+02  -0.752240388864E+01   0.000000000000E+00
   0.000000000000E+00   0.150443870000E+02   0.000000000000E+00
   0.150233340406E+01   0.259645996586E+01   0.390017840139E+01


 CARTESIAN COORDINATES - PRIMITIVE CELL
 *******************************************************************************
 *      ATOM          X(ANGSTROM)         Y(ANGSTROM)         Z(ANGSTROM)
 *******************************************************************************
    1     5 B    -6.499872805203E+00  3.726165573083E+00 -1.947564888229E+00
    2     5 B    -4.435527439207E+00  4.924222303417E+00 -1.947525925447E+00
    3     5 B     6.495588866389E+00 -1.405078963640E+00 -1.953102985552E+00
    4     5 B     1.472205623836E+00  4.925030512156E+00 -1.928863766805E+00
    5     5 B     3.533887811914E+00  3.724632981512E+00 -1.913092030377E+00
    6     5 B     2.035098383828E+00  3.523274313386E+00 -5.836537219035E+00
    7     1 H    -2.745020402480E+00  2.779376121403E+00 -1.932360627758E+00
    8     1 H     1.285397832120E+00 -5.385942439520E+00  1.922613964928E+00
    9     1 H    -1.241832698528E+00 -5.387531410877E+00  1.922074609257E+00
   10     1 H    -2.170475112025E-01  2.779246105383E+00 -1.934043242724E+00
   11     1 H    -5.273378128924E+00  1.595113036681E+00  1.966611253445E+00
   12     1 H     5.307899408795E+00 -1.587294319442E+00  1.928979875116E+00
   13     1 H     4.029343610914E+00 -3.761815150583E+00  1.934076745257E+00
   14     1 H    -3.997926029280E+00  3.771101472010E+00  1.959351812385E+00
   15     1 H    -5.278611021945E+00 -1.601259375062E+00  1.941477138764E+00
   16     1 H     3.785112341191E+00 -1.007850691505E+00 -1.926395967924E+00
   17     1 H     2.519249122122E+00  1.167640774170E+00 -1.927819026017E+00
   18     1 H    -4.007191425749E+00 -3.779029500914E+00  1.945117721291E+00
   19     6 C    -2.884564657720E+00  4.920930086297E+00 -1.948500931046E+00
   20     6 C    -2.175676964833E+00  3.710769080273E+00 -1.941612942976E+00
   21     6 C    -7.843108250453E-01  6.130303198204E+00 -1.966546081464E+00
   22     6 C    -6.728412500396E-01 -6.318137964405E+00  1.934947304078E+00
   23     6 C    -7.841348734973E-01  3.711493364856E+00 -1.944123487813E+00
   24     6 C    -7.554466915538E-02  4.921373818543E+00 -1.952638513306E+00
   25     6 C    -7.194977875775E+00  2.546607262796E+00  1.957455350637E+00
   26     6 C    -5.792480631388E+00  2.554789933814E+00  1.958977122246E+00
   27     6 C     5.824745700073E+00 -2.548831776558E+00  1.938398610947E+00
   28     6 C     5.121134950788E+00 -3.750807974679E+00  1.942761584517E+00
   29     6 C    -5.089325058386E+00  3.755695143686E+00  1.953371044814E+00
   30     6 C    -5.774228916370E+00  4.979311535292E+00  1.947036258049E+00
   31     6 C     4.298838846627E+00  2.374283178680E+00 -1.950134325760E+00
   32     6 C     5.701023152500E+00  2.364186808470E+00 -1.952285157143E+00
   33     6 C     4.311991046632E+00 -5.208065156424E-02 -1.934642817150E+00
   34     6 C     3.611199752355E+00  1.151426637853E+00 -1.937013852605E+00
   35     6 C    -5.098336104068E+00 -3.764467876204E+00  1.951552937650E+00
   36     6 C     5.714791762994E+00 -6.273468295271E-02 -1.943782066196E+00
   37     8 O     5.810880710927E+00 -2.602096646767E+00 -1.951582462001E+00
   38     8 O    -5.121175238394E+00  3.727516299290E+00 -1.939920928580E+00
   39     8 O    -2.121599046004E+00 -3.732801284562E+00  5.842808432892E+00
   40     8 O     2.159178901259E+00  6.120181514337E+00 -1.939348889414E+00
   41     8 O     2.156060974832E+00  3.728998792736E+00 -1.910145718607E+00
   42     8 O     4.223902423669E+00  4.921201723500E+00 -1.929708818460E+00

 *******************************************************************************
 STARTING BASIS SET HANDLING 
 *******************************************************************************

 Loading internal basis set: SOLDEF2MSVP         

 Please cite in your publication:
 L. Dona', J. G. Brandenburg and B. Civalleri, J. Chem. Phys., 151, 121101 (2019
 )                                                                              
                                                                                
                    

 *******************************************************************************
 LOCAL ATOMIC FUNCTIONS BASIS SET
 *******************************************************************************
   ATOM   X(AU)   Y(AU)   Z(AU)  N. TYPE  EXPONENT  S COEF   P COEF   D/F/G COEF
 *******************************************************************************
   1 B  -12.283   7.041  -3.680
                                  1 S  
                                         2.410E+03 1.755E-03 0.000E+00 0.000E+00
                                         3.619E+02 1.344E-02 0.000E+00 0.000E+00
                                         8.231E+01 6.637E-02 0.000E+00 0.000E+00
                                         2.311E+01 2.303E-01 0.000E+00 0.000E+00
                                         7.252E+00 5.150E-01 0.000E+00 0.000E+00
                                  2 S  
                                         2.367E+00 1.000E+00 0.000E+00 0.000E+00
                                  3 S  
                                         5.533E-01 1.000E+00 0.000E+00 0.000E+00
                                  4 S  
                                         1.716E-01 1.000E+00 0.000E+00 0.000E+00
                           5-     7 P  
                                         6.002E+00 0.000E+00-3.555E-02 0.000E+00
                                         1.240E+00 0.000E+00-1.983E-01 0.000E+00
                                         3.367E-01 0.000E+00-5.048E-01 0.000E+00
                           8-    10 P  
                                         1.256E-01 0.000E+00 1.000E+00 0.000E+00
                          11-    15 D  
                                         8.880E-01 0.000E+00 0.000E+00 1.000E+00
   2 B   -8.382   9.305  -3.680
   3 B   12.275  -2.655  -3.691
   4 B    2.782   9.307  -3.645
   5 B    6.678   7.039  -3.615
   6 B    3.846   6.658 -11.029
   7 H   -5.187   5.252  -3.652
                                 91 S  
                                         1.874E+01 1.968E-02 0.000E+00 0.000E+00
                                         2.826E+00 1.380E-01 0.000E+00 0.000E+00
                                         6.401E-01 4.783E-01 0.000E+00 0.000E+00
                                 92 S  
                                         1.756E-01 1.000E+00 0.000E+00 0.000E+00
   8 H    2.429 -10.178   3.633
   9 H   -2.347 -10.181   3.632
  10 H   -0.410   5.252  -3.655
  11 H   -9.965   3.014   3.716
  12 H   10.030  -3.000   3.645
  13 H    7.614  -7.109   3.655
  14 H   -7.555   7.126   3.703
  15 H   -9.975  -3.026   3.669
  16 H    7.153  -1.905  -3.640
  17 H    4.761   2.207  -3.643
  18 H   -7.572  -7.141   3.676
  19 C   -5.451   9.299  -3.682
                                115 S  
                                         3.624E+03 1.634E-03 0.000E+00 0.000E+00
                                         5.440E+02 1.252E-02 0.000E+00 0.000E+00
                                         1.237E+02 6.211E-02 0.000E+00 0.000E+00
                                         3.476E+01 2.182E-01 0.000E+00 0.000E+00
                                         1.093E+01 4.980E-01 0.000E+00 0.000E+00
                                116 S  
                                         3.574E+00 1.000E+00 0.000E+00 0.000E+00
                                117 S  
                                         7.742E-01 1.000E+00 0.000E+00 0.000E+00
                                118 S  
                                         2.330E-01 1.000E+00 0.000E+00 0.000E+00
                         119-   121 P  
                                         9.443E+00 0.000E+00 3.790E-02 0.000E+00
                                         2.002E+00 0.000E+00 2.082E-01 0.000E+00
                                         5.463E-01 0.000E+00 5.047E-01 0.000E+00
                         122-   124 P  
                                         1.820E-01 0.000E+00 1.000E+00 0.000E+00
                         125-   129 D  
                                         8.880E-01 0.000E+00 0.000E+00 1.000E+00
  20 C   -4.111   7.012  -3.669
  21 C   -1.482  11.585  -3.716
  22 C   -1.271 -11.940   3.657
  23 C   -1.482   7.014  -3.674
  24 C   -0.143   9.300  -3.690
  25 C  -13.597   4.812   3.699
  26 C  -10.946   4.828   3.702
  27 C   11.007  -4.817   3.663
  28 C    9.678  -7.088   3.671
  29 C   -9.617   7.097   3.691
  30 C  -10.912   9.410   3.679
  31 C    8.124   4.487  -3.685
  32 C   10.773   4.468  -3.689
  33 C    8.148  -0.098  -3.656
  34 C    6.824   2.176  -3.660
  35 C   -9.634  -7.114   3.688
  36 C   10.799  -0.119  -3.673
  37 O   10.981  -4.917  -3.688
                                385 S  
                                         6.773E+03 1.727E-03 0.000E+00 0.000E+00
                                         1.017E+03 1.325E-02 0.000E+00 0.000E+00
                                         2.313E+02 6.603E-02 0.000E+00 0.000E+00
                                         6.501E+01 2.353E-01 0.000E+00 0.000E+00
                                         2.050E+01 5.498E-01 0.000E+00 0.000E+00
                                386 S  
                                         6.716E+00 1.000E+00 0.000E+00 0.000E+00
                                387 S  
                                         1.147E+00 1.000E+00 0.000E+00 0.000E+00
                                388 S  
                                         3.342E-01 1.000E+00 0.000E+00 0.000E+00
                         389-   391 P  
                                         1.769E+01 0.000E+00 4.359E-02 0.000E+00
                                         3.854E+00 0.000E+00 2.318E-01 0.000E+00
                                         1.047E+00 0.000E+00 5.146E-01 0.000E+00
                         392-   394 P  
                                         2.759E-01 0.000E+00 1.000E+00 0.000E+00
                         395-   399 D  
                                         8.000E-01 0.000E+00 0.000E+00 1.000E+00
  38 O   -9.678   7.044  -3.666
  39 O   -4.009  -7.054  11.041
  40 O    4.080  11.565  -3.665
  41 O    4.074   7.047  -3.610
  42 O    7.982   9.300  -3.647

 *******************************************************************************
 FINISHED BASIS SET HANDLING 
 *******************************************************************************

 INFORMATION **** SET_MPP **** PCRYSTAL CALCULATION
 INFORMATION **** READM2 **** NEW DEFAULT: FOCK/KS MATRIX MIXING SET TO 30 %
 INFORMATION **** READM2 **** NEW DEFAULT: FULL DIRECT SCF MODE
 INFORMATION **** READM2 **** NEW DEFAULT: COULOMB BIPOLAR BUFFER SET TO 32 Mb
 INFORMATION **** READM2 **** NEW DEFAULT: EXCHANGE BIPOLAR BUFFER SET TO 32 Mb

 *******************************************************************************
 NEW DEFAULT: DFT INTEGRATION GRID INCREASED TO XLGRID
 NEW DEFAULT: DIIS ACCELERATOR ACTIVE
 USE KEYWORD NODIIS TO TURN IT OFF
 *******************************************************************************

 WARNING **** RDDFTP **** HSEsol-HJS ACTIVE
 RANGE SEPARATION - OMEGA:   0.110000000000000     
 WARNING **** RDDFTP **** HSEsol-3c has to be combined with sol-def2-mSVP basis set
 *******************************************************************************
 N. OF ATOMS PER CELL        42  COULOMB OVERLAP TOL         (T1) 10**   -6
 NUMBER OF SHELLS           234  COULOMB PENETRATION TOL     (T2) 10**   -6
 NUMBER OF AO               474  EXCHANGE OVERLAP TOL        (T3) 10**   -6
 N. OF ELECTRONS PER CELL   198  EXCHANGE PSEUDO OVP (F(G))  (T4) 10**   -6
 CORE ELECTRONS PER CELL     60  EXCHANGE PSEUDO OVP (P(G))  (T5) 10**  -12
 N. OF SYMMETRY OPERATORS     1  POLE ORDER IN MONO ZONE                  4
 *******************************************************************************
 TYPE OF CALCULATION :  RESTRICTED CLOSED SHELL
 KOHN-SHAM HAMILTONIAN

 (EXCHANGE)[CORRELATION] FUNCTIONAL:(HSEsol GGA)[PBEsol]

 RANGE-SEPARATED HYBRID FUNCTIONAL 
 OMEGA (SHORT-RANGE)[LONG-RANGE]:(    0.1100)[    0.0000]

 HYBRID EXCHANGE - PERCENTAGE OF FOCK EXCHANGE    25.0000

 CAPPA:IS1  2;IS2  2;IS3  8; K PTS MONK NET  20; SYMMOPS:K SPACE   2;G SPACE   1

 *******************************************************************************
 MAX NUMBER OF SCF CYCLES      50  CONVERGENCE ON DELTAP        10**-16
 WEIGHT OF F(I) IN F(I+1)      30% CONVERGENCE ON ENERGY        10**- 6
 SHRINK. FACT.(MONKH.)    2  2  8  NUMBER OF K POINTS IN THE IBZ     20
 SHRINKING FACTOR(GILAT NET)    8  NUMBER OF K POINTS(GILAT NET)   1028
 *******************************************************************************
 *** K POINTS COORDINATES (OBLIQUE COORDINATES IN UNITS OF IS =  2)
   1-R(  0  0  0)   2-R(  1  0  0)   3-R(  0  1  0)   4-R(  1  1  0)
   5-C(  0  0  1)   6-C(  1  0  1)   7-C(  0  1  1)   8-C(  1  1  1)
   9-C(  0  0  2)  10-C(  1  0  2)  11-C(  0  1  2)  12-C(  1  1  2)
  13-C(  0  0  3)  14-C(  1  0  3)  15-C(  0  1  3)  16-C(  1  1  3)
  17-R(  0  0  4)  18-R(  1  0  4)  19-R(  0  1  4)  20-R(  1  1  4)

 DIRECT LATTICE VECTORS COMPON. (A.U.)     RECIP. LATTICE VECTORS COMPON. (A.U.) 
        X            Y            Z              X            Y            Z
   24.5689761  -14.2152832    0.0000000      0.2557366    0.0000000   -0.0985087
    0.0000000   28.4297713    0.0000000      0.1278719    0.2210072   -0.1963866
    2.8389987    4.9065983    7.3702691      0.0000000    0.0000000    0.8525042

 DISK SPACE FOR EIGENVECTORS (FTN 10)     7189632 REALS

 SYMMETRY ADAPTION OF THE BLOCH FUNCTIONS DISABLED
 TTTTTTTTTTTTTTTTTTTTTTTTTTTTTT gordsh1     TELAPSE        0.04 TCPU        0.04

 MATRIX SIZE: P(G)  327376, F(G)   68224, P(G) IRR  164993, F(G) IRR   68884
 MAX G-VECTOR INDEX FOR 1- AND 2-ELECTRON INTEGRALS  75

 TTTTTTTTTTTTTTTTTTTTTTTTTTTTTT INPUT       TELAPSE        0.33 TCPU        0.33

 NEIGHBORS OF THE NON-EQUIVALENT ATOMS

 N = NUMBER OF NEIGHBORS AT DISTANCE R
    ATOM  N     R/ANG      R/AU   NEIGHBORS (ATOM LABELS AND CELL INDICES)
   1 B    1     1.3787     2.6054   38 O    0 0 0
   1 B    1     1.3795     2.6068   37 O   -1 0 0
   1 B    1     1.5517     2.9323   30 C    0 0-1
   1 B    1     2.3868     4.5104    2 B    0 0 0
   1 B    1     2.3912     4.5187    3 B   -1 0 0
   1 B    1     2.5629     4.8432   27 C   -1 0-1

   2 B    1     1.3792     2.6064   38 O    0 0 0
   2 B    1     1.3798     2.6075   39 O    0 1-2
   2 B    1     1.5510     2.9309   19 C    0 0 0
   2 B    1     2.3868     4.5104    1 B    0 0 0
   2 B    1     2.3894     4.5154    3 B   -1 0 0
   2 B    1     2.5618     4.8411   22 C    0 1-1

   3 B    1     1.3790     2.6060   37 O    0 0 0
   3 B    1     1.3795     2.6069   39 O    1 1-2
   3 B    1     1.5529     2.9346   36 C    0 0 0
   3 B    1     2.3894     4.5154    2 B    1 0 0
   3 B    1     2.3912     4.5187    1 B    1 0 0
   3 B    1     2.5679     4.8526   35 C    1 1-1

   4 B    1     1.3779     2.6038   41 O    0 0 0
   4 B    1     1.3786     2.6051   40 O    0 0 0
   4 B    1     1.5479     2.9252   24 C    0 0 0
   4 B    1     2.3857     4.5084    5 B    0 0 0
   4 B    1     2.3859     4.5087    6 B    0 0 1
   4 B    1     2.5585     4.8349   21 C    0 0 0

   5 B    1     1.3778     2.6037   41 O    0 0 0
   5 B    1     1.3814     2.6104   42 O    0 0 0
   5 B    1     1.5524     2.9336   31 C    0 0 0
   5 B    1     2.3857     4.5084    4 B    0 0 0
   5 B    1     2.3952     4.5263    6 B    0 0 1
   5 B    1     2.5591     4.8359   32 C    0 0 0

   6 B    1     1.3783     2.6045   40 O    0 0-1
   6 B    1     1.3812     2.6101   42 O    0 0-1
   6 B    1     1.5546     2.9377   25 C    1 1-2
   6 B    1     2.3859     4.5087    4 B    0 0-1
   6 B    1     2.3952     4.5263    5 B    0 0-1
   6 B    1     2.5605     4.8386   26 C    1 1-2

   7 H    1     1.0917     2.0629   20 C    0 0 0
   7 H    1     2.1462     4.0556   19 C    0 0 0
   7 H    1     2.1712     4.1029   23 C    0 0 0
   7 H    1     2.5280     4.7772   10 H    0 0 0
   7 H    1     2.5583     4.8346   38 O    0 0 0
   7 H    1     2.7310     5.1609    2 B    0 0 0

   8 H    1     1.0909     2.0615   21 C    0-1 1
   8 H    1     2.1454     4.0543   24 C    0-1 1
   8 H    1     2.1688     4.0985   22 C    0 0 0
   8 H    1     2.5272     4.7758    9 H    0 0 0
   8 H    1     2.5562     4.8306   40 O    0-1 1
   8 H    1     2.7244     5.1483    4 B    0-1 1

   9 H    1     1.0908     2.0614   22 C    0 0 0
   9 H    1     2.1443     4.0521   19 C    0-1 1
   9 H    1     2.1694     4.0995   21 C    0-1 1
   9 H    1     2.5272     4.7758    8 H    0 0 0
   9 H    1     2.5616     4.8407   39 O    0 0-1
   9 H    1     2.7249     5.1492    2 B    0-1 1

  10 H    1     1.0912     2.0621   23 C    0 0 0
  10 H    1     2.1469     4.0570   24 C    0 0 0
  10 H    1     2.1689     4.0986   20 C    0 0 0
  10 H    1     2.5280     4.7772    7 H    0 0 0
  10 H    1     2.5562     4.8305   41 O    0 0 0
  10 H    1     2.7309     5.1607    4 B    0 0 0

  11 H    1     1.0911     2.0619   26 C    0 0 0
  11 H    1     2.1443     4.0521   25 C    0 0 0
  11 H    1     2.1684     4.0978   29 C    0 0 0
  11 H    1     2.5223     4.7664   14 H    0 0 0
  11 H    1     2.5622     4.8419   42 O   -1-1 1
  11 H    1     2.7179     5.1361    6 B   -1-1 2

  12 H    1     1.0917     2.0630   27 C    0 0 0
  12 H    1     2.1441     4.0518   30 C    1 0 0
  12 H    1     2.1716     4.1037   28 C    0 0 0
  12 H    1     2.5226     4.7669   13 H    0 0 0
  12 H    1     2.5541     4.8265   37 O    0 0 1
  12 H    1     2.7237     5.1471    1 B    1 0 1

  13 H    1     1.0919     2.0634   28 C    0 0 0
  13 H    1     2.1522     4.0671   25 C    1 0 0
  13 H    1     2.1668     4.0946   27 C    0 0 0
  13 H    1     2.5226     4.7669   12 H    0 0 0
  13 H    1     2.5923     4.8987   40 O    0-1 1
  13 H    1     2.7583     5.2124    6 B    0-1 2

  14 H    1     1.0915     2.0627   29 C    0 0 0
  14 H    1     2.1483     4.0597   30 C    0 0 0
  14 H    1     2.1679     4.0968   26 C    0 0 0
  14 H    1     2.5223     4.7664   11 H    0 0 0
  14 H    1     2.5809     4.8771   38 O    0 0 1
  14 H    1     2.7404     5.1785    1 B    0 0 1

  15 H    1     1.0916     2.0628   32 C   -1-1 1
  15 H    1     2.1436     4.0508   31 C   -1-1 1
  15 H    1     2.1707     4.1021   35 C    0 0 0
  15 H    1     2.5217     4.7654   18 H    0 0 0
  15 H    1     2.5568     4.8316   42 O   -1-1 1
  15 H    1     2.7166     5.1336    5 B   -1-1 1

  16 H    1     1.0914     2.0625   33 C    0 0 0
  16 H    1     2.1488     4.0606   36 C    0 0 0
  16 H    1     2.1663     4.0937   34 C    0 0 0
  16 H    1     2.5170     4.7564   17 H    0 0 0
  16 H    1     2.5780     4.8717   37 O    0 0 0
  16 H    1     2.7396     5.1770    3 B    0 0 0

  17 H    1     1.0921     2.0638   34 C    0 0 0
  17 H    1     2.1502     4.0633   31 C    0 0 0
  17 H    1     2.1683     4.0976   33 C    0 0 0
  17 H    1     2.5170     4.7564   16 H    0 0 0
  17 H    1     2.5870     4.8888   41 O    0 0 0
  17 H    1     2.7510     5.1986    5 B    0 0 0

  18 H    1     1.0913     2.0622   35 C    0 0 0
  18 H    1     2.1495     4.0619   36 C   -1-1 1
  18 H    1     2.1656     4.0923   32 C   -1-1 1
  18 H    1     2.5217     4.7654   15 H    0 0 0
  18 H    1     2.5789     4.8734   39 O    0 0-1
  18 H    1     2.7392     5.1763    3 B   -1-1 1

  19 C    1     1.4017     2.6489   22 C    0 1-1
  19 C    1     1.4025     2.6504   20 C    0 0 0
  19 C    1     1.5510     2.9309    2 B    0 0 0
  19 C    1     2.1443     4.0521    9 H    0 1-1
  19 C    1     2.1462     4.0556    7 H    0 0 0
  19 C    1     2.4236     4.5800   21 C    0 0 0

  20 C    1     1.0917     2.0629    7 H    0 0 0
  20 C    1     1.3915     2.6296   23 C    0 0 0
  20 C    1     1.4025     2.6504   19 C    0 0 0
  20 C    1     2.1689     4.0986   10 H    0 0 0
  20 C    1     2.4191     4.5715   22 C    0 1-1
  20 C    1     2.4241     4.5809   24 C    0 0 0

  21 C    1     1.0909     2.0615    8 H    0 1-1
  21 C    1     1.3909     2.6284   22 C    0 1-1
  21 C    1     1.4014     2.6484   24 C    0 0 0
  21 C    1     2.1694     4.0995    9 H    0 1-1
  21 C    1     2.4189     4.5711   23 C    0 0 0
  21 C    1     2.4236     4.5800   19 C    0 0 0

  22 C    1     1.0908     2.0614    9 H    0 0 0
  22 C    1     1.3909     2.6284   21 C    0-1 1
  22 C    1     1.4017     2.6489   19 C    0-1 1
  22 C    1     2.1688     4.0985    8 H    0 0 0
  22 C    1     2.4191     4.5715   20 C    0-1 1
  22 C    1     2.4226     4.5780   24 C    0-1 1

  23 C    1     1.0912     2.0621   10 H    0 0 0
  23 C    1     1.3915     2.6296   20 C    0 0 0
  23 C    1     1.4021     2.6497   24 C    0 0 0
  23 C    1     2.1712     4.1029    7 H    0 0 0
  23 C    1     2.4189     4.5711   21 C    0 0 0
  23 C    1     2.4237     4.5802   19 C    0 0 0

  24 C    1     1.4014     2.6484   21 C    0 0 0
  24 C    1     1.4021     2.6497   23 C    0 0 0
  24 C    1     1.5479     2.9252    4 B    0 0 0
  24 C    1     2.1454     4.0543    8 H    0 1-1
  24 C    1     2.1469     4.0570   10 H    0 0 0
  24 C    1     2.4226     4.5780   22 C    0 1-1

  25 C    1     1.4025     2.6504   26 C    0 0 0
  25 C    1     1.4037     2.6526   28 C   -1 0 0
  25 C    1     1.5546     2.9377    6 B   -1-1 2
  25 C    1     2.1443     4.0521   11 H    0 0 0
  25 C    1     2.1522     4.0671   13 H   -1 0 0
  25 C    1     2.4271     4.5866   27 C   -1 0 0

  26 C    1     1.0911     2.0619   11 H    0 0 0
  26 C    1     1.3916     2.6298   29 C    0 0 0
  26 C    1     1.4025     2.6504   25 C    0 0 0
  26 C    1     2.1679     4.0968   14 H    0 0 0
  26 C    1     2.4165     4.5665   28 C   -1 0 0
  26 C    1     2.4246     4.5819   30 C    0 0 0

  27 C    1     1.0917     2.0630   12 H    0 0 0
  27 C    1     1.3928     2.6320   28 C    0 0 0
  27 C    1     1.4024     2.6502   30 C    1 0 0
  27 C    1     2.1668     4.0946   13 H    0 0 0
  27 C    1     2.4166     4.5668   29 C    1 0 0
  27 C    1     2.4271     4.5866   25 C    1 0 0

  28 C    1     1.0919     2.0634   13 H    0 0 0
  28 C    1     1.3928     2.6320   27 C    0 0 0
  28 C    1     1.4037     2.6526   25 C    1 0 0
  28 C    1     2.1716     4.1037   12 H    0 0 0
  28 C    1     2.4165     4.5665   26 C    1 0 0
  28 C    1     2.4277     4.5877   30 C    1 0 0

  29 C    1     1.0915     2.0627   14 H    0 0 0
  29 C    1     1.3916     2.6298   26 C    0 0 0
  29 C    1     1.4023     2.6499   30 C    0 0 0
  29 C    1     2.1684     4.0978   11 H    0 0 0
  29 C    1     2.4166     4.5668   27 C   -1 0 0
  29 C    1     2.4281     4.5884   25 C    0 0 0

  30 C    1     1.4023     2.6499   29 C    0 0 0
  30 C    1     1.4024     2.6502   27 C   -1 0 0
  30 C    1     1.5517     2.9323    1 B    0 0 1
  30 C    1     2.1441     4.0518   12 H   -1 0 0
  30 C    1     2.1483     4.0597   14 H    0 0 0
  30 C    1     2.4246     4.5819   26 C    0 0 0

  31 C    1     1.4022     2.6498   32 C    0 0 0
  31 C    1     1.4030     2.6513   34 C    0 0 0
  31 C    1     1.5524     2.9336    5 B    0 0 0
  31 C    1     2.1436     4.0508   15 H    1 1-1
  31 C    1     2.1502     4.0633   17 H    0 0 0
  31 C    1     2.4264     4.5853   33 C    0 0 0

  32 C    1     1.0916     2.0628   15 H    1 1-1
  32 C    1     1.3918     2.6301   35 C    1 1-1
  32 C    1     1.4022     2.6498   31 C    0 0 0
  32 C    1     2.1656     4.0923   18 H    1 1-1
  32 C    1     2.4163     4.5661   34 C    0 0 0
  32 C    1     2.4270     4.5863   36 C    0 0 0

  33 C    1     1.0914     2.0625   16 H    0 0 0
  33 C    1     1.3927     2.6318   34 C    0 0 0
  33 C    1     1.4029     2.6510   36 C    0 0 0
  33 C    1     2.1683     4.0976   17 H    0 0 0
  33 C    1     2.4155     4.5646   35 C    1 1-1
  33 C    1     2.4264     4.5853   31 C    0 0 0

  34 C    1     1.0921     2.0638   17 H    0 0 0
  34 C    1     1.3927     2.6318   33 C    0 0 0
  34 C    1     1.4030     2.6513   31 C    0 0 0
  34 C    1     2.1663     4.0937   16 H    0 0 0
  34 C    1     2.4163     4.5661   32 C    0 0 0
  34 C    1     2.4289     4.5899   36 C    0 0 0

  35 C    1     1.0913     2.0622   18 H    0 0 0
  35 C    1     1.3918     2.6301   32 C   -1-1 1
  35 C    1     1.4029     2.6511   36 C   -1-1 1
  35 C    1     2.1707     4.1021   15 H    0 0 0
  35 C    1     2.4155     4.5646   33 C   -1-1 1
  35 C    1     2.4269     4.5861   31 C   -1-1 1

  36 C    1     1.4029     2.6510   33 C    0 0 0
  36 C    1     1.4029     2.6511   35 C    1 1-1
  36 C    1     1.5529     2.9346    3 B    0 0 0
  36 C    1     2.1488     4.0606   16 H    0 0 0
  36 C    1     2.1495     4.0619   18 H    1 1-1
  36 C    1     2.4270     4.5863   32 C    0 0 0

  37 O    1     1.3790     2.6060    3 B    0 0 0
  37 O    1     1.3795     2.6068    1 B    1 0 0
  37 O    1     2.3868     4.5105   39 O    1 1-2
  37 O    1     2.3885     4.5136   38 O    1 0 0
  37 O    1     2.5389     4.7979   30 C    1 0-1
  37 O    1     2.5412     4.8022   36 C    0 0 0

  38 O    1     1.3787     2.6054    1 B    0 0 0
  38 O    1     1.3792     2.6064    2 B    0 0 0
  38 O    1     2.3885     4.5136   37 O   -1 0 0
  38 O    1     2.3912     4.5188   39 O    0 1-2
  38 O    1     2.5351     4.7906   19 C    0 0 0
  38 O    1     2.5405     4.8008   30 C    0 0-1

  39 O    1     1.3795     2.6069    3 B   -1-1 2
  39 O    1     1.3798     2.6075    2 B    0-1 2
  39 O    1     2.3868     4.5105   37 O   -1-1 2
  39 O    1     2.3912     4.5188   38 O    0-1 2
  39 O    1     2.5416     4.8030   19 C    0-1 2
  39 O    1     2.5427     4.8050   36 C   -1-1 2

  40 O    1     1.3783     2.6045    6 B    0 0 1
  40 O    1     1.3786     2.6051    4 B    0 0 0
  40 O    1     2.3876     4.5119   42 O    0 0 0
  40 O    1     2.3914     4.5190   41 O    0 0 0
  40 O    1     2.5354     4.7912   25 C    1 1-1
  40 O    1     2.5360     4.7923   24 C    0 0 0

  41 O    1     1.3778     2.6037    5 B    0 0 0
  41 O    1     1.3779     2.6038    4 B    0 0 0
  41 O    1     2.3870     4.5107   42 O    0 0 0
  41 O    1     2.3914     4.5190   40 O    0 0 0
  41 O    1     2.5305     4.7820   24 C    0 0 0
  41 O    1     2.5354     4.7912   31 C    0 0 0

  42 O    1     1.3812     2.6101    6 B    0 0 1
  42 O    1     1.3814     2.6104    5 B    0 0 0
  42 O    1     2.3870     4.5107   41 O    0 0 0
  42 O    1     2.3876     4.5119   40 O    0 0 0
  42 O    1     2.5481     4.8152   31 C    0 0 0
  42 O    1     2.5522     4.8230   25 C    1 1-1


 SYMMETRY ALLOWED INTERNAL DEGREE(S) OF FREEDOM: 123
 TTTTTTTTTTTTTTTTTTTTTTTTTTTTTT SYMM        TELAPSE        0.33 TCPU        0.33
 TTTTTTTTTTTTTTTTTTTTTTTTTTTTTT INT_SCREEN  TELAPSE        0.37 TCPU        0.36

 DFT PARAMETERS

     ATOM       ELECTRONS   NET CHARGE   R(ANGSTROM)
   1   5  B       5.0000      0.0000     0.89000000
   7   1  H       1.0000      0.0000     1.11000000
  19   6  C       6.0000      0.0000     0.77000000
  37   8  O       8.0000      0.0000     0.74000000

 SIZE OF GRID=    1306088
 TTTTTTTTTTTTTTTTTTTTTTTTTTTTTT MAKE_GRID2  TELAPSE        9.51 TCPU        9.49
 BECKE WEIGHT FUNCTION
 RADSAFE =     2.00
 TOLERANCES - DENSITY:10**- 6; POTENTIAL:10**- 9; GRID WGT:10**-14

 RADIAL INTEGRATION  - INTERVALS (POINTS,UPPER LIMIT):            1( 75,  4.0*R)

 ANGULAR INTEGRATION - INTERVALS (ACCURACY LEVEL [N. POINTS] UPPER LIMIT):
  1(  4[  86]   0.2)  2(  8[ 194]   0.5)  3( 12[ 350]   0.9)  4( 16[ 974]   3.5)
  5( 12[ 350]9999.0)
 TTTTTTTTTTTTTTTTTTTTTTTTTTTTTT INT_CALC    TELAPSE        9.60 TCPU        9.58
 EEEEEEEEEE INT_CALC TERMINATION  DATE 02 12 2025 TIME 08:02:42.8

 *******************************************************************************
 COF-5_z39_inc_L030                                                              
 CRYSTAL - SCF - TYPE OF CALCULATION :  RESTRICTED CLOSED SHELL
 *******************************************************************************

 CAPPA:IS1  2;IS2  2;IS3  8; K PTS MONK NET  20; SYMMOPS:K SPACE   2;G SPACE   1

 TTTTTTTTTTTTTTTTTTTTTTTTTTTTTT SDIK        TELAPSE       10.37 TCPU       21.87

 AAAAAAAAAAAAAAAAAAAAAAAAAAAAAAAAAAAAAAAAAAAAAAAAAAAAAAAAAAAAAAAAAAAAAAAAAAAAAAA
         ATOMIC WAVEFUNCTION(S)


 NUCLEAR CHARGE  5.0  SYMMETRY SPECIES            S    P
 N. ELECTRONS    5.0  NUMBER OF PRIMITIVE GTOS    8    4
                      NUMBER OF CONTRACTED GTOS   4    2
                      NUMBER OF CLOSED SHELLS     2    0
                      OPEN SHELL OCCUPATION       0    1

  ZNUC  SCFIT    TOTAL HF ENERGY   KINETIC ENERGY   VIRIAL THEOREM ACCURACY
   5.0    11    -2.451164084E+01  2.462155050E+01 -1.995536038E+00  1.5E-06

 NUCLEAR CHARGE  1.0  SYMMETRY SPECIES            S
 N. ELECTRONS    1.0  NUMBER OF PRIMITIVE GTOS    4
                      NUMBER OF CONTRACTED GTOS   2
                      NUMBER OF CLOSED SHELLS     0
                      OPEN SHELL OCCUPATION       1

  ZNUC  SCFIT    TOTAL HF ENERGY   KINETIC ENERGY   VIRIAL THEOREM ACCURACY
   1.0     1    -4.977266687E-01  5.190767460E-01 -1.958869132E+00  0.0E+00

 NUCLEAR CHARGE  6.0  SYMMETRY SPECIES            S    P
 N. ELECTRONS    6.0  NUMBER OF PRIMITIVE GTOS    8    4
                      NUMBER OF CONTRACTED GTOS   4    2
                      NUMBER OF CLOSED SHELLS     2    0
                      OPEN SHELL OCCUPATION       0    2

  ZNUC  SCFIT    TOTAL HF ENERGY   KINETIC ENERGY   VIRIAL THEOREM ACCURACY
   6.0     9    -3.766704647E+01  3.775180683E+01 -1.997754800E+00  1.1E-06

 NUCLEAR CHARGE  8.0  SYMMETRY SPECIES            S    P
 N. ELECTRONS    8.0  NUMBER OF PRIMITIVE GTOS    8    4
                      NUMBER OF CONTRACTED GTOS   4    2
                      NUMBER OF CLOSED SHELLS     2    0
                      OPEN SHELL OCCUPATION       0    4

  ZNUC  SCFIT    TOTAL HF ENERGY   KINETIC ENERGY   VIRIAL THEOREM ACCURACY
   8.0    12    -7.477373220E+01  7.477365593E+01 -2.000001020E+00  3.8E-06

 AAAAAAAAAAAAAAAAAAAAAAAAAAAAAAAAAAAAAAAAAAAAAAAAAAAAAAAAAAAAAAAAAAAAAAAAAAAAAAA

 CHARGE NORMALIZATION FACTOR   1.00000000
 TOTAL ATOMIC CHARGES:
   5.0000000   5.0000000   5.0000000   5.0000000   5.0000000   5.0000000
   1.0000000   1.0000000   1.0000000   1.0000000   1.0000000   1.0000000
   1.0000000   1.0000000   1.0000000   1.0000000   1.0000000   1.0000000
   6.0000000   6.0000000   6.0000000   6.0000000   6.0000000   6.0000000
   6.0000000   6.0000000   6.0000000   6.0000000   6.0000000   6.0000000
   6.0000000   6.0000000   6.0000000   6.0000000   6.0000000   6.0000000
   8.0000000   8.0000000   8.0000000   8.0000000   8.0000000   8.0000000
 TTTTTTTTTTTTTTTTTTTTTTTTTTTTTT MOQGAD      TELAPSE       10.47 TCPU       24.81
 TTTTTTTTTTTTTTTTTTTTTTTTTTTTTT SHELLXN     TELAPSE       17.76 TCPU      257.02
 TTTTTTTTTTTTTTTTTTTTTTTTTTTTTT MONMO3      TELAPSE       17.91 TCPU      261.68
 NUMERICALLY INTEGRATED DENSITY    197.9999868197
 TTTTTTTTTTTTTTTTTTTTTTTTTTTTTT NUMDFT      TELAPSE       18.48 TCPU      279.79
 CYC   0 ETOT(AU) -1.295949542110E+03 DETOT -1.30E+03 tst  0.00E+00 PX  1.00E+00
 TTTTTTTTTTTTTTTTTTTTTTTTTTTTTT DIIS        TELAPSE       18.51 TCPU      280.90
 TTTTTTTTTTTTTTTTTTTTTTTTTTTTTT FDIK        TELAPSE       19.00 TCPU      296.37
 INSULATING STATE
 TOP OF VALENCE BANDS -    BAND     99; K   17; EIG -3.1144041E-01 AU
 TOP OF VALENCE BANDS -    BAND     99; K    1; EIG -3.1325162E-01 AU
 BOTTOM OF VIRTUAL BANDS - BAND    100; K    1; EIG -1.5955090E-01 AU
 INDIRECT ENERGY BAND GAP:   4.1331 eV
 TTTTTTTTTTTTTTTTTTTTTTTTTTTTTT PDIG        TELAPSE       19.30 TCPU      302.53
 CHARGE NORMALIZATION FACTOR   1.00000000
 TOTAL ATOMIC CHARGES:
   4.1514062   4.1610581   4.1622358   4.1638807   4.1612096   4.1506526
   0.7852868   0.7852540   0.7851315   0.7851358   0.7856701   0.7855835
   0.7865439   0.7861200   0.7850063   0.7855869   0.7853002   0.7855434
   6.0439537   6.2658764   6.2659271   6.2657397   6.2644340   6.0462750
   6.0438181   6.2664508   6.2646949   6.2671613   6.2670191   6.0474320
   6.0431630   6.2659420   6.2668112   6.2652248   6.2668774   6.0406636
   8.6947982   8.6939942   8.6944329   8.6935711   8.6931305   8.6960032
 TTTTTTTTTTTTTTTTTTTTTTTTTTTTTT MOQGAD      TELAPSE       19.35 TCPU      302.57
 TTTTTTTTTTTTTTTTTTTTTTTTTTTTTT SHELLXN     TELAPSE       26.88 TCPU      543.02
 TTTTTTTTTTTTTTTTTTTTTTTTTTTTTT MONMO3      TELAPSE       27.03 TCPU      547.67
 NUMERICALLY INTEGRATED DENSITY    197.9999978002
 TTTTTTTTTTTTTTTTTTTTTTTTTTTTTT NUMDFT      TELAPSE       27.60 TCPU      566.00
 CYC   1 ETOT(AU) -1.288820380770E+03 DETOT  7.13E+00 tst  0.00E+00 PX  1.00E+00
 TTTTTTTTTTTTTTTTTTTTTTTTTTTTTT DIIS        TELAPSE       27.65 TCPU      567.47
 DIIS TEST: 0.10965E+01 AT SCF   CYCLE   1 - MIX   30 %
 TTTTTTTTTTTTTTTTTTTTTTTTTTTTTT FDIK        TELAPSE       28.13 TCPU      582.96
 INSULATING STATE
 TOP OF VALENCE BANDS -    BAND     99; K   17; EIG -2.2119904E-01 AU
 TOP OF VALENCE BANDS -    BAND     99; K    1; EIG -2.2685237E-01 AU
 BOTTOM OF VIRTUAL BANDS - BAND    100; K    1; EIG -8.1880718E-02 AU
 INDIRECT ENERGY BAND GAP:   3.7910 eV
 TTTTTTTTTTTTTTTTTTTTTTTTTTTTTT PDIG        TELAPSE       28.43 TCPU      589.11
 CHARGE NORMALIZATION FACTOR   1.00000000
 TOTAL ATOMIC CHARGES:
   4.6808113   4.7016389   4.7020659   4.7026088   4.7018261   4.6809686
   0.9087974   0.9091992   0.9169124   0.9169535   0.9065770   0.9061985
   0.9071891   0.9074521   0.9083113   0.9088428   0.9166581   0.9168052
   5.8676479   6.1257252   6.1237702   6.1442272   6.1466013   5.8637776
   5.8879432   6.1365267   6.1393180   6.1418227   6.1399866   5.8837478
   5.8694486   6.1205832   6.1236638   6.1469150   6.1433756   5.8700658
   8.3323495   8.3309630   8.3496332   8.3295179   8.3467174   8.3358560
 TTTTTTTTTTTTTTTTTTTTTTTTTTTTTT MOQGAD      TELAPSE       28.48 TCPU      589.16
 TTTTTTTTTTTTTTTTTTTTTTTTTTTTTT SHELLXN     TELAPSE       36.02 TCPU      829.52
 TTTTTTTTTTTTTTTTTTTTTTTTTTTTTT MONMO3      TELAPSE       36.16 TCPU      834.16
 NUMERICALLY INTEGRATED DENSITY    197.9999989055
 TTTTTTTTTTTTTTTTTTTTTTTTTTTTTT NUMDFT      TELAPSE       36.74 TCPU      852.50
 CYC   2 ETOT(AU) -1.289014837500E+03 DETOT -1.94E-01 tst  3.97E-03 PX  1.59E-01
 TTTTTTTTTTTTTTTTTTTTTTTTTTTTTT DIIS        TELAPSE       36.78 TCPU      853.99
 DIIS TEST: 0.45401E+00 AT SCF   CYCLE   2 - DIIS ACTIVE - HISTORY:     2 CYCLES
 TTTTTTTTTTTTTTTTTTTTTTTTTTTTTT FDIK        TELAPSE       37.27 TCPU      869.55
 INSULATING STATE
 TOP OF VALENCE BANDS -    BAND     99; K   17; EIG -2.3438272E-01 AU
 TOP OF VALENCE BANDS -    BAND     99; K    1; EIG -2.3785213E-01 AU
 BOTTOM OF VIRTUAL BANDS - BAND    100; K    1; EIG -7.7974371E-02 AU
 INDIRECT ENERGY BAND GAP:   4.2561 eV
 TTTTTTTTTTTTTTTTTTTTTTTTTTTTTT PDIG        TELAPSE       37.57 TCPU      875.71
 CHARGE NORMALIZATION FACTOR   1.00000000
 TOTAL ATOMIC CHARGES:
   4.4796558   4.4966473   4.4972787   4.4983991   4.4965404   4.4793054
   0.8871523   0.8870620   0.8930782   0.8933410   0.8860198   0.8859239
   0.8874887   0.8869893   0.8860002   0.8871039   0.8935340   0.8930173
   5.8893749   6.1615712   6.1622939   6.1585034   6.1584305   5.8910969
   5.9048003   6.1597602   6.1599230   6.1626142   6.1624504   5.9059972
   5.8901175   6.1614297   6.1617776   6.1592235   6.1600704   5.8895783
   8.5157281   8.5152100   8.5125964   8.5146650   8.5103599   8.5178902
 TTTTTTTTTTTTTTTTTTTTTTTTTTTTTT MOQGAD      TELAPSE       37.62 TCPU      875.76
 TTTTTTTTTTTTTTTTTTTTTTTTTTTTTT SHELLXN     TELAPSE       45.16 TCPU     1116.24
 TTTTTTTTTTTTTTTTTTTTTTTTTTTTTT MONMO3      TELAPSE       45.31 TCPU     1120.88
 NUMERICALLY INTEGRATED DENSITY    197.9999987379
 TTTTTTTTTTTTTTTTTTTTTTTTTTTTTT NUMDFT      TELAPSE       45.88 TCPU     1139.23
 CYC   3 ETOT(AU) -1.289108913336E+03 DETOT -9.41E-02 tst  6.82E-04 PX  6.54E-02
 TTTTTTTTTTTTTTTTTTTTTTTTTTTTTT DIIS        TELAPSE       45.94 TCPU     1140.95
 DIIS TEST: 0.13558E-01 AT SCF   CYCLE   3 - DIIS ACTIVE - HISTORY:     3 CYCLES
 TTTTTTTTTTTTTTTTTTTTTTTTTTTTTT FDIK        TELAPSE       46.42 TCPU     1156.45
 INSULATING STATE
 TOP OF VALENCE BANDS -    BAND     99; K   17; EIG -2.4443644E-01 AU
 TOP OF VALENCE BANDS -    BAND     99; K    1; EIG -2.4968163E-01 AU
 BOTTOM OF VIRTUAL BANDS - BAND    100; K    1; EIG -8.6461005E-02 AU
 INDIRECT ENERGY BAND GAP:   4.2987 eV
 TTTTTTTTTTTTTTTTTTTTTTTTTTTTTT PDIG        TELAPSE       46.72 TCPU     1162.62
 CHARGE NORMALIZATION FACTOR   1.00000000
 TOTAL ATOMIC CHARGES:
   4.4866087   4.5008769   4.5013562   4.5025904   4.5007046   4.4864571
   0.8703999   0.8707949   0.8752527   0.8754325   0.8673601   0.8672148
   0.8685776   0.8684756   0.8698454   0.8705562   0.8754805   0.8755475
   5.9390115   6.1614859   6.1595322   6.1736051   6.1742288   5.9367853
   5.9552350   6.1694409   6.1701950   6.1719022   6.1708366   5.9539389
   5.9394386   6.1584622   6.1606979   6.1750011   6.1729090   5.9384549
   8.4772755   8.4759702   8.4897553   8.4748463   8.4876485   8.4798114
 TTTTTTTTTTTTTTTTTTTTTTTTTTTTTT MOQGAD      TELAPSE       46.77 TCPU     1162.66
 TTTTTTTTTTTTTTTTTTTTTTTTTTTTTT SHELLXN     TELAPSE       54.31 TCPU     1403.17
 TTTTTTTTTTTTTTTTTTTTTTTTTTTTTT MONMO3      TELAPSE       54.46 TCPU     1407.81
 NUMERICALLY INTEGRATED DENSITY    197.9999987276
 TTTTTTTTTTTTTTTTTTTTTTTTTTTTTT NUMDFT      TELAPSE       55.03 TCPU     1426.19
 CYC   4 ETOT(AU) -1.289111779286E+03 DETOT -2.87E-03 tst  3.03E-05 PX  1.36E-02
 TTTTTTTTTTTTTTTTTTTTTTTTTTTTTT DIIS        TELAPSE       55.09 TCPU     1427.94
 DIIS TEST: 0.41581E-02 AT SCF   CYCLE   4 - DIIS ACTIVE - HISTORY:     4 CYCLES
 TTTTTTTTTTTTTTTTTTTTTTTTTTTTTT FDIK        TELAPSE       55.57 TCPU     1443.49
 INSULATING STATE
 TOP OF VALENCE BANDS -    BAND     99; K   17; EIG -2.4266286E-01 AU
 TOP OF VALENCE BANDS -    BAND     99; K    1; EIG -2.4729974E-01 AU
 BOTTOM OF VIRTUAL BANDS - BAND    100; K    1; EIG -8.5966226E-02 AU
 INDIRECT ENERGY BAND GAP:   4.2639 eV
 TTTTTTTTTTTTTTTTTTTTTTTTTTTTTT PDIG        TELAPSE       55.87 TCPU     1449.65
 CHARGE NORMALIZATION FACTOR   1.00000000
 TOTAL ATOMIC CHARGES:
   4.4862010   4.5036991   4.5043100   4.5053276   4.5036177   4.4859538
   0.8731468   0.8731730   0.8789305   0.8790956   0.8711764   0.8710028
   0.8724332   0.8721126   0.8722435   0.8732003   0.8792560   0.8789687
   5.9201408   6.1638132   6.1638945   6.1701477   6.1705907   5.9206118
   5.9354905   6.1684095   6.1691453   6.1712792   6.1707815   5.9355971
   5.9210868   6.1625721   6.1635556   6.1709909   6.1708845   5.9207606
   8.4902452   8.4893779   8.4939102   8.4886535   8.4915951   8.4926172
 TTTTTTTTTTTTTTTTTTTTTTTTTTTTTT MOQGAD      TELAPSE       55.92 TCPU     1449.70
 TTTTTTTTTTTTTTTTTTTTTTTTTTTTTT SHELLXN     TELAPSE       63.47 TCPU     1690.16
 TTTTTTTTTTTTTTTTTTTTTTTTTTTTTT MONMO3      TELAPSE       63.61 TCPU     1694.81
 NUMERICALLY INTEGRATED DENSITY    197.9999987516
 TTTTTTTTTTTTTTTTTTTTTTTTTTTTTT NUMDFT      TELAPSE       64.19 TCPU     1713.18
 CYC   5 ETOT(AU) -1.289112729699E+03 DETOT -9.50E-04 tst  6.18E-06 PX  6.58E-03
 TTTTTTTTTTTTTTTTTTTTTTTTTTTTTT DIIS        TELAPSE       64.25 TCPU     1715.25
 DIIS TEST: 0.66450E-04 AT SCF   CYCLE   5 - DIIS ACTIVE - HISTORY:     5 CYCLES
 TTTTTTTTTTTTTTTTTTTTTTTTTTTTTT FDIK        TELAPSE       64.74 TCPU     1730.79
 INSULATING STATE
 TOP OF VALENCE BANDS -    BAND     99; K   17; EIG -2.4238688E-01 AU
 TOP OF VALENCE BANDS -    BAND     99; K    1; EIG -2.4704219E-01 AU
 BOTTOM OF VIRTUAL BANDS - BAND    100; K    1; EIG -8.5445412E-02 AU
 INDIRECT ENERGY BAND GAP:   4.2706 eV
 TTTTTTTTTTTTTTTTTTTTTTTTTTTTTT PDIG        TELAPSE       65.04 TCPU     1736.95
 CHARGE NORMALIZATION FACTOR   1.00000000
 TOTAL ATOMIC CHARGES:
   4.4870818   4.5029538   4.5034892   4.5046464   4.5028528   4.4868895
   0.8740720   0.8743501   0.8798318   0.8800531   0.8721510   0.8720281
   0.8734035   0.8732000   0.8733752   0.8741801   0.8800867   0.8800342
   5.9205398   6.1637023   6.1622585   6.1699256   6.1702978   5.9192475
   5.9363632   6.1677290   6.1681344   6.1703383   6.1695974   5.9357686
   5.9210251   6.1613465   6.1631095   6.1713312   6.1698000   5.9198860
   8.4888012   8.4877994   8.4961976   8.4867509   8.4941218   8.4912491
 TTTTTTTTTTTTTTTTTTTTTTTTTTTTTT MOQGAD      TELAPSE       65.09 TCPU     1737.00
 TTTTTTTTTTTTTTTTTTTTTTTTTTTTTT SHELLXN     TELAPSE       72.63 TCPU     1977.47
 TTTTTTTTTTTTTTTTTTTTTTTTTTTTTT MONMO3      TELAPSE       72.78 TCPU     1982.12
 NUMERICALLY INTEGRATED DENSITY    197.9999987576
 TTTTTTTTTTTTTTTTTTTTTTTTTTTTTT NUMDFT      TELAPSE       73.35 TCPU     2000.49
 CYC   6 ETOT(AU) -1.289112746760E+03 DETOT -1.71E-05 tst  1.25E-07 PX  1.06E-03
 TTTTTTTTTTTTTTTTTTTTTTTTTTTTTT DIIS        TELAPSE       73.42 TCPU     2002.62
 DIIS TEST: 0.15564E-04 AT SCF   CYCLE   6 - DIIS ACTIVE - HISTORY:     6 CYCLES
 TTTTTTTTTTTTTTTTTTTTTTTTTTTTTT FDIK        TELAPSE       73.91 TCPU     2018.20
 INSULATING STATE
 TOP OF VALENCE BANDS -    BAND     99; K   17; EIG -2.4241428E-01 AU
 TOP OF VALENCE BANDS -    BAND     99; K    1; EIG -2.4704892E-01 AU
 BOTTOM OF VIRTUAL BANDS - BAND    100; K    1; EIG -8.5486836E-02 AU
 INDIRECT ENERGY BAND GAP:   4.2702 eV
 TTTTTTTTTTTTTTTTTTTTTTTTTTTTTT PDIG        TELAPSE       74.20 TCPU     2024.36
 CHARGE NORMALIZATION FACTOR   1.00000000
 TOTAL ATOMIC CHARGES:
   4.4866680   4.5033426   4.5039386   4.5050131   4.5032518   4.4864195
   0.8741175   0.8742130   0.8797818   0.8799583   0.8720813   0.8719116
   0.8733413   0.8730620   0.8732696   0.8741878   0.8801063   0.8798596
   5.9202525   6.1631421   6.1628938   6.1696131   6.1700332   5.9202870
   5.9359493   6.1676003   6.1683650   6.1704786   6.1697775   5.9358339
   5.9210129   6.1616266   6.1628517   6.1705169   6.1701502   5.9206516
   8.4894901   8.4885172   8.4945471   8.4877624   8.4922658   8.4918576
 TTTTTTTTTTTTTTTTTTTTTTTTTTTTTT MOQGAD      TELAPSE       74.25 TCPU     2024.41
 TTTTTTTTTTTTTTTTTTTTTTTTTTTTTT SHELLXN     TELAPSE       81.80 TCPU     2264.79
 TTTTTTTTTTTTTTTTTTTTTTTTTTTTTT MONMO3      TELAPSE       81.94 TCPU     2269.44
 NUMERICALLY INTEGRATED DENSITY    197.9999987570
 TTTTTTTTTTTTTTTTTTTTTTTTTTTTTT NUMDFT      TELAPSE       82.51 TCPU     2287.75
 CYC   7 ETOT(AU) -1.289112749525E+03 DETOT -2.77E-06 tst  5.10E-08 PX  6.73E-04
 TTTTTTTTTTTTTTTTTTTTTTTTTTTTTT DIIS        TELAPSE       82.59 TCPU     2290.17
 DIIS TEST: 0.11672E-05 AT SCF   CYCLE   7 - DIIS ACTIVE - HISTORY:     7 CYCLES
 TTTTTTTTTTTTTTTTTTTTTTTTTTTTTT FDIK        TELAPSE       83.08 TCPU     2305.75
 INSULATING STATE
 TOP OF VALENCE BANDS -    BAND     99; K   17; EIG -2.4241441E-01 AU
 TOP OF VALENCE BANDS -    BAND     99; K    1; EIG -2.4706353E-01 AU
 BOTTOM OF VIRTUAL BANDS - BAND    100; K    1; EIG -8.5510822E-02 AU
 INDIRECT ENERGY BAND GAP:   4.2696 eV
 TTTTTTTTTTTTTTTTTTTTTTTTTTTTTT PDIG        TELAPSE       83.38 TCPU     2311.91
 CHARGE NORMALIZATION FACTOR   1.00000000
 TOTAL ATOMIC CHARGES:
   4.4867548   4.5033823   4.5039567   4.5050489   4.5032876   4.4865353
   0.8740536   0.8742081   0.8797531   0.8799456   0.8720332   0.8718909
   0.8733033   0.8730305   0.8732519   0.8741352   0.8800454   0.8798765
   5.9203957   6.1633085   6.1626073   6.1696878   6.1701209   5.9199756
   5.9359642   6.1677574   6.1682736   6.1704196   6.1698729   5.9357237
   5.9211490   6.1615146   6.1628549   6.1708331   6.1699834   5.9203504
   8.4893662   8.4884597   8.4948660   8.4875480   8.4926742   8.4918003
 TTTTTTTTTTTTTTTTTTTTTTTTTTTTTT MOQGAD      TELAPSE       83.42 TCPU     2311.96
 TTTTTTTTTTTTTTTTTTTTTTTTTTTTTT SHELLXN     TELAPSE       90.98 TCPU     2552.42
 TTTTTTTTTTTTTTTTTTTTTTTTTTTTTT MONMO3      TELAPSE       91.12 TCPU     2557.07
 NUMERICALLY INTEGRATED DENSITY    197.9999987558
 TTTTTTTTTTTTTTTTTTTTTTTTTTTTTT NUMDFT      TELAPSE       91.70 TCPU     2575.47
 CYC   8 ETOT(AU) -1.289112749585E+03 DETOT -5.94E-08 tst  2.27E-09 PX  1.57E-04
 TTTTTTTTTTTTTTTTTTTTTTTTTTTTTT DIIS        TELAPSE       91.77 TCPU     2577.92
 DIIS TEST: 0.79458E-07 AT SCF   CYCLE   8 - DIIS ACTIVE - HISTORY:     8 CYCLES
 TTTTTTTTTTTTTTTTTTTTTTTTTTTTTT FDIK        TELAPSE       92.26 TCPU     2593.55
 INSULATING STATE
 TOP OF VALENCE BANDS -    BAND     99; K   17; EIG -2.4241812E-01 AU
 TOP OF VALENCE BANDS -    BAND     99; K    1; EIG -2.4706274E-01 AU
 BOTTOM OF VIRTUAL BANDS - BAND    100; K    1; EIG -8.5507437E-02 AU
 INDIRECT ENERGY BAND GAP:   4.2698 eV
 TTTTTTTTTTTTTTTTTTTTTTTTTTTTTT PDIG        TELAPSE       92.56 TCPU     2599.71
 CHARGE NORMALIZATION FACTOR   1.00000000
 TOTAL ATOMIC CHARGES:
   4.4867720   4.5033543   4.5039326   4.5050215   4.5032579   4.4865383
   0.8740541   0.8741904   0.8797521   0.8799402   0.8720470   0.8718848
   0.8733005   0.8730421   0.8732397   0.8741310   0.8800593   0.8798579
   5.9202991   6.1632656   6.1627531   6.1697079   6.1701008   5.9200307
   5.9359913   6.1676447   6.1683575   6.1704943   6.1697607   5.9357764
   5.9209856   6.1615554   6.1629191   6.1707206   6.1700909   5.9204696
   8.4893811   8.4883952   8.4949103   8.4875824   8.4926747   8.4917572
 TTTTTTTTTTTTTTTTTTTTTTTTTTTTTT MOQGAD      TELAPSE       92.61 TCPU     2599.76
 TTTTTTTTTTTTTTTTTTTTTTTTTTTTTT SHELLXN     TELAPSE      100.16 TCPU     2840.25
 +++ ENERGIES IN A.U. +++
 ::: EXT EL-POLE                                  -1.3113818446844E+03
 ::: EXT EL-SPHEROPOLE                             1.4677789223776E+01
 ::: BIELET ZONE E-E                               2.1325223923893E+03
 ::: TOTAL E-E                                     8.3581833692869E+02
 ::: TOTAL E-N + N-E                              -3.5003687613272E+03
 ::: TOTAL N-N                                     2.2924529728591E+02
 ::: KINETIC ENERGY                                1.2799028048803E+03
 ::: PSEUDO TOTAL   ENERGY                        -1.1554023222323E+03
 ::: VIRIAL COEFFICIENT                            1.0511231554773E+00
 TTTTTTTTTTTTTTTTTTTTTTTTTTTTTT MONMO3      TELAPSE      100.30 TCPU     2844.90
 NUMERICALLY INTEGRATED DENSITY    197.9999987561
 EXCHANGE ENERGY: -0.126020196681E+03  CORRELATION ENERGY: -0.769023072455E+01
 TTTTTTTTTTTTTTTTTTTTTTTTTTTTTT NUMDFT      TELAPSE      100.88 TCPU     2863.23
 CYC   9 ETOT(AU) -1.289112749638E+03 DETOT -5.33E-08 tst  7.04E-10 PX  1.57E-04

 == SCF ENDED - CONVERGENCE ON ENERGY      E(AU) -1.2891127496379E+03 CYCLES   9


 ENERGY EXPRESSION=HARTREE+FOCK EXCH*0.00000+(HSESOL     EXCH)*1.00000+PBESOL     CORR


 TOTAL ENERGY(DFT)(AU)(  9) -1.2891127496379E+03 DE-5.3E-08 tester 7.0E-10
 TTTTTTTTTTTTTTTTTTTTTTTTTTTTTT EDFT        TELAPSE      100.88 TCPU     2863.24
 
 INFORMATION **** DFTD3 ENERGY **** CALCULATE DFTD3 ENERGY

           DFT-D V3(BJ)
 DF                                         hsesol3c  
 parameters
 s6       :    1.0000
 s8       :    0.0000
 a1       :    0.5196
 a2       :    4.9385
 k1 k3    :   16.0000   -4.0000
 Cutoff   :   50.2022
 CN-Cutoff:   21.1671
 ABC-Cutoff:   21.1671
 
 Edisp /kcal,au:   -25.6884 -0.04093699

 E6    /kcal :   -27.2863
 E8    /kcal :     0.0000
 E6(ABC) "   :   1.597979
 
 INFORMATION **** DFTD3 ENERGY **** NORMAL TERMINATION OF DFTD3 MODULE

 GCP ENERGY CALCULATION
  level        hsesol3c            basis:hsesol3c
  Nbf            474
  Atoms           42

  Parameters: 
  sigma     1.0000
  eta       1.4281
  alpha     0.2936
  beta      1.9467

  dmp_scal      4.0000
  dmp_exp       6.0000
 cutoffs: 
   distance [bohr] 60.0
   noise    [a.u.] 2.2E-16
 SR-damping   T
 ** gCP correction **
  Egcp:        0.0830109783 / (a.u.) ||      52.0902 / (kcal/mol)
 INFORMATION **** GCP **** NORMAL TERMINATION OF GCP MODULE

 *******************************************************************************

 DFT-D3-GCP DISPERSION AND COUNTERPOISE CORRECTION

 D3 DISPERSION ENERGY (AU)      -4.0936989206637E-02
 GCP ENERGY (AU)                 8.3010978308085E-02
 TOTAL ENERGY + DISP + GCP (AU) -1.2890706756488E+03

 *******************************************************************************

 EIGENVECTORS IN FORTRAN UNIT 10
 TTTTTTTTTTTTTTTTTTTTTTTTTTTTTT END         TELAPSE      102.05 TCPU     2870.39
 EEEEEEEEEE TERMINATION  DATE 02 12 2025 TIME 08:04:15.2
