 Default number of threads is:           32

         
 *******************************************************************************
 *                                                                             *
 *                               CRYSTAL23                                     *
 *                      public : 1.0.1 - October 2022                          *
 *                       HTTP://WWW.CRYSTAL.UNITO.IT                           *
 *                                                                             *
 *                              MAIN AUTHORS                                   *
 *                                                                             *
 *  R. DOVESI(1,11), V.R. SAUNDERS(2), C. ROETTI(1,11), R. ORLANDO(1,11),      *
 *  C.M. ZICOVICH-WILSON(1,3), F. PASCALE(4), B. CIVALLERI(1,11),              *
 *  K. DOLL(5), N.M. HARRISON(6), I.J. BUSH(7), Ph. D'ARCO(8),                 *
 *  M. LLUNELL(9), M. CAUSA'(10), Y. NOEL(8), L. MASCHIO(1,11), A. ERBA(1,11)  *
 *  M. RE'RAT(14), S. CASASSA(1,11), B.G. SEARLE(2), J.K. DESMARAIS(1)         *
 *                                                                             *
 *        CONTRIBUTIONS TO THE CODE HAVE ALSO BEEN GIVEN BY                    *
 *                                                                             *
 *  M. FERRABONE(1,11), M. DE LA PIERRE(1,11), M. FERRERO(1,11),               *
 *  J. BAIMA(1,11), E. ALBANESE(1,11), M.F. PEINTINGER(12), R. BAST(13),       *
 *  B. KIRTMAN(15), V. LACIVITA(1,11), R. DEMICHELIS(1,16)                     *
 *  G. BRANDEBURG(17), S. SALUSTRO(1,11), G. SANSONE(1,11)                     *
 *  M.T. RUGGIERO(18), L.E. DAGA(1), L. DONA'(1), A. COSSARD(1)                *
 *                                                                             *
 * (1) THEORETICAL CHEMISTRY GROUP - UNIVERSITA' DI TORINO - TORINO (ITALY)    *
 * (2) SCIENTIFIC COMPUTING DEPARTMENT - STFC DARESBURY (UK)                   *
 * (3) UNIVERSIDAD AUTONOMA DEL ESTADO DE MORELOS - CUERNAVACA (MEXICO)        *
 * (4) UNIVERSITE' DE LORRAINE - NANCY (FRANCE)                                *
 * (5) UNIVERSITAET STUTTGART- STUTTGART (GERMANY)                             *
 * (6) IMPERIAL COLLEGE - LONDON (UK)                                          *
 * (7) SCIENTIFIC COMPUTING DEPARTMENT - STFC RAL (UK)                         *
 * (8) UPMC - SORBONNE UNIVERSITES - PARIS (FRANCE)                            *
 * (9) UNIVERSIDAD DE BARCELONA - BARCELONA (SPAIN)                            *
 *(10) UNIVERSITA' DI NAPOLI "FEDERICO II" - NAPOLI (ITALY)                    *
 *(11) NIS - NANOSTRUCTURED INTERFACES AND SURFACES - TORINO (ITALY)           *
 *(12) MPI FUER CHEMISCHE ENERGIEKONVERSION - MUELHEIM AN DER RUHR (GERMANY)   *
 *(13) UNIVERSITY OF TROMSO - TROMSO (NORWAY)                                  *
 *(14) UNIVERSITE' DE PAU ET DES PAYS DE L'ADOUR - PAU (FRANCE)                *
 *(15) UNIVERSITY OF CALIFORNIA SANTA BARBARA - SANTA BARBARA (USA)            *
 *(16) CURTIN UNIVERSITY - PERTH (AUSTRALIA)                                   *
 *(17) UNIVERSITY COLLEGE LONDON - LONDON (UK)                                 *
 *(18) UNIVERSITY OF VERMONT - BURLINGTON (USA)                                *
 *                                                                             *
 *******************************************************************************
 EEEEEEEEEE STARTING  DATE 02 12 2025 TIME 07:51:41.4
 COF-5_z30_inc_L010                                                              

 CRYSTAL CALCULATION
 (INPUT ACCORDING TO THE INTERNATIONAL TABLES FOR X-RAY CRYSTALLOGRAPHY)
 CRYSTAL FAMILY                       :  TRICLINIC   
 CRYSTAL CLASS  (GROTH - 1921)        :  TRICLINIC PEDIAL                     

 SPACE GROUP (NONCENTROSYMMETRIC)     :  P 1             

 LATTICE PARAMETERS  (ANGSTROMS AND DEGREES) - CONVENTIONAL CELL
        A           B           C        ALPHA        BETA       GAMMA
    15.02070    15.04439     3.16228    74.11783    89.99932   120.05310


 NUMBER OF IRREDUCIBLE ATOMS IN THE CONVENTIONAL CELL:   42

 INPUT COORDINATES

 ATOM AT. N.              COORDINATES
   1   5     5.963313500000E-01  1.896273500000E-01  5.006602000000E-01
   2   5     7.551103700000E-01  3.486533000000E-01  5.006701900000E-01
   3   5     5.959337400000E-01  3.484505100000E-01  4.992402000000E-01
   4   5     2.093201700000E-01  5.755430500000E-01  5.054552700000E-01
   5   5     3.677389900000E-01  5.747316800000E-01  5.094992200000E-01
   6   5     3.682413400000E-01  7.345283200000E-01  5.035334900000E-01
   7   1     8.849861900000E-01  2.708015000000E-01  5.045586500000E-01
   8   1     7.988057000000E-02  6.535829600000E-01  4.929681600000E-01
   9   1     8.855036100000E-01  5.562941000000E-01  4.928298700000E-01
  10   1     7.944219000000E-02  3.680483900000E-01  5.041272200000E-01
  11   1     5.749769500000E-01  8.645057800000E-01  5.042492900000E-01
  12   1     3.892089600000E-01  6.065364000000E-02  4.946004100000E-01
  13   1     2.908183300000E-01  8.668414400000E-01  4.959072800000E-01
  14   1     6.731502100000E-01  5.833874000000E-02  5.023879400000E-01
  15   1     5.748226600000E-01  6.523365300000E-01  4.978047800000E-01
  16   1     3.871933400000E-01  2.700872700000E-01  5.060880200000E-01
  17   1     2.898433400000E-01  3.660367600000E-01  5.057231400000E-01
  18   1     6.725781200000E-01  5.564056100000E-01  4.987382400000E-01
  19   6     8.744125100000E-01  4.081015900000E-01  5.004202000000E-01
  20   6     9.288686900000E-01  3.547894800000E-01  5.021863100000E-01
  21   6     3.613202000000E-02  5.696167400000E-01  4.957933300000E-01
  22   6     9.291405600000E-01  5.160659400000E-01  4.961304900000E-01
  23   6     3.592413000000E-02  4.084038700000E-01  5.015425900000E-01
  24   6     9.050952000000E-02  5.162436300000E-01  4.993593000000E-01
  25   6     4.272672600000E-01  8.540297000000E-01  5.019016800000E-01
  26   6     5.351254900000E-01  9.084817800000E-01  5.022918600000E-01
  27   6     4.288692600000E-01  1.643206000000E-02  4.970154200000E-01
  28   6     3.747078600000E-01  9.093909300000E-01  4.981341100000E-01
  29   6     5.892641600000E-01  1.545869000000E-02  5.008544400000E-01
  30   6     5.366472500000E-01  7.057667000000E-02  4.992301600000E-01
  31   6     4.269411000000E-01  5.151221400000E-01  5.000013800000E-01
  32   6     5.348115300000E-01  5.684194900000E-01  4.994499000000E-01
  33   6     4.277997200000E-01  3.540426600000E-01  5.039734900000E-01
  34   6     3.739216800000E-01  4.071349500000E-01  5.033655400000E-01
  35   6     5.885890300000E-01  5.152828900000E-01  5.003882700000E-01
  36   6     5.357865800000E-01  4.074642200000E-01  5.016301300000E-01
  37   8     5.432543000000E-01  2.425219000000E-01  4.996300700000E-01
  38   8     7.022985800000E-01  2.425894900000E-01  5.026201500000E-01
  39   8     7.020811100000E-01  4.016803700000E-01  4.981003800000E-01
  40   8     2.622623600000E-01  6.816111700000E-01  5.027668300000E-01
  41   8     2.617341500000E-01  5.219745200000E-01  5.102546700000E-01
  42   8     4.209756500000E-01  6.811317100000E-01  5.052385900000E-01

 *******************************************************************************

 << INFORMATION >>: FROM NOW ON, ALL COORDINATES REFER TO THE PRIMITIVE CELL

 *******************************************************************************

 LATTICE PARAMETERS  (ANGSTROMS AND DEGREES) - PRIMITIVE CELL
       A          B          C        ALPHA      BETA     GAMMA        VOLUME
   15.02070   15.04439    3.16228    74.11783  89.99932 120.05310    586.803358

 COORDINATES OF THE EQUIVALENT ATOMS (FRACTIONAL UNITS)

 N. ATOM EQUIV AT. N.          X                  Y                  Z

   1   1   1    5 B    -4.03668650000E-01  1.89627350000E-01 -4.99339800000E-01

   2   2   1    5 B    -2.44889630000E-01  3.48653300000E-01 -4.99329810000E-01

   3   3   1    5 B    -4.04066260000E-01  3.48450510000E-01  4.99240200000E-01

   4   4   1    5 B     2.09320170000E-01 -4.24456950000E-01 -4.94544730000E-01

   5   5   1    5 B     3.67738990000E-01 -4.25268320000E-01 -4.90500780000E-01

   6   6   1    5 B     3.68241340000E-01 -2.65471680000E-01 -4.96466510000E-01

   7   7   1    1 H    -1.15013810000E-01  2.70801500000E-01 -4.95441350000E-01

   8   8   1    1 H     7.98805700000E-02 -3.46417040000E-01  4.92968160000E-01

   9   9   1    1 H    -1.14496390000E-01 -4.43705900000E-01  4.92829870000E-01

  10  10   1    1 H     7.94421900000E-02  3.68048390000E-01 -4.95872780000E-01

  11  11   1    1 H    -4.25023050000E-01 -1.35494220000E-01 -4.95750710000E-01

  12  12   1    1 H     3.89208960000E-01  6.06536400000E-02  4.94600410000E-01

  13  13   1    1 H     2.90818330000E-01 -1.33158560000E-01  4.95907280000E-01

  14  14   1    1 H    -3.26849790000E-01  5.83387400000E-02 -4.97612060000E-01

  15  15   1    1 H    -4.25177340000E-01 -3.47663470000E-01  4.97804780000E-01

  16  16   1    1 H     3.87193340000E-01  2.70087270000E-01 -4.93911980000E-01

  17  17   1    1 H     2.89843340000E-01  3.66036760000E-01 -4.94276860000E-01

  18  18   1    1 H    -3.27421880000E-01 -4.43594390000E-01  4.98738240000E-01

  19  19   1    6 C    -1.25587490000E-01  4.08101590000E-01 -4.99579800000E-01

  20  20   1    6 C    -7.11313100000E-02  3.54789480000E-01 -4.97813690000E-01

  21  21   1    6 C     3.61320200000E-02 -4.30383260000E-01  4.95793330000E-01

  22  22   1    6 C    -7.08594400000E-02 -4.83934060000E-01  4.96130490000E-01

  23  23   1    6 C     3.59241300000E-02  4.08403870000E-01 -4.98457410000E-01

  24  24   1    6 C     9.05095200000E-02 -4.83756370000E-01  4.99359300000E-01

  25  25   1    6 C     4.27267260000E-01 -1.45970300000E-01 -4.98098320000E-01

  26  26   1    6 C    -4.64874510000E-01 -9.15182200000E-02 -4.97708140000E-01

  27  27   1    6 C     4.28869260000E-01  1.64320600000E-02  4.97015420000E-01

  28  28   1    6 C     3.74707860000E-01 -9.06090700000E-02  4.98134110000E-01

  29  29   1    6 C    -4.10735840000E-01  1.54586900000E-02 -4.99145560000E-01

  30  30   1    6 C    -4.63352750000E-01  7.05766700000E-02  4.99230160000E-01

  31  31   1    6 C     4.26941100000E-01 -4.84877860000E-01 -4.99998620000E-01

  32  32   1    6 C    -4.65188470000E-01 -4.31580510000E-01  4.99449900000E-01

  33  33   1    6 C     4.27799720000E-01  3.54042660000E-01 -4.96026510000E-01

  34  34   1    6 C     3.73921680000E-01  4.07134950000E-01 -4.96634460000E-01

  35  35   1    6 C    -4.11410970000E-01 -4.84717110000E-01 -4.99611730000E-01

  36  36   1    6 C    -4.64213420000E-01  4.07464220000E-01 -4.98369870000E-01

  37  37   1    8 O    -4.56745700000E-01  2.42521900000E-01  4.99630070000E-01

  38  38   1    8 O    -2.97701420000E-01  2.42589490000E-01 -4.97379850000E-01

  39  39   1    8 O    -2.97918890000E-01  4.01680370000E-01  4.98100380000E-01

  40  40   1    8 O     2.62262360000E-01 -3.18388830000E-01 -4.97233170000E-01

  41  41   1    8 O     2.61734150000E-01 -4.78025480000E-01 -4.89745330000E-01

  42  42   1    8 O     4.20975650000E-01 -3.18868290000E-01 -4.94761410000E-01

 NUMBER OF SYMMETRY OPERATORS         :    1
 *******************************************************************************
 * GEOMETRY EDITING - INPUT COORDINATES ARE GIVEN IN ANGSTROM         
 *******************************************************************************

 GCALCO - MAX INDICES DIRECT LATTICE VECTOR     9     9    38
 NO.OF VECTORS CREATED 6999 STARS 3500 RMAX   187.71240 BOHR

 GEOMETRY FOR WAVE FUNCTION - DIMENSIONALITY OF THE SYSTEM    3
 (NON PERIODIC DIRECTION: LATTICE PARAMETER FORMALLY SET TO 500)
 *******************************************************************************
 LATTICE PARAMETERS (ANGSTROMS AND DEGREES) - BOHR = 0.5291772083 ANGSTROM
 PRIMITIVE CELL - CENTRING CODE 1/0 VOLUME=   586.803358 - DENSITY  1.104 g/cm^3
         A              B              C           ALPHA      BETA       GAMMA 
    15.02070100    15.04438700     3.16227800    74.117832  89.999323 120.053104
 *******************************************************************************
 ATOMS IN THE ASYMMETRIC UNIT   42 - ATOMS IN THE UNIT CELL:   42
     ATOM                 X/A                 Y/B                 Z/C    
 *******************************************************************************
      1 T   5 B    -4.036686500000E-01  1.896273500000E-01 -4.993398000000E-01
      2 T   5 B    -2.448896300000E-01  3.486533000000E-01 -4.993298100000E-01
      3 T   5 B    -4.040662600000E-01  3.484505100000E-01  4.992402000000E-01
      4 T   5 B     2.093201700000E-01 -4.244569500000E-01 -4.945447300000E-01
      5 T   5 B     3.677389900000E-01 -4.252683200000E-01 -4.905007800000E-01
      6 T   5 B     3.682413400000E-01 -2.654716800000E-01 -4.964665100000E-01
      7 T   1 H    -1.150138100000E-01  2.708015000000E-01 -4.954413500000E-01
      8 T   1 H     7.988057000000E-02 -3.464170400000E-01  4.929681600000E-01
      9 T   1 H    -1.144963900000E-01 -4.437059000000E-01  4.928298700000E-01
     10 T   1 H     7.944219000000E-02  3.680483900000E-01 -4.958727800000E-01
     11 T   1 H    -4.250230500000E-01 -1.354942200000E-01 -4.957507100000E-01
     12 T   1 H     3.892089600000E-01  6.065364000000E-02  4.946004100000E-01
     13 T   1 H     2.908183300000E-01 -1.331585600000E-01  4.959072800000E-01
     14 T   1 H    -3.268497900000E-01  5.833874000000E-02 -4.976120600000E-01
     15 T   1 H    -4.251773400000E-01 -3.476634700000E-01  4.978047800000E-01
     16 T   1 H     3.871933400000E-01  2.700872700000E-01 -4.939119800000E-01
     17 T   1 H     2.898433400000E-01  3.660367600000E-01 -4.942768600000E-01
     18 T   1 H    -3.274218800000E-01 -4.435943900000E-01  4.987382400000E-01
     19 T   6 C    -1.255874900000E-01  4.081015900000E-01 -4.995798000000E-01
     20 T   6 C    -7.113131000000E-02  3.547894800000E-01 -4.978136900000E-01
     21 T   6 C     3.613202000000E-02 -4.303832600000E-01  4.957933300000E-01
     22 T   6 C    -7.085944000000E-02 -4.839340600000E-01  4.961304900000E-01
     23 T   6 C     3.592413000000E-02  4.084038700000E-01 -4.984574100000E-01
     24 T   6 C     9.050952000000E-02 -4.837563700000E-01  4.993593000000E-01
     25 T   6 C     4.272672600000E-01 -1.459703000000E-01 -4.980983200000E-01
     26 T   6 C    -4.648745100000E-01 -9.151822000000E-02 -4.977081400000E-01
     27 T   6 C     4.288692600000E-01  1.643206000000E-02  4.970154200000E-01
     28 T   6 C     3.747078600000E-01 -9.060907000000E-02  4.981341100000E-01
     29 T   6 C    -4.107358400000E-01  1.545869000000E-02 -4.991455600000E-01
     30 T   6 C    -4.633527500000E-01  7.057667000000E-02  4.992301600000E-01
     31 T   6 C     4.269411000000E-01 -4.848778600000E-01 -4.999986200000E-01
     32 T   6 C    -4.651884700000E-01 -4.315805100000E-01  4.994499000000E-01
     33 T   6 C     4.277997200000E-01  3.540426600000E-01 -4.960265100000E-01
     34 T   6 C     3.739216800000E-01  4.071349500000E-01 -4.966344600000E-01
     35 T   6 C    -4.114109700000E-01 -4.847171100000E-01 -4.996117300000E-01
     36 T   6 C    -4.642134200000E-01  4.074642200000E-01 -4.983698700000E-01
     37 T   8 O    -4.567457000000E-01  2.425219000000E-01  4.996300700000E-01
     38 T   8 O    -2.977014200000E-01  2.425894900000E-01 -4.973798500000E-01
     39 T   8 O    -2.979188900000E-01  4.016803700000E-01  4.981003800000E-01
     40 T   8 O     2.622623600000E-01 -3.183888300000E-01 -4.972331700000E-01
     41 T   8 O     2.617341500000E-01 -4.780254800000E-01 -4.897453300000E-01
     42 T   8 O     4.209756500000E-01 -3.188682900000E-01 -4.947614100000E-01

 T = ATOM BELONGING TO THE ASYMMETRIC UNIT

 ****    1 SYMMOPS - TRANSLATORS IN FRACTIONAL UNITS
 **** MATRICES AND TRANSLATORS IN THE CRYSTALLOGRAPHIC REFERENCE FRAME
   V INV                    ROTATION MATRICES                   TRANSLATORS
   1   1  1.00  0.00  0.00  0.00  1.00  0.00 -0.00 -0.00  1.00  0.00  0.00  0.00

 DIRECT LATTICE VECTORS CARTESIAN COMPONENTS (ANGSTROM)
          X                    Y                    Z
   0.130013421718E+02  -0.752240388864E+01   0.000000000000E+00
   0.000000000000E+00   0.150443870000E+02   0.000000000000E+00
   0.500745538347E+00   0.865388635268E+00   0.300005976025E+01


 CARTESIAN COORDINATES - PRIMITIVE CELL
 *******************************************************************************
 *      ATOM          X(ANGSTROM)         Y(ANGSTROM)         Z(ANGSTROM)
 *******************************************************************************
    1     5 B    -5.498276419637E+00  5.457262873610E+00 -1.498049240670E+00
    2     5 B    -3.433931048470E+00  6.655319536203E+00 -1.498019270073E+00
    3     5 B     7.497185229811E+00  3.260181997191E-01 -1.502309325530E+00
    4     5 B     2.473802086563E+00  6.656128129607E+00 -1.483663744116E+00
    5     5 B     4.535484361752E+00  5.455730806097E+00 -1.471531652448E+00
    6     5 B    -7.961568360115E+00  1.194237268930E+00  1.510630561286E+00
    7     1 H    -1.743423943815E+00  4.510473584040E+00 -1.486353657698E+00
    8     1 H     1.285406230113E+00 -5.385916880336E+00  1.478933939899E+00
    9     1 H    -1.241824385256E+00 -5.387505815793E+00  1.478519061635E+00
   10     1 H     7.845490128923E-01  4.510343506558E+00 -1.487647973480E+00
   11     1 H    -5.273369521759E+00  1.595139167048E+00  1.512778004063E+00
   12     1 H     4.807162275505E+00 -2.452657222535E+00 -1.516228972805E+00
   13     1 H     4.029351976048E+00 -3.761789321224E+00  1.487751475542E+00
   14     1 H    -4.498662977435E+00  2.905738891454E+00 -1.492865917420E+00
   15     1 H    -5.278602558472E+00 -1.601233513470E+00  1.493444088937E+00
   16     1 H     4.786708879651E+00  7.232469128663E-01 -1.481765456302E+00
   17     1 H     3.520845507197E+00  2.898738428433E+00 -1.482860118108E+00
   18     1 H    -4.007182947922E+00 -3.779003645981E+00  1.496244524721E+00
   19     6 C    -1.882968285883E+00  6.652027397086E+00 -1.498769255013E+00
   20     6 C    -1.174080484632E+00  5.441866373790E+00 -1.493470819469E+00
   21     6 C     7.180310533171E-01 -6.317598056290E+00  1.487409618732E+00
   22     6 C    -6.728326962348E-01 -6.318112266462E+00  1.488421118881E+00
   23     6 C     2.174615822398E-01  5.442590679590E+00 -1.495402017938E+00
   24     6 C     9.260516424831E-01  6.652471018665E+00 -1.501952018412E+00
   25     6 C    -7.194969298769E+00  2.546633316717E+00  1.505735033769E+00
   26     6 C    -5.792472163603E+00  2.554815969755E+00  1.506905597086E+00
   27     6 C     5.324008711923E+00 -3.414194658543E+00 -1.508983798483E+00
   28     6 C     5.121143535394E+00 -3.750782180325E+00  1.494432098618E+00
   29     6 C    -5.590062110207E+00  2.890332499925E+00 -1.497466509062E+00
   30     6 C    -6.274965912101E+00  4.113948736643E+00 -1.502339446130E+00
   31     6 C     5.300435250149E+00  4.105380312169E+00 -1.500025740041E+00
   32     6 C    -5.797977163781E+00 -2.561310391072E+00  1.498379547250E+00
   33     6 C     5.313587478925E+00  1.679016809716E+00 -1.488109172667E+00
   34     6 C     4.612796217090E+00  2.882524031779E+00 -1.489933058998E+00
   35     6 C    -5.098327600548E+00 -3.764441985724E+00  1.501194713327E+00
   36     6 C     6.716388168775E+00  1.668362739801E+00 -1.495139392707E+00
   37     8 O     6.812477030617E+00 -8.709993901182E-01 -1.501139692231E+00
   38     8 O    -4.119578767194E+00  5.458613619553E+00 -1.492169273543E+00
   39     8 O    -3.623923885391E+00 -6.329235438706E+00  1.494330906602E+00
   40     8 O     3.661520928088E+00 -6.327719470834E+00  1.508330535470E+00
   41     8 O     3.157657453265E+00  5.460096652511E+00 -1.469265257302E+00
   42     8 O    -7.275097730396E+00 -4.295200844774E-03  1.515745963183E+00

 *******************************************************************************
 STARTING BASIS SET HANDLING 
 *******************************************************************************

 Loading internal basis set: SOLDEF2MSVP         

 Please cite in your publication:
 L. Dona', J. G. Brandenburg and B. Civalleri, J. Chem. Phys., 151, 121101 (2019
 )                                                                              
                                                                                
                    

 *******************************************************************************
 LOCAL ATOMIC FUNCTIONS BASIS SET
 *******************************************************************************
   ATOM   X(AU)   Y(AU)   Z(AU)  N. TYPE  EXPONENT  S COEF   P COEF   D/F/G COEF
 *******************************************************************************
   1 B  -10.390  10.313  -2.831
                                  1 S  
                                         2.410E+03 1.755E-03 0.000E+00 0.000E+00
                                         3.619E+02 1.344E-02 0.000E+00 0.000E+00
                                         8.231E+01 6.637E-02 0.000E+00 0.000E+00
                                         2.311E+01 2.303E-01 0.000E+00 0.000E+00
                                         7.252E+00 5.150E-01 0.000E+00 0.000E+00
                                  2 S  
                                         2.367E+00 1.000E+00 0.000E+00 0.000E+00
                                  3 S  
                                         5.533E-01 1.000E+00 0.000E+00 0.000E+00
                                  4 S  
                                         1.716E-01 1.000E+00 0.000E+00 0.000E+00
                           5-     7 P  
                                         6.002E+00 0.000E+00-3.555E-02 0.000E+00
                                         1.240E+00 0.000E+00-1.983E-01 0.000E+00
                                         3.367E-01 0.000E+00-5.048E-01 0.000E+00
                           8-    10 P  
                                         1.256E-01 0.000E+00 1.000E+00 0.000E+00
                          11-    15 D  
                                         8.880E-01 0.000E+00 0.000E+00 1.000E+00
   2 B   -6.489  12.577  -2.831
   3 B   14.168   0.616  -2.839
   4 B    4.675  12.578  -2.804
   5 B    8.571  10.310  -2.781
   6 B  -15.045   2.257   2.855
   7 H   -3.295   8.524  -2.809
                                 91 S  
                                         1.874E+01 1.968E-02 0.000E+00 0.000E+00
                                         2.826E+00 1.380E-01 0.000E+00 0.000E+00
                                         6.401E-01 4.783E-01 0.000E+00 0.000E+00
                                 92 S  
                                         1.756E-01 1.000E+00 0.000E+00 0.000E+00
   8 H    2.429 -10.178   2.795
   9 H   -2.347 -10.181   2.794
  10 H    1.483   8.523  -2.811
  11 H   -9.965   3.014   2.859
  12 H    9.084  -4.635  -2.865
  13 H    7.614  -7.109   2.811
  14 H   -8.501   5.491  -2.821
  15 H   -9.975  -3.026   2.822
  16 H    9.046   1.367  -2.800
  17 H    6.653   5.478  -2.802
  18 H   -7.572  -7.141   2.827
  19 C   -3.558  12.571  -2.832
                                115 S  
                                         3.624E+03 1.634E-03 0.000E+00 0.000E+00
                                         5.440E+02 1.252E-02 0.000E+00 0.000E+00
                                         1.237E+02 6.211E-02 0.000E+00 0.000E+00
                                         3.476E+01 2.182E-01 0.000E+00 0.000E+00
                                         1.093E+01 4.980E-01 0.000E+00 0.000E+00
                                116 S  
                                         3.574E+00 1.000E+00 0.000E+00 0.000E+00
                                117 S  
                                         7.742E-01 1.000E+00 0.000E+00 0.000E+00
                                118 S  
                                         2.330E-01 1.000E+00 0.000E+00 0.000E+00
                         119-   121 P  
                                         9.443E+00 0.000E+00 3.790E-02 0.000E+00
                                         2.002E+00 0.000E+00 2.082E-01 0.000E+00
                                         5.463E-01 0.000E+00 5.047E-01 0.000E+00
                         122-   124 P  
                                         1.820E-01 0.000E+00 1.000E+00 0.000E+00
                         125-   129 D  
                                         8.880E-01 0.000E+00 0.000E+00 1.000E+00
  20 C   -2.219  10.284  -2.822
  21 C    1.357 -11.939   2.811
  22 C   -1.271 -11.940   2.813
  23 C    0.411  10.285  -2.826
  24 C    1.750  12.571  -2.838
  25 C  -13.597   4.812   2.845
  26 C  -10.946   4.828   2.848
  27 C   10.061  -6.452  -2.852
  28 C    9.678  -7.088   2.824
  29 C  -10.564   5.462  -2.830
  30 C  -11.858   7.774  -2.839
  31 C   10.016   7.758  -2.835
  32 C  -10.957  -4.840   2.832
  33 C   10.041   3.173  -2.812
  34 C    8.717   5.447  -2.816
  35 C   -9.634  -7.114   2.837
  36 C   12.692   3.153  -2.825
  37 O   12.874  -1.646  -2.837
                                385 S  
                                         6.773E+03 1.727E-03 0.000E+00 0.000E+00
                                         1.017E+03 1.325E-02 0.000E+00 0.000E+00
                                         2.313E+02 6.603E-02 0.000E+00 0.000E+00
                                         6.501E+01 2.353E-01 0.000E+00 0.000E+00
                                         2.050E+01 5.498E-01 0.000E+00 0.000E+00
                                386 S  
                                         6.716E+00 1.000E+00 0.000E+00 0.000E+00
                                387 S  
                                         1.147E+00 1.000E+00 0.000E+00 0.000E+00
                                388 S  
                                         3.342E-01 1.000E+00 0.000E+00 0.000E+00
                         389-   391 P  
                                         1.769E+01 0.000E+00 4.359E-02 0.000E+00
                                         3.854E+00 0.000E+00 2.318E-01 0.000E+00
                                         1.047E+00 0.000E+00 5.146E-01 0.000E+00
                         392-   394 P  
                                         2.759E-01 0.000E+00 1.000E+00 0.000E+00
                         395-   399 D  
                                         8.000E-01 0.000E+00 0.000E+00 1.000E+00
  38 O   -7.785  10.315  -2.820
  39 O   -6.848 -11.961   2.824
  40 O    6.919 -11.958   2.850
  41 O    5.967  10.318  -2.777
  42 O  -13.748  -0.008   2.864

 *******************************************************************************
 FINISHED BASIS SET HANDLING 
 *******************************************************************************

 INFORMATION **** SET_MPP **** PCRYSTAL CALCULATION
 INFORMATION **** READM2 **** NEW DEFAULT: FOCK/KS MATRIX MIXING SET TO 30 %
 INFORMATION **** READM2 **** NEW DEFAULT: FULL DIRECT SCF MODE
 INFORMATION **** READM2 **** NEW DEFAULT: COULOMB BIPOLAR BUFFER SET TO 32 Mb
 INFORMATION **** READM2 **** NEW DEFAULT: EXCHANGE BIPOLAR BUFFER SET TO 32 Mb

 *******************************************************************************
 NEW DEFAULT: DFT INTEGRATION GRID INCREASED TO XLGRID
 NEW DEFAULT: DIIS ACCELERATOR ACTIVE
 USE KEYWORD NODIIS TO TURN IT OFF
 *******************************************************************************

 WARNING **** RDDFTP **** HSEsol-HJS ACTIVE
 RANGE SEPARATION - OMEGA:   0.110000000000000     
 WARNING **** RDDFTP **** HSEsol-3c has to be combined with sol-def2-mSVP basis set
 *******************************************************************************
 N. OF ATOMS PER CELL        42  COULOMB OVERLAP TOL         (T1) 10**   -6
 NUMBER OF SHELLS           234  COULOMB PENETRATION TOL     (T2) 10**   -6
 NUMBER OF AO               474  EXCHANGE OVERLAP TOL        (T3) 10**   -6
 N. OF ELECTRONS PER CELL   198  EXCHANGE PSEUDO OVP (F(G))  (T4) 10**   -6
 CORE ELECTRONS PER CELL     60  EXCHANGE PSEUDO OVP (P(G))  (T5) 10**  -12
 N. OF SYMMETRY OPERATORS     1  POLE ORDER IN MONO ZONE                  4
 *******************************************************************************
 TYPE OF CALCULATION :  RESTRICTED CLOSED SHELL
 KOHN-SHAM HAMILTONIAN

 (EXCHANGE)[CORRELATION] FUNCTIONAL:(HSEsol GGA)[PBEsol]

 RANGE-SEPARATED HYBRID FUNCTIONAL 
 OMEGA (SHORT-RANGE)[LONG-RANGE]:(    0.1100)[    0.0000]

 HYBRID EXCHANGE - PERCENTAGE OF FOCK EXCHANGE    25.0000

 CAPPA:IS1  2;IS2  2;IS3  8; K PTS MONK NET  20; SYMMOPS:K SPACE   2;G SPACE   1

 *******************************************************************************
 MAX NUMBER OF SCF CYCLES      50  CONVERGENCE ON DELTAP        10**-16
 WEIGHT OF F(I) IN F(I+1)      30% CONVERGENCE ON ENERGY        10**- 6
 SHRINK. FACT.(MONKH.)    2  2  8  NUMBER OF K POINTS IN THE IBZ     20
 SHRINKING FACTOR(GILAT NET)    8  NUMBER OF K POINTS(GILAT NET)   1028
 *******************************************************************************
 *** K POINTS COORDINATES (OBLIQUE COORDINATES IN UNITS OF IS =  2)
   1-R(  0  0  0)   2-R(  1  0  0)   3-R(  0  1  0)   4-R(  1  1  0)
   5-C(  0  0  1)   6-C(  1  0  1)   7-C(  0  1  1)   8-C(  1  1  1)
   9-C(  0  0  2)  10-C(  1  0  2)  11-C(  0  1  2)  12-C(  1  1  2)
  13-C(  0  0  3)  14-C(  1  0  3)  15-C(  0  1  3)  16-C(  1  1  3)
  17-R(  0  0  4)  18-R(  1  0  4)  19-R(  0  1  4)  20-R(  1  1  4)

 DIRECT LATTICE VECTORS COMPON. (A.U.)     RECIP. LATTICE VECTORS COMPON. (A.U.) 
        X            Y            Z              X            Y            Z
   24.5689761  -14.2152832    0.0000000      0.2557366    0.0000000   -0.0426855
    0.0000000   28.4297713    0.0000000      0.1278719    0.2210072   -0.0850944
    0.9462719    1.6353475    5.6692913      0.0000000    0.0000000    1.1082841

 DISK SPACE FOR EIGENVECTORS (FTN 10)     7189632 REALS

 SYMMETRY ADAPTION OF THE BLOCH FUNCTIONS DISABLED
 TTTTTTTTTTTTTTTTTTTTTTTTTTTTTT gordsh1     TELAPSE        0.06 TCPU        0.04

 MATRIX SIZE: P(G)  449074, F(G)   91416, P(G) IRR  227054, F(G) IRR   92364
 MAX G-VECTOR INDEX FOR 1- AND 2-ELECTRON INTEGRALS 125

 TTTTTTTTTTTTTTTTTTTTTTTTTTTTTT INPUT       TELAPSE        0.32 TCPU        0.30

 NEIGHBORS OF THE NON-EQUIVALENT ATOMS

 N = NUMBER OF NEIGHBORS AT DISTANCE R
    ATOM  N     R/ANG      R/AU   NEIGHBORS (ATOM LABELS AND CELL INDICES)
   1 B    1     1.3787     2.6054   38 O    0 0 0
   1 B    1     1.3795     2.6068   37 O   -1 0 0
   1 B    1     1.5517     2.9323   30 C    0 0 0
   1 B    1     2.3868     4.5104    2 B    0 0 0
   1 B    1     2.3912     4.5187    3 B   -1 0 0
   1 B    1     2.5629     4.8431   27 C   -1 0 0

   2 B    1     1.3792     2.6064   38 O    0 0 0
   2 B    1     1.3798     2.6075   39 O    0 1-1
   2 B    1     1.5510     2.9309   19 C    0 0 0
   2 B    1     2.3868     4.5104    1 B    0 0 0
   2 B    1     2.3894     4.5154    3 B   -1 0 0
   2 B    1     2.5618     4.8411   22 C    0 1-1

   3 B    1     1.3790     2.6060   37 O    0 0 0
   3 B    1     1.3795     2.6069   39 O    1 1-1
   3 B    1     1.5529     2.9346   36 C    0 0 0
   3 B    1     2.3894     4.5154    2 B    1 0 0
   3 B    1     2.3912     4.5187    1 B    1 0 0
   3 B    1     2.5679     4.8526   35 C    1 1-1

   4 B    1     1.3778     2.6037   41 O    0 0 0
   4 B    1     1.3785     2.6051   40 O    0 1-1
   4 B    1     1.5479     2.9250   24 C    0 0 0
   4 B    1     2.3857     4.5083    5 B    0 0 0
   4 B    1     2.3859     4.5087    6 B    1 1-1
   4 B    1     2.5584     4.8347   21 C    0 1-1

   5 B    1     1.3778     2.6037   41 O    0 0 0
   5 B    1     1.3813     2.6103   42 O    1 1-1
   5 B    1     1.5522     2.9333   31 C    0 0 0
   5 B    1     2.3857     4.5083    4 B    0 0 0
   5 B    1     2.3952     4.5262    6 B    1 1-1
   5 B    1     2.5589     4.8357   32 C    1 1-1

   6 B    1     1.3783     2.6045   40 O   -1 0 0
   6 B    1     1.3812     2.6101   42 O    0 0 0
   6 B    1     1.5546     2.9377   25 C    0 0 0
   6 B    1     2.3859     4.5087    4 B   -1-1 1
   6 B    1     2.3952     4.5262    5 B   -1-1 1
   6 B    1     2.5605     4.8386   26 C    0 0 0

   7 H    1     1.0916     2.0629   20 C    0 0 0
   7 H    1     2.1461     4.0556   19 C    0 0 0
   7 H    1     2.1712     4.1029   23 C    0 0 0
   7 H    1     2.5280     4.7772   10 H    0 0 0
   7 H    1     2.5583     4.8346   38 O    0 0 0
   7 H    1     2.7310     5.1608    2 B    0 0 0

   8 H    1     1.0909     2.0615   21 C    0 0 0
   8 H    1     2.1454     4.0541   24 C    0-1 1
   8 H    1     2.1688     4.0985   22 C    0 0 0
   8 H    1     2.5272     4.7758    9 H    0 0 0
   8 H    1     2.5561     4.8304   40 O    0 0 0
   8 H    1     2.7242     5.1480    4 B    0-1 1

   9 H    1     1.0908     2.0613   22 C    0 0 0
   9 H    1     2.1442     4.0519   19 C    0-1 1
   9 H    1     2.1694     4.0995   21 C    0 0 0
   9 H    1     2.5272     4.7758    8 H    0 0 0
   9 H    1     2.5615     4.8406   39 O    0 0 0
   9 H    1     2.7248     5.1491    2 B    0-1 1

  10 H    1     1.0912     2.0621   23 C    0 0 0
  10 H    1     2.1468     4.0569   24 C    0 0 0
  10 H    1     2.1689     4.0986   20 C    0 0 0
  10 H    1     2.5280     4.7772    7 H    0 0 0
  10 H    1     2.5562     4.8305   41 O    0 0 0
  10 H    1     2.7309     5.1607    4 B    0 0 0

  11 H    1     1.0911     2.0619   26 C    0 0 0
  11 H    1     2.1443     4.0521   25 C    0 0 0
  11 H    1     2.1684     4.0977   29 C    0 0 1
  11 H    1     2.5222     4.7664   14 H    0 0 1
  11 H    1     2.5622     4.8419   42 O    0 0 0
  11 H    1     2.7179     5.1361    6 B    0 0 0

  12 H    1     1.0917     2.0630   27 C    0 0 0
  12 H    1     2.1441     4.0517   30 C    1 0 0
  12 H    1     2.1716     4.1037   28 C    0 0-1
  12 H    1     2.5226     4.7669   13 H    0 0-1
  12 H    1     2.5540     4.8264   37 O    0 0 0
  12 H    1     2.7237     5.1470    1 B    1 0 0

  13 H    1     1.0919     2.0633   28 C    0 0 0
  13 H    1     2.1522     4.0670   25 C    1 0 0
  13 H    1     2.1668     4.0946   27 C    0 0 1
  13 H    1     2.5226     4.7669   12 H    0 0 1
  13 H    1     2.5922     4.8986   40 O    0 0 0
  13 H    1     2.7582     5.2123    6 B    1 0 0

  14 H    1     1.0915     2.0627   29 C    0 0 0
  14 H    1     2.1483     4.0597   30 C    0 0 0
  14 H    1     2.1679     4.0968   26 C    0 0-1
  14 H    1     2.5222     4.7664   11 H    0 0-1
  14 H    1     2.5809     4.8771   38 O    0 0 0
  14 H    1     2.7404     5.1785    1 B    0 0 0

  15 H    1     1.0916     2.0628   32 C    0 0 0
  15 H    1     2.1436     4.0508   31 C   -1-1 1
  15 H    1     2.1707     4.1021   35 C    0 0 0
  15 H    1     2.5217     4.7654   18 H    0 0 0
  15 H    1     2.5567     4.8315   42 O    0 0 0
  15 H    1     2.7164     5.1333    5 B   -1-1 1

  16 H    1     1.0914     2.0624   33 C    0 0 0
  16 H    1     2.1487     4.0605   36 C    0 0 0
  16 H    1     2.1663     4.0937   34 C    0 0 0
  16 H    1     2.5170     4.7564   17 H    0 0 0
  16 H    1     2.5779     4.8716   37 O    0 0 0
  16 H    1     2.7395     5.1769    3 B    0 0 0

  17 H    1     1.0921     2.0638   34 C    0 0 0
  17 H    1     2.1502     4.0632   31 C    0 0 0
  17 H    1     2.1683     4.0976   33 C    0 0 0
  17 H    1     2.5170     4.7564   16 H    0 0 0
  17 H    1     2.5870     4.8887   41 O    0 0 0
  17 H    1     2.7510     5.1986    5 B    0 0 0

  18 H    1     1.0913     2.0622   35 C    0 0 0
  18 H    1     2.1494     4.0619   36 C   -1-1 1
  18 H    1     2.1656     4.0923   32 C    0 0 0
  18 H    1     2.5217     4.7654   15 H    0 0 0
  18 H    1     2.5789     4.8734   39 O    0 0 0
  18 H    1     2.7392     5.1763    3 B   -1-1 1

  19 C    1     1.4017     2.6488   22 C    0 1-1
  19 C    1     1.4025     2.6504   20 C    0 0 0
  19 C    1     1.5510     2.9309    2 B    0 0 0
  19 C    1     2.1442     4.0519    9 H    0 1-1
  19 C    1     2.1461     4.0556    7 H    0 0 0
  19 C    1     2.4236     4.5799   21 C    0 1-1

  20 C    1     1.0916     2.0629    7 H    0 0 0
  20 C    1     1.3915     2.6296   23 C    0 0 0
  20 C    1     1.4025     2.6504   19 C    0 0 0
  20 C    1     2.1689     4.0986   10 H    0 0 0
  20 C    1     2.4191     4.5714   22 C    0 1-1
  20 C    1     2.4241     4.5809   24 C    0 0 0

  21 C    1     1.0909     2.0615    8 H    0 0 0
  21 C    1     1.3909     2.6284   22 C    0 0 0
  21 C    1     1.4014     2.6483   24 C    0-1 1
  21 C    1     2.1694     4.0995    9 H    0 0 0
  21 C    1     2.4189     4.5710   23 C    0-1 1
  21 C    1     2.4236     4.5799   19 C    0-1 1

  22 C    1     1.0908     2.0613    9 H    0 0 0
  22 C    1     1.3909     2.6284   21 C    0 0 0
  22 C    1     1.4017     2.6488   19 C    0-1 1
  22 C    1     2.1688     4.0985    8 H    0 0 0
  22 C    1     2.4191     4.5714   20 C    0-1 1
  22 C    1     2.4226     4.5780   24 C    0-1 1

  23 C    1     1.0912     2.0621   10 H    0 0 0
  23 C    1     1.3915     2.6296   20 C    0 0 0
  23 C    1     1.4021     2.6496   24 C    0 0 0
  23 C    1     2.1712     4.1029    7 H    0 0 0
  23 C    1     2.4189     4.5710   21 C    0 1-1
  23 C    1     2.4237     4.5802   19 C    0 0 0

  24 C    1     1.4014     2.6483   21 C    0 1-1
  24 C    1     1.4021     2.6496   23 C    0 0 0
  24 C    1     1.5479     2.9250    4 B    0 0 0
  24 C    1     2.1454     4.0541    8 H    0 1-1
  24 C    1     2.1468     4.0569   10 H    0 0 0
  24 C    1     2.4226     4.5780   22 C    0 1-1

  25 C    1     1.4025     2.6504   26 C    0 0 0
  25 C    1     1.4037     2.6525   28 C   -1 0 0
  25 C    1     1.5546     2.9377    6 B    0 0 0
  25 C    1     2.1443     4.0521   11 H    0 0 0
  25 C    1     2.1522     4.0670   13 H   -1 0 0
  25 C    1     2.4271     4.5865   27 C   -1 0 1

  26 C    1     1.0911     2.0619   11 H    0 0 0
  26 C    1     1.3916     2.6298   29 C    0 0 1
  26 C    1     1.4025     2.6504   25 C    0 0 0
  26 C    1     2.1679     4.0968   14 H    0 0 1
  26 C    1     2.4165     4.5665   28 C   -1 0 0
  26 C    1     2.4246     4.5818   30 C    0 0 1

  27 C    1     1.0917     2.0630   12 H    0 0 0
  27 C    1     1.3928     2.6320   28 C    0 0-1
  27 C    1     1.4024     2.6501   30 C    1 0 0
  27 C    1     2.1668     4.0946   13 H    0 0-1
  27 C    1     2.4166     4.5668   29 C    1 0 0
  27 C    1     2.4271     4.5865   25 C    1 0-1

  28 C    1     1.0919     2.0633   13 H    0 0 0
  28 C    1     1.3928     2.6320   27 C    0 0 1
  28 C    1     1.4037     2.6525   25 C    1 0 0
  28 C    1     2.1716     4.1037   12 H    0 0 1
  28 C    1     2.4165     4.5665   26 C    1 0 0
  28 C    1     2.4277     4.5877   30 C    1 0 1

  29 C    1     1.0915     2.0627   14 H    0 0 0
  29 C    1     1.3916     2.6298   26 C    0 0-1
  29 C    1     1.4023     2.6499   30 C    0 0 0
  29 C    1     2.1684     4.0977   11 H    0 0-1
  29 C    1     2.4166     4.5668   27 C   -1 0 0
  29 C    1     2.4281     4.5884   25 C    0 0-1

  30 C    1     1.4023     2.6499   29 C    0 0 0
  30 C    1     1.4024     2.6501   27 C   -1 0 0
  30 C    1     1.5517     2.9323    1 B    0 0 0
  30 C    1     2.1441     4.0517   12 H   -1 0 0
  30 C    1     2.1483     4.0597   14 H    0 0 0
  30 C    1     2.4246     4.5818   26 C    0 0-1

  31 C    1     1.4022     2.6498   32 C    1 1-1
  31 C    1     1.4030     2.6512   34 C    0 0 0
  31 C    1     1.5522     2.9333    5 B    0 0 0
  31 C    1     2.1436     4.0508   15 H    1 1-1
  31 C    1     2.1502     4.0632   17 H    0 0 0
  31 C    1     2.4264     4.5853   33 C    0 0 0

  32 C    1     1.0916     2.0628   15 H    0 0 0
  32 C    1     1.3918     2.6301   35 C    0 0 0
  32 C    1     1.4022     2.6498   31 C   -1-1 1
  32 C    1     2.1656     4.0923   18 H    0 0 0
  32 C    1     2.4163     4.5661   34 C   -1-1 1
  32 C    1     2.4270     4.5863   36 C   -1-1 1

  33 C    1     1.0914     2.0624   16 H    0 0 0
  33 C    1     1.3927     2.6318   34 C    0 0 0
  33 C    1     1.4029     2.6510   36 C    0 0 0
  33 C    1     2.1683     4.0976   17 H    0 0 0
  33 C    1     2.4155     4.5645   35 C    1 1-1
  33 C    1     2.4264     4.5853   31 C    0 0 0

  34 C    1     1.0921     2.0638   17 H    0 0 0
  34 C    1     1.3927     2.6318   33 C    0 0 0
  34 C    1     1.4030     2.6512   31 C    0 0 0
  34 C    1     2.1663     4.0937   16 H    0 0 0
  34 C    1     2.4163     4.5661   32 C    1 1-1
  34 C    1     2.4289     4.5899   36 C    0 0 0

  35 C    1     1.0913     2.0622   18 H    0 0 0
  35 C    1     1.3918     2.6301   32 C    0 0 0
  35 C    1     1.4029     2.6511   36 C   -1-1 1
  35 C    1     2.1707     4.1021   15 H    0 0 0
  35 C    1     2.4155     4.5645   33 C   -1-1 1
  35 C    1     2.4269     4.5861   31 C   -1-1 1

  36 C    1     1.4029     2.6510   33 C    0 0 0
  36 C    1     1.4029     2.6511   35 C    1 1-1
  36 C    1     1.5529     2.9346    3 B    0 0 0
  36 C    1     2.1487     4.0605   16 H    0 0 0
  36 C    1     2.1494     4.0619   18 H    1 1-1
  36 C    1     2.4270     4.5863   32 C    1 1-1

  37 O    1     1.3790     2.6060    3 B    0 0 0
  37 O    1     1.3795     2.6068    1 B    1 0 0
  37 O    1     2.3868     4.5105   39 O    1 1-1
  37 O    1     2.3885     4.5135   38 O    1 0 0
  37 O    1     2.5389     4.7979   30 C    1 0 0
  37 O    1     2.5412     4.8021   36 C    0 0 0

  38 O    1     1.3787     2.6054    1 B    0 0 0
  38 O    1     1.3792     2.6064    2 B    0 0 0
  38 O    1     2.3885     4.5135   37 O   -1 0 0
  38 O    1     2.3912     4.5187   39 O    0 1-1
  38 O    1     2.5351     4.7906   19 C    0 0 0
  38 O    1     2.5405     4.8008   30 C    0 0 0

  39 O    1     1.3795     2.6069    3 B   -1-1 1
  39 O    1     1.3798     2.6075    2 B    0-1 1
  39 O    1     2.3868     4.5105   37 O   -1-1 1
  39 O    1     2.3912     4.5187   38 O    0-1 1
  39 O    1     2.5416     4.8030   19 C    0-1 1
  39 O    1     2.5427     4.8050   36 C   -1-1 1

  40 O    1     1.3783     2.6045    6 B    1 0 0
  40 O    1     1.3785     2.6051    4 B    0-1 1
  40 O    1     2.3876     4.5119   42 O    1 0 0
  40 O    1     2.3913     4.5189   41 O    0-1 1
  40 O    1     2.5354     4.7912   25 C    1 0 0
  40 O    1     2.5360     4.7923   24 C    0-1 1

  41 O    1     1.3778     2.6037    4 B    0 0 0
  41 O    1     1.3778     2.6037    5 B    0 0 0
  41 O    1     2.3870     4.5107   42 O    1 1-1
  41 O    1     2.3913     4.5189   40 O    0 1-1
  41 O    1     2.5304     4.7818   24 C    0 0 0
  41 O    1     2.5353     4.7910   31 C    0 0 0

  42 O    1     1.3812     2.6101    6 B    0 0 0
  42 O    1     1.3813     2.6103    5 B   -1-1 1
  42 O    1     2.3870     4.5107   41 O   -1-1 1
  42 O    1     2.3876     4.5119   40 O   -1 0 0
  42 O    1     2.5481     4.8152   31 C   -1-1 1
  42 O    1     2.5522     4.8230   25 C    0 0 0


 SYMMETRY ALLOWED INTERNAL DEGREE(S) OF FREEDOM: 123
 TTTTTTTTTTTTTTTTTTTTTTTTTTTTTT SYMM        TELAPSE        0.32 TCPU        0.30
 TTTTTTTTTTTTTTTTTTTTTTTTTTTTTT INT_SCREEN  TELAPSE        0.35 TCPU        0.33

 DFT PARAMETERS

     ATOM       ELECTRONS   NET CHARGE   R(ANGSTROM)
   1   5  B       5.0000      0.0000     0.89000000
   7   1  H       1.0000      0.0000     1.11000000
  19   6  C       6.0000      0.0000     0.77000000
  37   8  O       8.0000      0.0000     0.74000000

 SIZE OF GRID=    1197153
 TTTTTTTTTTTTTTTTTTTTTTTTTTTTTT MAKE_GRID2  TELAPSE       14.56 TCPU       14.52
 BECKE WEIGHT FUNCTION
 RADSAFE =     2.00
 TOLERANCES - DENSITY:10**- 6; POTENTIAL:10**- 9; GRID WGT:10**-14

 RADIAL INTEGRATION  - INTERVALS (POINTS,UPPER LIMIT):            1( 75,  4.0*R)

 ANGULAR INTEGRATION - INTERVALS (ACCURACY LEVEL [N. POINTS] UPPER LIMIT):
  1(  4[  86]   0.2)  2(  8[ 194]   0.5)  3( 12[ 350]   0.9)  4( 16[ 974]   3.5)
  5( 12[ 350]9999.0)
 TTTTTTTTTTTTTTTTTTTTTTTTTTTTTT INT_CALC    TELAPSE       14.70 TCPU       14.66
 EEEEEEEEEE INT_CALC TERMINATION  DATE 02 12 2025 TIME 07:51:56.1

 *******************************************************************************
 COF-5_z30_inc_L010                                                              
 CRYSTAL - SCF - TYPE OF CALCULATION :  RESTRICTED CLOSED SHELL
 *******************************************************************************

 CAPPA:IS1  2;IS2  2;IS3  8; K PTS MONK NET  20; SYMMOPS:K SPACE   2;G SPACE   1

 TTTTTTTTTTTTTTTTTTTTTTTTTTTTTT SDIK        TELAPSE       15.56 TCPU       22.84

 AAAAAAAAAAAAAAAAAAAAAAAAAAAAAAAAAAAAAAAAAAAAAAAAAAAAAAAAAAAAAAAAAAAAAAAAAAAAAAA
         ATOMIC WAVEFUNCTION(S)


 NUCLEAR CHARGE  5.0  SYMMETRY SPECIES            S    P
 N. ELECTRONS    5.0  NUMBER OF PRIMITIVE GTOS    8    4
                      NUMBER OF CONTRACTED GTOS   4    2
                      NUMBER OF CLOSED SHELLS     2    0
                      OPEN SHELL OCCUPATION       0    1

  ZNUC  SCFIT    TOTAL HF ENERGY   KINETIC ENERGY   VIRIAL THEOREM ACCURACY
   5.0    11    -2.451164084E+01  2.462155050E+01 -1.995536038E+00  1.5E-06

 NUCLEAR CHARGE  1.0  SYMMETRY SPECIES            S
 N. ELECTRONS    1.0  NUMBER OF PRIMITIVE GTOS    4
                      NUMBER OF CONTRACTED GTOS   2
                      NUMBER OF CLOSED SHELLS     0
                      OPEN SHELL OCCUPATION       1

  ZNUC  SCFIT    TOTAL HF ENERGY   KINETIC ENERGY   VIRIAL THEOREM ACCURACY
   1.0     1    -4.977266687E-01  5.190767460E-01 -1.958869132E+00  0.0E+00

 NUCLEAR CHARGE  6.0  SYMMETRY SPECIES            S    P
 N. ELECTRONS    6.0  NUMBER OF PRIMITIVE GTOS    8    4
                      NUMBER OF CONTRACTED GTOS   4    2
                      NUMBER OF CLOSED SHELLS     2    0
                      OPEN SHELL OCCUPATION       0    2

  ZNUC  SCFIT    TOTAL HF ENERGY   KINETIC ENERGY   VIRIAL THEOREM ACCURACY
   6.0     9    -3.766704647E+01  3.775180683E+01 -1.997754800E+00  1.1E-06

 NUCLEAR CHARGE  8.0  SYMMETRY SPECIES            S    P
 N. ELECTRONS    8.0  NUMBER OF PRIMITIVE GTOS    8    4
                      NUMBER OF CONTRACTED GTOS   4    2
                      NUMBER OF CLOSED SHELLS     2    0
                      OPEN SHELL OCCUPATION       0    4

  ZNUC  SCFIT    TOTAL HF ENERGY   KINETIC ENERGY   VIRIAL THEOREM ACCURACY
   8.0    12    -7.477373220E+01  7.477365593E+01 -2.000001020E+00  3.8E-06

 AAAAAAAAAAAAAAAAAAAAAAAAAAAAAAAAAAAAAAAAAAAAAAAAAAAAAAAAAAAAAAAAAAAAAAAAAAAAAAA

 CHARGE NORMALIZATION FACTOR   1.00000000
 TOTAL ATOMIC CHARGES:
   5.0000000   5.0000000   5.0000000   5.0000000   5.0000000   5.0000000
   1.0000000   1.0000000   1.0000000   1.0000000   1.0000000   1.0000000
   1.0000000   1.0000000   1.0000000   1.0000000   1.0000000   1.0000000
   6.0000000   6.0000000   6.0000000   6.0000000   6.0000000   6.0000000
   6.0000000   6.0000000   6.0000000   6.0000000   6.0000000   6.0000000
   6.0000000   6.0000000   6.0000000   6.0000000   6.0000000   6.0000000
   8.0000000   8.0000000   8.0000000   8.0000000   8.0000000   8.0000000
 TTTTTTTTTTTTTTTTTTTTTTTTTTTTTT MOQGAD      TELAPSE       15.62 TCPU       24.76
 TTTTTTTTTTTTTTTTTTTTTTTTTTTTTT SHELLXN     TELAPSE       31.20 TCPU      522.16
 TTTTTTTTTTTTTTTTTTTTTTTTTTTTTT MONMO3      TELAPSE       31.41 TCPU      528.92
 NUMERICALLY INTEGRATED DENSITY    198.0001439697
 TTTTTTTTTTTTTTTTTTTTTTTTTTTTTT NUMDFT      TELAPSE       32.13 TCPU      551.83
 CYC   0 ETOT(AU) -1.296117240251E+03 DETOT -1.30E+03 tst  0.00E+00 PX  1.00E+00
 TTTTTTTTTTTTTTTTTTTTTTTTTTTTTT DIIS        TELAPSE       32.16 TCPU      552.93
 TTTTTTTTTTTTTTTTTTTTTTTTTTTTTT FDIK        TELAPSE       32.65 TCPU      568.53
 INSULATING STATE
 TOP OF VALENCE BANDS -    BAND     99; K    1; EIG -2.6804456E-01 AU
 BOTTOM OF VIRTUAL BANDS - BAND    100; K   17; EIG -1.9078217E-01 AU
 INDIRECT ENERGY BAND GAP:   2.1024 eV
 BOTTOM OF VIRTUAL BANDS - BAND    100; K    1; EIG -1.2691795E-01 AU
 TTTTTTTTTTTTTTTTTTTTTTTTTTTTTT PDIG        TELAPSE       32.94 TCPU      574.68
 CHARGE NORMALIZATION FACTOR   1.00000000
 TOTAL ATOMIC CHARGES:
   4.1182851   4.1077461   4.1089461   4.1101543   4.1078042   4.1170717
   0.7866277   0.7865751   0.7862103   0.7862328   0.7861372   0.7860288
   0.7870826   0.7866152   0.7863176   0.7869262   0.7864127   0.7866281
   6.0614265   6.2749211   6.2747985   6.2711170   6.2695511   6.0644542
   6.0587496   6.2706068   6.2684260   6.2718778   6.2713947   6.0625145
   6.0605603   6.2747503   6.2758367   6.2706689   6.2722022   6.0577390
   8.7111379   8.7106133   8.7087321   8.7102761   8.7075601   8.7122833
 TTTTTTTTTTTTTTTTTTTTTTTTTTTTTT MOQGAD      TELAPSE       33.00 TCPU      574.74
 TTTTTTTTTTTTTTTTTTTTTTTTTTTTTT SHELLXN     TELAPSE       49.08 TCPU     1087.91
 TTTTTTTTTTTTTTTTTTTTTTTTTTTTTT MONMO3      TELAPSE       49.29 TCPU     1094.66
 NUMERICALLY INTEGRATED DENSITY    198.0000950709
 TTTTTTTTTTTTTTTTTTTTTTTTTTTTTT NUMDFT      TELAPSE       50.02 TCPU     1118.04
 CYC   1 ETOT(AU) -1.288786727020E+03 DETOT  7.33E+00 tst  0.00E+00 PX  1.00E+00
 TTTTTTTTTTTTTTTTTTTTTTTTTTTTTT DIIS        TELAPSE       50.07 TCPU     1119.54
 DIIS TEST: 0.11103E+01 AT SCF   CYCLE   1 - MIX   30 %
 TTTTTTTTTTTTTTTTTTTTTTTTTTTTTT FDIK        TELAPSE       50.57 TCPU     1135.41
 INSULATING STATE
 TOP OF VALENCE BANDS -    BAND     99; K    1; EIG -1.6259646E-01 AU
 BOTTOM OF VIRTUAL BANDS - BAND    100; K   17; EIG -1.1318450E-01 AU
 INDIRECT ENERGY BAND GAP:   1.3446 eV
 BOTTOM OF VIRTUAL BANDS - BAND    100; K    1; EIG -4.2109356E-02 AU
 TTTTTTTTTTTTTTTTTTTTTTTTTTTTTT PDIG        TELAPSE       50.85 TCPU     1141.55
 CHARGE NORMALIZATION FACTOR   1.00000000
 TOTAL ATOMIC CHARGES:
   4.6876887   4.6684205   4.6677210   4.6673606   4.6665294   4.6883116
   0.9294703   0.9298452   0.9296603   0.9293712   0.9252550   0.9248480
   0.9260244   0.9262206   0.9288555   0.9295133   0.9289904   0.9292827
   5.8642766   6.1128660   6.1101846   6.1284206   6.1304737   5.8608816
   5.8742655   6.1161806   6.1181548   6.1221108   6.1191404   5.8692424
   5.8677034   6.1065470   6.1101535   6.1308762   6.1280453   5.8669654
   8.3623547   8.3608997   8.3674164   8.3592727   8.3644535   8.3657459
 TTTTTTTTTTTTTTTTTTTTTTTTTTTTTT MOQGAD      TELAPSE       50.91 TCPU     1141.62
 TTTTTTTTTTTTTTTTTTTTTTTTTTTTTT SHELLXN     TELAPSE       66.99 TCPU     1654.80
 TTTTTTTTTTTTTTTTTTTTTTTTTTTTTT MONMO3      TELAPSE       67.20 TCPU     1661.54
 NUMERICALLY INTEGRATED DENSITY    198.0001019581
 TTTTTTTTTTTTTTTTTTTTTTTTTTTTTT NUMDFT      TELAPSE       67.94 TCPU     1684.97
 CYC   2 ETOT(AU) -1.288973786811E+03 DETOT -1.87E-01 tst  4.30E-03 PX  1.51E-01
 TTTTTTTTTTTTTTTTTTTTTTTTTTTTTT DIIS        TELAPSE       67.98 TCPU     1686.49
 DIIS TEST: 0.50805E+00 AT SCF   CYCLE   2 - DIIS ACTIVE - HISTORY:     2 CYCLES
 TTTTTTTTTTTTTTTTTTTTTTTTTTTTTT FDIK        TELAPSE       68.48 TCPU     1702.38
 INSULATING STATE
 TOP OF VALENCE BANDS -    BAND     99; K    1; EIG -1.8169540E-01 AU
 BOTTOM OF VIRTUAL BANDS - BAND    100; K   17; EIG -1.0652107E-01 AU
 INDIRECT ENERGY BAND GAP:   2.0456 eV
 BOTTOM OF VIRTUAL BANDS - BAND    100; K    1; EIG -3.2838022E-02 AU
 TTTTTTTTTTTTTTTTTTTTTTTTTTTTTT PDIG        TELAPSE       68.77 TCPU     1708.52
 CHARGE NORMALIZATION FACTOR   1.00000000
 TOTAL ATOMIC CHARGES:
   4.4529982   4.4351549   4.4354619   4.4371879   4.4347577   4.4516940
   0.8954232   0.8951579   0.8947862   0.8948153   0.8927995   0.8926568
   0.8947008   0.8938181   0.8940574   0.8954991   0.8952138   0.8946884
   5.9021739   6.1755335   6.1772620   6.1682946   6.1682651   5.9073302
   5.9110301   6.1659892   6.1660488   6.1697193   6.1697570   5.9140616
   5.9043802   6.1758040   6.1761801   6.1693704   6.1705060   5.9024885
   8.5229924   8.5226569   8.5171425   8.5222427   8.5154946   8.5244053
 TTTTTTTTTTTTTTTTTTTTTTTTTTTTTT MOQGAD      TELAPSE       68.83 TCPU     1708.59
 TTTTTTTTTTTTTTTTTTTTTTTTTTTTTT SHELLXN     TELAPSE       84.94 TCPU     2222.87
 TTTTTTTTTTTTTTTTTTTTTTTTTTTTTT MONMO3      TELAPSE       85.15 TCPU     2229.61
 NUMERICALLY INTEGRATED DENSITY    198.0001050822
 TTTTTTTTTTTTTTTTTTTTTTTTTTTTTT NUMDFT      TELAPSE       85.88 TCPU     2253.01
 CYC   3 ETOT(AU) -1.289081012458E+03 DETOT -1.07E-01 tst  7.22E-04 PX  5.42E-02
 TTTTTTTTTTTTTTTTTTTTTTTTTTTTTT DIIS        TELAPSE       85.94 TCPU     2254.89
 DIIS TEST: 0.10662E-01 AT SCF   CYCLE   3 - DIIS ACTIVE - HISTORY:     3 CYCLES
 TTTTTTTTTTTTTTTTTTTTTTTTTTTTTT FDIK        TELAPSE       86.44 TCPU     2270.90
 INSULATING STATE
 TOP OF VALENCE BANDS -    BAND     99; K    1; EIG -1.8930198E-01 AU
 BOTTOM OF VIRTUAL BANDS - BAND    100; K   17; EIG -1.1808837E-01 AU
 INDIRECT ENERGY BAND GAP:   1.9378 eV
 BOTTOM OF VIRTUAL BANDS - BAND    100; K    1; EIG -4.5465960E-02 AU
 TTTTTTTTTTTTTTTTTTTTTTTTTTTTTT PDIG        TELAPSE       86.73 TCPU     2277.04
 CHARGE NORMALIZATION FACTOR   1.00000000
 TOTAL ATOMIC CHARGES:
   4.4675658   4.4492226   4.4485062   4.4489546   4.4473827   4.4676682
   0.8831109   0.8837526   0.8821233   0.8821285   0.8792933   0.8792294
   0.8806097   0.8807246   0.8826344   0.8833908   0.8820161   0.8822570
   5.9635828   6.1516626   6.1468600   6.1649346   6.1642444   5.9579698
   5.9692249   6.1545411   6.1537376   6.1568194   6.1543760   5.9657414
   5.9631288   6.1465436   6.1493782   6.1652561   6.1639112   5.9617557
   8.5048417   8.5035530   8.5100877   8.5020162   8.5075564   8.5077064
 TTTTTTTTTTTTTTTTTTTTTTTTTTTTTT MOQGAD      TELAPSE       86.79 TCPU     2277.11
 TTTTTTTTTTTTTTTTTTTTTTTTTTTTTT SHELLXN     TELAPSE      102.88 TCPU     2790.49
 TTTTTTTTTTTTTTTTTTTTTTTTTTTTTT MONMO3      TELAPSE      103.09 TCPU     2797.24
 NUMERICALLY INTEGRATED DENSITY    198.0001031009
 TTTTTTTTTTTTTTTTTTTTTTTTTTTTTT NUMDFT      TELAPSE      103.82 TCPU     2820.64
 CYC   4 ETOT(AU) -1.289082903375E+03 DETOT -1.89E-03 tst  4.92E-05 PX  1.34E-02
 TTTTTTTTTTTTTTTTTTTTTTTTTTTTTT DIIS        TELAPSE      103.88 TCPU     2822.53
 DIIS TEST: 0.38708E-02 AT SCF   CYCLE   4 - DIIS ACTIVE - HISTORY:     4 CYCLES
 TTTTTTTTTTTTTTTTTTTTTTTTTTTTTT FDIK        TELAPSE      104.38 TCPU     2838.48
 INSULATING STATE
 TOP OF VALENCE BANDS -    BAND     99; K    1; EIG -1.8973180E-01 AU
 BOTTOM OF VIRTUAL BANDS - BAND    100; K   17; EIG -1.1584570E-01 AU
 INDIRECT ENERGY BAND GAP:   2.0105 eV
 BOTTOM OF VIRTUAL BANDS - BAND    100; K    1; EIG -4.2878777E-02 AU
 TTTTTTTTTTTTTTTTTTTTTTTTTTTTTT PDIG        TELAPSE      104.67 TCPU     2844.62
 CHARGE NORMALIZATION FACTOR   1.00000000
 TOTAL ATOMIC CHARGES:
   4.4668633   4.4485041   4.4487373   4.4502008   4.4479049   4.4661505
   0.8841420   0.8838414   0.8834350   0.8832632   0.8810836   0.8807845
   0.8826619   0.8819424   0.8829208   0.8841806   0.8835323   0.8832338
   5.9268212   6.1684985   6.1708413   6.1702726   6.1717312   5.9331843
   5.9354207   6.1650128   6.1661005   6.1692050   6.1682397   5.9370437
   5.9313543   6.1681123   6.1692659   6.1722136   6.1720184   5.9289033
   8.5102357   8.5092465   8.5070343   8.5088447   8.5053672   8.5116498
 TTTTTTTTTTTTTTTTTTTTTTTTTTTTTT MOQGAD      TELAPSE      104.73 TCPU     2844.68
 TTTTTTTTTTTTTTTTTTTTTTTTTTTTTT SHELLXN     TELAPSE      120.82 TCPU     3358.18
 TTTTTTTTTTTTTTTTTTTTTTTTTTTTTT MONMO3      TELAPSE      121.03 TCPU     3364.93
 NUMERICALLY INTEGRATED DENSITY    198.0001030905
 TTTTTTTTTTTTTTTTTTTTTTTTTTTTTT NUMDFT      TELAPSE      121.76 TCPU     3388.52
 CYC   5 ETOT(AU) -1.289083771179E+03 DETOT -8.68E-04 tst  1.34E-05 PX  7.62E-03
 TTTTTTTTTTTTTTTTTTTTTTTTTTTTTT DIIS        TELAPSE      121.83 TCPU     3390.64
 DIIS TEST: 0.20908E-03 AT SCF   CYCLE   5 - DIIS ACTIVE - HISTORY:     5 CYCLES
 TTTTTTTTTTTTTTTTTTTTTTTTTTTTTT FDIK        TELAPSE      122.33 TCPU     3406.53
 INSULATING STATE
 TOP OF VALENCE BANDS -    BAND     99; K    1; EIG -1.8891934E-01 AU
 BOTTOM OF VIRTUAL BANDS - BAND    100; K   17; EIG -1.1538387E-01 AU
 INDIRECT ENERGY BAND GAP:   2.0010 eV
 BOTTOM OF VIRTUAL BANDS - BAND    100; K    1; EIG -4.2436471E-02 AU
 TTTTTTTTTTTTTTTTTTTTTTTTTTTTTT PDIG        TELAPSE      122.62 TCPU     3412.67
 CHARGE NORMALIZATION FACTOR   1.00000000
 TOTAL ATOMIC CHARGES:
   4.4663862   4.4487423   4.4481178   4.4483703   4.4468250   4.4657683
   0.8856279   0.8861299   0.8850023   0.8851456   0.8825226   0.8825202
   0.8840129   0.8838428   0.8849866   0.8859259   0.8851241   0.8851452
   5.9368609   6.1665277   6.1616344   6.1706053   6.1681170   5.9300791
   5.9405117   6.1633557   6.1617262   6.1652373   6.1649052   5.9399039
   5.9339806   6.1622438   6.1639646   6.1696770   6.1704389   5.9338371
   8.5091704   8.5088426   8.5107034   8.5072010   8.5081328   8.5121473
 TTTTTTTTTTTTTTTTTTTTTTTTTTTTTT MOQGAD      TELAPSE      122.68 TCPU     3412.73
 TTTTTTTTTTTTTTTTTTTTTTTTTTTTTT SHELLXN     TELAPSE      138.76 TCPU     3926.21
 TTTTTTTTTTTTTTTTTTTTTTTTTTTTTT MONMO3      TELAPSE      138.98 TCPU     3932.97
 NUMERICALLY INTEGRATED DENSITY    198.0001031888
 TTTTTTTTTTTTTTTTTTTTTTTTTTTTTT NUMDFT      TELAPSE      139.71 TCPU     3956.41
 CYC   6 ETOT(AU) -1.289083794594E+03 DETOT -2.34E-05 tst  1.29E-06 PX  2.21E-03
 TTTTTTTTTTTTTTTTTTTTTTTTTTTTTT DIIS        TELAPSE      139.78 TCPU     3958.66
 DIIS TEST: 0.99620E-04 AT SCF   CYCLE   6 - DIIS ACTIVE - HISTORY:     6 CYCLES
 TTTTTTTTTTTTTTTTTTTTTTTTTTTTTT FDIK        TELAPSE      140.29 TCPU     3974.97
 INSULATING STATE
 TOP OF VALENCE BANDS -    BAND     99; K    1; EIG -1.8906639E-01 AU
 BOTTOM OF VIRTUAL BANDS - BAND    100; K   17; EIG -1.1550378E-01 AU
 INDIRECT ENERGY BAND GAP:   2.0017 eV
 BOTTOM OF VIRTUAL BANDS - BAND    100; K    1; EIG -4.2544597E-02 AU
 TTTTTTTTTTTTTTTTTTTTTTTTTTTTTT PDIG        TELAPSE      140.58 TCPU     3981.12
 CHARGE NORMALIZATION FACTOR   1.00000000
 TOTAL ATOMIC CHARGES:
   4.4663806   4.4481567   4.4481228   4.4495223   4.4474283   4.4660902
   0.8856378   0.8856792   0.8849022   0.8847996   0.8824324   0.8822217
   0.8839299   0.8835282   0.8846773   0.8857791   0.8849644   0.8848417
   5.9322390   6.1645080   6.1647091   6.1683956   6.1696112   5.9357180
   5.9411141   6.1622372   6.1626794   6.1662628   6.1640646   5.9402147
   5.9358164   6.1627057   6.1644995   6.1704077   6.1692158   5.9329479
   8.5096756   8.5084978   8.5089697   8.5078533   8.5071395   8.5114231
 TTTTTTTTTTTTTTTTTTTTTTTTTTTTTT MOQGAD      TELAPSE      140.64 TCPU     3981.18
 TTTTTTTTTTTTTTTTTTTTTTTTTTTTTT SHELLXN     TELAPSE      156.73 TCPU     4494.62
 TTTTTTTTTTTTTTTTTTTTTTTTTTTTTT MONMO3      TELAPSE      156.94 TCPU     4501.37
 NUMERICALLY INTEGRATED DENSITY    198.0001032019
 TTTTTTTTTTTTTTTTTTTTTTTTTTTTTT NUMDFT      TELAPSE      157.67 TCPU     4524.74
 CYC   7 ETOT(AU) -1.289083815505E+03 DETOT -2.09E-05 tst  8.56E-07 PX  1.32E-03
 TTTTTTTTTTTTTTTTTTTTTTTTTTTTTT DIIS        TELAPSE      157.75 TCPU     4527.17
 DIIS TEST: 0.14859E-04 AT SCF   CYCLE   7 - DIIS ACTIVE - HISTORY:     7 CYCLES
 TTTTTTTTTTTTTTTTTTTTTTTTTTTTTT FDIK        TELAPSE      158.25 TCPU     4543.13
 INSULATING STATE
 TOP OF VALENCE BANDS -    BAND     99; K    1; EIG -1.8915216E-01 AU
 BOTTOM OF VIRTUAL BANDS - BAND    100; K   17; EIG -1.1557009E-01 AU
 INDIRECT ENERGY BAND GAP:   2.0023 eV
 BOTTOM OF VIRTUAL BANDS - BAND    100; K    1; EIG -4.2611485E-02 AU
 TTTTTTTTTTTTTTTTTTTTTTTTTTTTTT PDIG        TELAPSE      158.53 TCPU     4549.27
 CHARGE NORMALIZATION FACTOR   1.00000000
 TOTAL ATOMIC CHARGES:
   4.4667541   4.4485871   4.4484870   4.4494457   4.4474218   4.4660341
   0.8854742   0.8854968   0.8847174   0.8846589   0.8822759   0.8820867
   0.8838283   0.8833316   0.8844866   0.8856132   0.8848226   0.8846468
   5.9333674   6.1652880   6.1647515   6.1690937   6.1690203   5.9343407
   5.9400205   6.1625379   6.1627487   6.1657686   6.1650431   5.9408821
   5.9348531   6.1632438   6.1647806   6.1697960   6.1700298   5.9336148
   8.5094870   8.5086419   8.5086607   8.5077501   8.5066056   8.5115054
 TTTTTTTTTTTTTTTTTTTTTTTTTTTTTT MOQGAD      TELAPSE      158.60 TCPU     4549.33
 TTTTTTTTTTTTTTTTTTTTTTTTTTTTTT SHELLXN     TELAPSE      174.68 TCPU     5062.62
 TTTTTTTTTTTTTTTTTTTTTTTTTTTTTT MONMO3      TELAPSE      174.89 TCPU     5069.36
 NUMERICALLY INTEGRATED DENSITY    198.0001032041
 TTTTTTTTTTTTTTTTTTTTTTTTTTTTTT NUMDFT      TELAPSE      175.62 TCPU     5092.75
 CYC   8 ETOT(AU) -1.289083818997E+03 DETOT -3.49E-06 tst  8.29E-08 PX  3.66E-04
 TTTTTTTTTTTTTTTTTTTTTTTTTTTTTT DIIS        TELAPSE      175.70 TCPU     5095.25
 DIIS TEST: 0.16718E-05 AT SCF   CYCLE   8 - DIIS ACTIVE - HISTORY:     8 CYCLES
 TTTTTTTTTTTTTTTTTTTTTTTTTTTTTT FDIK        TELAPSE      176.20 TCPU     5111.15
 INSULATING STATE
 TOP OF VALENCE BANDS -    BAND     99; K    1; EIG -1.8914810E-01 AU
 BOTTOM OF VIRTUAL BANDS - BAND    100; K   17; EIG -1.1557737E-01 AU
 INDIRECT ENERGY BAND GAP:   2.0020 eV
 BOTTOM OF VIRTUAL BANDS - BAND    100; K    1; EIG -4.2620084E-02 AU
 TTTTTTTTTTTTTTTTTTTTTTTTTTTTTT PDIG        TELAPSE      176.48 TCPU     5117.29
 CHARGE NORMALIZATION FACTOR   1.00000000
 TOTAL ATOMIC CHARGES:
   4.4666763   4.4485898   4.4484174   4.4494664   4.4475054   4.4661960
   0.8854200   0.8855228   0.8846982   0.8846564   0.8822485   0.8820867
   0.8837710   0.8833610   0.8844922   0.8855823   0.8847830   0.8846661
   5.9333127   6.1654302   6.1645149   6.1691150   6.1692075   5.9341691
   5.9404553   6.1627785   6.1626207   6.1660463   6.1648257   5.9402015
   5.9351207   6.1632094   6.1647328   6.1701585   6.1698370   5.9331346
   8.5094412   8.5086135   8.5088769   8.5076802   8.5068333   8.5115450
 TTTTTTTTTTTTTTTTTTTTTTTTTTTTTT MOQGAD      TELAPSE      176.54 TCPU     5117.36
 TTTTTTTTTTTTTTTTTTTTTTTTTTTTTT SHELLXN     TELAPSE      192.62 TCPU     5630.60
 TTTTTTTTTTTTTTTTTTTTTTTTTTTTTT MONMO3      TELAPSE      192.84 TCPU     5637.35
 NUMERICALLY INTEGRATED DENSITY    198.0001032038
 TTTTTTTTTTTTTTTTTTTTTTTTTTTTTT NUMDFT      TELAPSE      193.57 TCPU     5660.70
 CYC   9 ETOT(AU) -1.289083819254E+03 DETOT -2.57E-07 tst  1.37E-08 PX  1.66E-04
 TTTTTTTTTTTTTTTTTTTTTTTTTTTTTT DIIS        TELAPSE      193.65 TCPU     5663.52
 DIIS TEST: 0.20424E-06 AT SCF   CYCLE   9 - DIIS ACTIVE - HISTORY:     9 CYCLES
 TTTTTTTTTTTTTTTTTTTTTTTTTTTTTT FDIK        TELAPSE      194.15 TCPU     5679.48
 INSULATING STATE
 TOP OF VALENCE BANDS -    BAND     99; K    1; EIG -1.8914223E-01 AU
 BOTTOM OF VIRTUAL BANDS - BAND    100; K   17; EIG -1.1557583E-01 AU
 INDIRECT ENERGY BAND GAP:   2.0018 eV
 BOTTOM OF VIRTUAL BANDS - BAND    100; K    1; EIG -4.2618211E-02 AU
 TTTTTTTTTTTTTTTTTTTTTTTTTTTTTT PDIG        TELAPSE      194.47 TCPU     5685.65
 CHARGE NORMALIZATION FACTOR   1.00000000
 TOTAL ATOMIC CHARGES:
   4.4666891   4.4485594   4.4484221   4.4494496   4.4474538   4.4661380
   0.8854394   0.8855255   0.8847139   0.8846620   0.8822641   0.8820848
   0.8837830   0.8833633   0.8845027   0.8855957   0.8848013   0.8846710
   5.9332423   6.1653142   6.1645485   6.1691080   6.1692182   5.9342449
   5.9403121   6.1626158   6.1627551   6.1660430   6.1647831   5.9403881
   5.9349675   6.1630795   6.1647809   6.1701115   6.1698739   5.9332988
   8.5095098   8.5085965   8.5089368   8.5077215   8.5069113   8.5115203
 TTTTTTTTTTTTTTTTTTTTTTTTTTTTTT MOQGAD      TELAPSE      194.53 TCPU     5685.71
 TTTTTTTTTTTTTTTTTTTTTTTTTTTTTT SHELLXN     TELAPSE      210.61 TCPU     6198.98
 +++ ENERGIES IN A.U. +++
 ::: EXT EL-POLE                                  -1.6973165341150E+03
 ::: EXT EL-SPHEROPOLE                             1.8982364251912E+01
 ::: BIELET ZONE E-E                               2.6830949313928E+03
 ::: TOTAL E-E                                     1.0047607615297E+03
 ::: TOTAL E-N + N-E                              -3.8290153914387E+03
 ::: TOTAL N-N                                     3.8877098833254E+02
 ::: KINETIC ENERGY                                1.2802011390178E+03
 ::: PSEUDO TOTAL   ENERGY                        -1.1552825025586E+03
 ::: VIRIAL COEFFICIENT                            1.0512911005957E+00
 TTTTTTTTTTTTTTTTTTTTTTTTTTTTTT MONMO3      TELAPSE      210.82 TCPU     6205.73
 NUMERICALLY INTEGRATED DENSITY    198.0001032039
 EXCHANGE ENERGY: -0.126053403144E+03  CORRELATION ENERGY: -0.774791355664E+01
 TTTTTTTTTTTTTTTTTTTTTTTTTTTTTT NUMDFT      TELAPSE      211.55 TCPU     6229.10
 CYC  10 ETOT(AU) -1.289083819259E+03 DETOT -4.69E-09 tst  1.27E-09 PX  1.66E-04

 == SCF ENDED - CONVERGENCE ON ENERGY      E(AU) -1.2890838192591E+03 CYCLES  10


 ENERGY EXPRESSION=HARTREE+FOCK EXCH*0.00000+(HSESOL     EXCH)*1.00000+PBESOL     CORR


 TOTAL ENERGY(DFT)(AU)( 10) -1.2890838192591E+03 DE-4.7E-09 tester 1.3E-09
 TTTTTTTTTTTTTTTTTTTTTTTTTTTTTT EDFT        TELAPSE      211.55 TCPU     6229.11
 
 INFORMATION **** DFTD3 ENERGY **** CALCULATE DFTD3 ENERGY

           DFT-D V3(BJ)
 DF                                         hsesol3c  
 parameters
 s6       :    1.0000
 s8       :    0.0000
 a1       :    0.5196
 a2       :    4.9385
 k1 k3    :   16.0000   -4.0000
 Cutoff   :   50.2022
 CN-Cutoff:   21.1671
 ABC-Cutoff:   21.1671
 
 Edisp /kcal,au:   -35.8183 -0.05708014

 E6    /kcal :   -38.5435
 E8    /kcal :     0.0000
 E6(ABC) "   :   2.725194
 
 INFORMATION **** DFTD3 ENERGY **** NORMAL TERMINATION OF DFTD3 MODULE

 GCP ENERGY CALCULATION
  level        hsesol3c            basis:hsesol3c
  Nbf            474
  Atoms           42

  Parameters: 
  sigma     1.0000
  eta       1.4281
  alpha     0.2936
  beta      1.9467

  dmp_scal      4.0000
  dmp_exp       6.0000
 cutoffs: 
   distance [bohr] 60.0
   noise    [a.u.] 2.2E-16
 SR-damping   T
 ** gCP correction **
  Egcp:        0.0884816251 / (a.u.) ||      55.5231 / (kcal/mol)
 INFORMATION **** GCP **** NORMAL TERMINATION OF GCP MODULE

 *******************************************************************************

 DFT-D3-GCP DISPERSION AND COUNTERPOISE CORRECTION

 D3 DISPERSION ENERGY (AU)      -5.7080143321515E-02
 GCP ENERGY (AU)                 8.8481625092417E-02
 TOTAL ENERGY + DISP + GCP (AU) -1.2890524177773E+03

 *******************************************************************************

 EIGENVECTORS IN FORTRAN UNIT  8
 TTTTTTTTTTTTTTTTTTTTTTTTTTTTTT END         TELAPSE      213.31 TCPU     6236.77
 EEEEEEEEEE TERMINATION  DATE 02 12 2025 TIME 07:55:14.7
