 Default number of threads is:           32

         
 *******************************************************************************
 *                                                                             *
 *                               CRYSTAL23                                     *
 *                      public : 1.0.1 - October 2022                          *
 *                       HTTP://WWW.CRYSTAL.UNITO.IT                           *
 *                                                                             *
 *                              MAIN AUTHORS                                   *
 *                                                                             *
 *  R. DOVESI(1,11), V.R. SAUNDERS(2), C. ROETTI(1,11), R. ORLANDO(1,11),      *
 *  C.M. ZICOVICH-WILSON(1,3), F. PASCALE(4), B. CIVALLERI(1,11),              *
 *  K. DOLL(5), N.M. HARRISON(6), I.J. BUSH(7), Ph. D'ARCO(8),                 *
 *  M. LLUNELL(9), M. CAUSA'(10), Y. NOEL(8), L. MASCHIO(1,11), A. ERBA(1,11)  *
 *  M. RE'RAT(14), S. CASASSA(1,11), B.G. SEARLE(2), J.K. DESMARAIS(1)         *
 *                                                                             *
 *        CONTRIBUTIONS TO THE CODE HAVE ALSO BEEN GIVEN BY                    *
 *                                                                             *
 *  M. FERRABONE(1,11), M. DE LA PIERRE(1,11), M. FERRERO(1,11),               *
 *  J. BAIMA(1,11), E. ALBANESE(1,11), M.F. PEINTINGER(12), R. BAST(13),       *
 *  B. KIRTMAN(15), V. LACIVITA(1,11), R. DEMICHELIS(1,16)                     *
 *  G. BRANDEBURG(17), S. SALUSTRO(1,11), G. SANSONE(1,11)                     *
 *  M.T. RUGGIERO(18), L.E. DAGA(1), L. DONA'(1), A. COSSARD(1)                *
 *                                                                             *
 * (1) THEORETICAL CHEMISTRY GROUP - UNIVERSITA' DI TORINO - TORINO (ITALY)    *
 * (2) SCIENTIFIC COMPUTING DEPARTMENT - STFC DARESBURY (UK)                   *
 * (3) UNIVERSIDAD AUTONOMA DEL ESTADO DE MORELOS - CUERNAVACA (MEXICO)        *
 * (4) UNIVERSITE' DE LORRAINE - NANCY (FRANCE)                                *
 * (5) UNIVERSITAET STUTTGART- STUTTGART (GERMANY)                             *
 * (6) IMPERIAL COLLEGE - LONDON (UK)                                          *
 * (7) SCIENTIFIC COMPUTING DEPARTMENT - STFC RAL (UK)                         *
 * (8) UPMC - SORBONNE UNIVERSITES - PARIS (FRANCE)                            *
 * (9) UNIVERSIDAD DE BARCELONA - BARCELONA (SPAIN)                            *
 *(10) UNIVERSITA' DI NAPOLI "FEDERICO II" - NAPOLI (ITALY)                    *
 *(11) NIS - NANOSTRUCTURED INTERFACES AND SURFACES - TORINO (ITALY)           *
 *(12) MPI FUER CHEMISCHE ENERGIEKONVERSION - MUELHEIM AN DER RUHR (GERMANY)   *
 *(13) UNIVERSITY OF TROMSO - TROMSO (NORWAY)                                  *
 *(14) UNIVERSITE' DE PAU ET DES PAYS DE L'ADOUR - PAU (FRANCE)                *
 *(15) UNIVERSITY OF CALIFORNIA SANTA BARBARA - SANTA BARBARA (USA)            *
 *(16) CURTIN UNIVERSITY - PERTH (AUSTRALIA)                                   *
 *(17) UNIVERSITY COLLEGE LONDON - LONDON (UK)                                 *
 *(18) UNIVERSITY OF VERMONT - BURLINGTON (USA)                                *
 *                                                                             *
 *******************************************************************************
 EEEEEEEEEE STARTING  DATE 19 02 2026 TIME 18:58:39.5
 cof-1_z38_L080_incl                                                             

 CRYSTAL CALCULATION
 (INPUT ACCORDING TO THE INTERNATIONAL TABLES FOR X-RAY CRYSTALLOGRAPHY)
 CRYSTAL FAMILY                       :  TRICLINIC   
 CRYSTAL CLASS  (GROTH - 1921)        :  TRICLINIC PEDIAL                     

 SPACE GROUP (NONCENTROSYMMETRIC)     :  P 1             

 LATTICE PARAMETERS  (ANGSTROMS AND DEGREES) - CONVENTIONAL CELL
        A           B           C        ALPHA        BETA       GAMMA
    15.02361    15.02392     8.85664    38.52921    89.99998   119.99596


 NUMBER OF IRREDUCIBLE ATOMS IN THE CONVENTIONAL CELL:   42

 INPUT COORDINATES

 ATOM AT. N.              COORDINATES
   1   5     4.596029600000E-01 -8.086827000000E-02  5.012507700000E-01
   2   5     6.186586100000E-01  7.819138000000E-02  5.012507900000E-01
   3   5     4.604110800000E-01  7.979913000000E-02  4.986078700000E-01
   4   5     7.317766000000E-02  3.054467200000E-01  5.012507900000E-01
   5   5     2.322856400000E-01  3.054259600000E-01  5.012507800000E-01
   6   5     2.330783100000E-01  4.661901100000E-01  4.986078700000E-01
   7   1     7.506502900000E-01  4.112410000000E-03  4.957715000000E-01
   8   1    -5.550124000000E-02  3.867509600000E-01  4.949336200000E-01
   9   1     7.508752800000E-01  2.898492300000E-01  4.948046700000E-01
  10   1    -5.536984000000E-02  1.014419700000E-01  4.948368300000E-01
  11   1     5.360433300000E-01 -2.130055200000E-01  5.042160500000E-01
  12   1     1.536830900000E-01  5.929124800000E-01  5.050539800000E-01
  13   1     2.505836900000E-01 -2.135541800000E-01  5.051830100000E-01
  14   1     4.390358700000E-01  5.927630600000E-01  5.051506300000E-01
  15   1     5.386794000000E-01  2.892365400000E-01  4.957715500000E-01
  16   1     1.568260700000E-01  1.013068800000E-01  4.949335700000E-01
  17   1     2.537444600000E-01  4.600110000000E-03  4.948045700000E-01
  18   1     4.421848300000E-01  3.867149000000E-01  4.948369300000E-01
  19   6     7.386548400000E-01  1.394416000000E-01  4.985111800000E-01
  20   6     7.940561500000E-01  8.788872000000E-02  4.959004400000E-01
  21   6    -9.897552000000E-02  3.024270500000E-01  4.956749100000E-01
  22   6     7.938804200000E-01  2.485177900000E-01  4.963517500000E-01
  23   6    -9.861033000000E-02  1.421457200000E-01  4.946112100000E-01
  24   6    -4.454570000000E-02  2.488414400000E-01  4.963839500000E-01
  25   6     3.998924800000E-01 -2.001567500000E-01  5.014764100000E-01
  26   6     4.522284200000E-01 -2.563744200000E-01  5.040871000000E-01
  27   6     2.377798900000E-01  6.365940900000E-01  5.043127100000E-01
  28   6     2.914768500000E-01 -2.560500800000E-01  5.036358900000E-01
  29   6     3.983711400000E-01  6.359005600000E-01  5.053763000000E-01
  30   6     2.911271000000E-01  5.823589600000E-01  5.036036200000E-01
  31   6     4.008094100000E-01  1.393724700000E-01  4.985111700000E-01
  32   6     4.547772400000E-01  2.487288300000E-01  4.959005000000E-01
  33   6     2.404597500000E-01  1.414138200000E-01  4.956748500000E-01
  34   6     2.937156000000E-01  8.751564000000E-02  4.963516700000E-01
  35   6     4.017062700000E-01  3.029937000000E-01  4.946112800000E-01
  36   6     2.933783900000E-01  2.487640400000E-01  4.963839500000E-01
  37   8     4.072535300000E-01 -2.662687000000E-02  4.993169300000E-01
  38   8     5.644846000000E-01 -3.004742000000E-02  5.048928400000E-01
  39   8     5.670681100000E-01  1.340698100000E-01  4.964806600000E-01
  40   8     1.268413600000E-01  4.126536000000E-01  4.993169600000E-01
  41   8     1.251468700000E-01  2.502698600000E-01  5.048928400000E-01
  42   8     2.866525300000E-01  4.143817800000E-01  4.964806400000E-01

 *******************************************************************************

 << INFORMATION >>: FROM NOW ON, ALL COORDINATES REFER TO THE PRIMITIVE CELL

 *******************************************************************************

 LATTICE PARAMETERS  (ANGSTROMS AND DEGREES) - PRIMITIVE CELL
       A          B          C        ALPHA      BETA     GAMMA        VOLUME
   15.02361   15.02392    8.85664    38.52921  89.99998 119.99596    742.839190

 COORDINATES OF THE EQUIVALENT ATOMS (FRACTIONAL UNITS)

 N. ATOM EQUIV AT. N.          X                  Y                  Z

   1   1   1    5 B     4.59602960000E-01 -8.08682700000E-02 -4.98749230000E-01

   2   2   1    5 B    -3.81341390000E-01  7.81913800000E-02 -4.98749210000E-01

   3   3   1    5 B     4.60411080000E-01  7.97991300000E-02  4.98607870000E-01

   4   4   1    5 B     7.31776600000E-02  3.05446720000E-01 -4.98749210000E-01

   5   5   1    5 B     2.32285640000E-01  3.05425960000E-01 -4.98749220000E-01

   6   6   1    5 B     2.33078310000E-01  4.66190110000E-01  4.98607870000E-01

   7   7   1    1 H    -2.49349710000E-01  4.11241000000E-03  4.95771500000E-01

   8   8   1    1 H    -5.55012400000E-02  3.86750960000E-01  4.94933620000E-01

   9   9   1    1 H    -2.49124720000E-01  2.89849230000E-01  4.94804670000E-01

  10  10   1    1 H    -5.53698400000E-02  1.01441970000E-01  4.94836830000E-01

  11  11   1    1 H    -4.63956670000E-01 -2.13005520000E-01 -4.95783950000E-01

  12  12   1    1 H     1.53683090000E-01 -4.07087520000E-01 -4.94946020000E-01

  13  13   1    1 H     2.50583690000E-01 -2.13554180000E-01 -4.94816990000E-01

  14  14   1    1 H     4.39035870000E-01 -4.07236940000E-01 -4.94849370000E-01

  15  15   1    1 H    -4.61320600000E-01  2.89236540000E-01  4.95771550000E-01

  16  16   1    1 H     1.56826070000E-01  1.01306880000E-01  4.94933570000E-01

  17  17   1    1 H     2.53744460000E-01  4.60011000000E-03  4.94804570000E-01

  18  18   1    1 H     4.42184830000E-01  3.86714900000E-01  4.94836930000E-01

  19  19   1    6 C    -2.61345160000E-01  1.39441600000E-01  4.98511180000E-01

  20  20   1    6 C    -2.05943850000E-01  8.78887200000E-02  4.95900440000E-01

  21  21   1    6 C    -9.89755200000E-02  3.02427050000E-01  4.95674910000E-01

  22  22   1    6 C    -2.06119580000E-01  2.48517790000E-01  4.96351750000E-01

  23  23   1    6 C    -9.86103300000E-02  1.42145720000E-01  4.94611210000E-01

  24  24   1    6 C    -4.45457000000E-02  2.48841440000E-01  4.96383950000E-01

  25  25   1    6 C     3.99892480000E-01 -2.00156750000E-01 -4.98523590000E-01

  26  26   1    6 C     4.52228420000E-01 -2.56374420000E-01 -4.95912900000E-01

  27  27   1    6 C     2.37779890000E-01 -3.63405910000E-01 -4.95687290000E-01

  28  28   1    6 C     2.91476850000E-01 -2.56050080000E-01 -4.96364110000E-01

  29  29   1    6 C     3.98371140000E-01 -3.64099440000E-01 -4.94623700000E-01

  30  30   1    6 C     2.91127100000E-01 -4.17641040000E-01 -4.96396380000E-01

  31  31   1    6 C     4.00809410000E-01  1.39372470000E-01  4.98511170000E-01

  32  32   1    6 C     4.54777240000E-01  2.48728830000E-01  4.95900500000E-01

  33  33   1    6 C     2.40459750000E-01  1.41413820000E-01  4.95674850000E-01

  34  34   1    6 C     2.93715600000E-01  8.75156400000E-02  4.96351670000E-01

  35  35   1    6 C     4.01706270000E-01  3.02993700000E-01  4.94611280000E-01

  36  36   1    6 C     2.93378390000E-01  2.48764040000E-01  4.96383950000E-01

  37  37   1    8 O     4.07253530000E-01 -2.66268700000E-02  4.99316930000E-01

  38  38   1    8 O    -4.35515400000E-01 -3.00474200000E-02 -4.95107160000E-01

  39  39   1    8 O    -4.32931890000E-01  1.34069810000E-01  4.96480660000E-01

  40  40   1    8 O     1.26841360000E-01  4.12653600000E-01  4.99316960000E-01

  41  41   1    8 O     1.25146870000E-01  2.50269860000E-01 -4.95107160000E-01

  42  42   1    8 O     2.86652530000E-01  4.14381780000E-01  4.96480640000E-01

 NUMBER OF SYMMETRY OPERATORS         :    1
 *******************************************************************************
 * GEOMETRY EDITING - INPUT COORDINATES ARE GIVEN IN ANGSTROM         
 *******************************************************************************

 GCALCO - MAX INDICES DIRECT LATTICE VECTOR     9    15    23
 NO.OF VECTORS CREATED 6999 STARS 3500 RMAX   215.32575 BOHR

 GEOMETRY FOR WAVE FUNCTION - DIMENSIONALITY OF THE SYSTEM    3
 (NON PERIODIC DIRECTION: LATTICE PARAMETER FORMALLY SET TO 500)
 *******************************************************************************
 LATTICE PARAMETERS (ANGSTROMS AND DEGREES) - BOHR = 0.5291772083 ANGSTROM
 PRIMITIVE CELL - CENTRING CODE 1/0 VOLUME=   742.839190 - DENSITY  0.872 g/cm^3
         A              B              C           ALPHA      BETA       GAMMA 
    15.02361100    15.02391600     8.85663600    38.529213  89.999976 119.995964
 *******************************************************************************
 ATOMS IN THE ASYMMETRIC UNIT   42 - ATOMS IN THE UNIT CELL:   42
     ATOM                 X/A                 Y/B                 Z/C    
 *******************************************************************************
      1 T   5 B     4.596029600000E-01 -8.086827000000E-02 -4.987492300000E-01
      2 T   5 B    -3.813413900000E-01  7.819138000000E-02 -4.987492100000E-01
      3 T   5 B     4.604110800000E-01  7.979913000000E-02  4.986078700000E-01
      4 T   5 B     7.317766000000E-02  3.054467200000E-01 -4.987492100000E-01
      5 T   5 B     2.322856400000E-01  3.054259600000E-01 -4.987492200000E-01
      6 T   5 B     2.330783100000E-01  4.661901100000E-01  4.986078700000E-01
      7 T   1 H    -2.493497100000E-01  4.112410000000E-03  4.957715000000E-01
      8 T   1 H    -5.550124000000E-02  3.867509600000E-01  4.949336200000E-01
      9 T   1 H    -2.491247200000E-01  2.898492300000E-01  4.948046700000E-01
     10 T   1 H    -5.536984000000E-02  1.014419700000E-01  4.948368300000E-01
     11 T   1 H    -4.639566700000E-01 -2.130055200000E-01 -4.957839500000E-01
     12 T   1 H     1.536830900000E-01 -4.070875200000E-01 -4.949460200000E-01
     13 T   1 H     2.505836900000E-01 -2.135541800000E-01 -4.948169900000E-01
     14 T   1 H     4.390358700000E-01 -4.072369400000E-01 -4.948493700000E-01
     15 T   1 H    -4.613206000000E-01  2.892365400000E-01  4.957715500000E-01
     16 T   1 H     1.568260700000E-01  1.013068800000E-01  4.949335700000E-01
     17 T   1 H     2.537444600000E-01  4.600110000000E-03  4.948045700000E-01
     18 T   1 H     4.421848300000E-01  3.867149000000E-01  4.948369300000E-01
     19 T   6 C    -2.613451600000E-01  1.394416000000E-01  4.985111800000E-01
     20 T   6 C    -2.059438500000E-01  8.788872000000E-02  4.959004400000E-01
     21 T   6 C    -9.897552000000E-02  3.024270500000E-01  4.956749100000E-01
     22 T   6 C    -2.061195800000E-01  2.485177900000E-01  4.963517500000E-01
     23 T   6 C    -9.861033000000E-02  1.421457200000E-01  4.946112100000E-01
     24 T   6 C    -4.454570000000E-02  2.488414400000E-01  4.963839500000E-01
     25 T   6 C     3.998924800000E-01 -2.001567500000E-01 -4.985235900000E-01
     26 T   6 C     4.522284200000E-01 -2.563744200000E-01 -4.959129000000E-01
     27 T   6 C     2.377798900000E-01 -3.634059100000E-01 -4.956872900000E-01
     28 T   6 C     2.914768500000E-01 -2.560500800000E-01 -4.963641100000E-01
     29 T   6 C     3.983711400000E-01 -3.640994400000E-01 -4.946237000000E-01
     30 T   6 C     2.911271000000E-01 -4.176410400000E-01 -4.963963800000E-01
     31 T   6 C     4.008094100000E-01  1.393724700000E-01  4.985111700000E-01
     32 T   6 C     4.547772400000E-01  2.487288300000E-01  4.959005000000E-01
     33 T   6 C     2.404597500000E-01  1.414138200000E-01  4.956748500000E-01
     34 T   6 C     2.937156000000E-01  8.751564000000E-02  4.963516700000E-01
     35 T   6 C     4.017062700000E-01  3.029937000000E-01  4.946112800000E-01
     36 T   6 C     2.933783900000E-01  2.487640400000E-01  4.963839500000E-01
     37 T   8 O     4.072535300000E-01 -2.662687000000E-02  4.993169300000E-01
     38 T   8 O    -4.355154000000E-01 -3.004742000000E-02 -4.951071600000E-01
     39 T   8 O    -4.329318900000E-01  1.340698100000E-01  4.964806600000E-01
     40 T   8 O     1.268413600000E-01  4.126536000000E-01  4.993169600000E-01
     41 T   8 O     1.251468700000E-01  2.502698600000E-01 -4.951071600000E-01
     42 T   8 O     2.866525300000E-01  4.143817800000E-01  4.964806400000E-01

 T = ATOM BELONGING TO THE ASYMMETRIC UNIT

 ****    1 SYMMOPS - TRANSLATORS IN FRACTIONAL UNITS
 **** MATRICES AND TRANSLATORS IN THE CRYSTALLOGRAPHIC REFERENCE FRAME
   V INV                    ROTATION MATRICES                   TRANSLATORS
   1   1  1.00 -0.00  0.00  0.00  1.00  0.00 -0.00  0.00  1.00  0.00  0.00  0.00

 DIRECT LATTICE VECTORS CARTESIAN COMPONENTS (ANGSTROM)
          X                    Y                    Z
   0.130113578931E+02  -0.751088897922E+01   0.000000000000E+00
   0.000000000000E+00   0.150239160000E+02   0.000000000000E+00
   0.399950390161E+01   0.692846360358E+01   0.380004761435E+01


 CARTESIAN COORDINATES - PRIMITIVE CELL
 *******************************************************************************
 *      ATOM          X(ANGSTROM)         Y(ANGSTROM)         Z(ANGSTROM)
 *******************************************************************************
    1     5 B    -1.419479165403E-02 -2.709839357973E-02 -5.695318435964E+00
    2     5 B     2.055335275399E+00  1.167951236912E+00 -5.695318359963E+00
    3     5 B    -1.027096530197E+00  6.108219818685E-01  5.694781261234E+00
    4     5 B    -1.042608687284E+00  5.838108349352E-01 -1.895270745617E+00
    5     5 B     1.027602144142E+00 -6.115435043330E-01 -1.895270783618E+00
    6     5 B     1.027345528346E+00  1.779498618969E+00 -1.905313967458E+00
    7     1 H    -5.261042170394E+00 -1.558906318933E+00 -1.916092308510E+00
    8     1 H    -2.742161454531E+00  2.728043556584E+00 -1.919276292405E+00
    9     1 H    -1.262477683727E+00 -5.369861254938E+00  1.880281305801E+00
   10     1 H    -2.740838874087E+00 -1.560072280025E+00 -1.919644099014E+00
   11     1 H    -4.020092221011E+00  3.777992550289E+00  1.916044997917E+00
   12     1 H     2.008714802375E-02  4.324355182590E+00 -1.880818442531E+00
   13     1 H     5.280915492276E+00 -1.590384239427E+00  1.919719491959E+00
   14     1 H     3.733300846434E+00  2.179526894578E+00 -1.880451167929E+00
   15     1 H    -4.019567181507E+00 -3.778587568616E+00  1.883955495838E+00
   16     1 H     2.050496637356E-02 -3.155211523122E+00 -1.919276482408E+00
   17     1 H     1.281028889079E+00 -5.336962951373E+00 -1.919766688550E+00
   18     1 H     3.733023408595E+00 -1.011232937245E+00 -1.919643719009E+00
   19     6 C    -5.406161902583E+00  5.833463303467E-01 -1.905681394062E+00
   20     6 C    -4.695757295245E+00 -6.253813141130E-01 -1.915602330371E+00
   21     6 C    -3.304856078507E+00  1.792834707269E+00 -1.916459355109E+00
   22     6 C    -4.696238765061E+00  1.792343114154E+00 -1.913887330882E+00
   23     6 C    -3.304358733018E+00 -6.253312393011E-01 -1.920501465757E+00
   24     6 C    -2.593814402186E+00  5.838652264746E-01 -1.913764969349E+00
   25     6 C    -7.902067688399E-01 -1.369236372164E+00 -5.694460993221E+00
   26     6 C     3.900700243622E+00  4.339616315307E+00 -1.884492632568E+00
   27     6 C     1.111335998227E+00  4.343846431452E+00 -1.883635303826E+00
   28     6 C     1.807299418326E+00  5.548750175664E+00 -1.886207252052E+00
   29     6 C     3.205100058825E+00  3.134612889809E+00 -1.879593611184E+00
   30     6 C     1.802619631912E+00  3.123424518165E+00 -1.886329879589E+00
   31     6 C     3.209368148215E+00 -4.391061804602E+00 -1.905681432063E+00
   32     6 C     3.901121514206E+00 -3.171535349551E+00 -1.915602102368E+00
   33     6 C     1.111657461019E+00 -3.175675579448E+00 -1.916459583112E+00
   34     6 C     1.807295329499E+00 -4.380746762429E+00 -1.913887634886E+00
   35     6 C     3.205439889384E+00 -1.966586651078E+00 -1.920501199753E+00
   36     6 C     1.803036873490E+00 -1.955407948017E+00 -1.913764969349E+00
   37     8 O    -1.715912549729E+00 -5.839401494876E-01  5.697475722995E+00
   38     8 O     1.365024235972E+00 -2.609061669257E-02 -5.681478396550E+00
   39     8 O     3.521484742487E-01  6.103527112063E-01  5.686697761948E+00
   40     8 O    -3.521054413487E-01  1.778017430993E+00 -1.902619391696E+00
   41     8 O    -3.518523033700E-01 -6.102628306287E-01 -1.881430782204E+00
   42     8 O     1.715911013923E+00  5.840061667489E-01 -1.913397542745E+00

 *******************************************************************************
 STARTING BASIS SET HANDLING 
 *******************************************************************************

 Loading internal basis set: SOLDEF2MSVP         

 Please cite in your publication:
 L. Dona', J. G. Brandenburg and B. Civalleri, J. Chem. Phys., 151, 121101 (2019
 )                                                                              
                                                                                
                    

 *******************************************************************************
 LOCAL ATOMIC FUNCTIONS BASIS SET
 *******************************************************************************
   ATOM   X(AU)   Y(AU)   Z(AU)  N. TYPE  EXPONENT  S COEF   P COEF   D/F/G COEF
 *******************************************************************************
   1 B   -0.027  -0.051 -10.763
                                  1 S  
                                         2.410E+03 1.755E-03 0.000E+00 0.000E+00
                                         3.619E+02 1.344E-02 0.000E+00 0.000E+00
                                         8.231E+01 6.637E-02 0.000E+00 0.000E+00
                                         2.311E+01 2.303E-01 0.000E+00 0.000E+00
                                         7.252E+00 5.150E-01 0.000E+00 0.000E+00
                                  2 S  
                                         2.367E+00 1.000E+00 0.000E+00 0.000E+00
                                  3 S  
                                         5.533E-01 1.000E+00 0.000E+00 0.000E+00
                                  4 S  
                                         1.716E-01 1.000E+00 0.000E+00 0.000E+00
                           5-     7 P  
                                         6.002E+00 0.000E+00-3.555E-02 0.000E+00
                                         1.240E+00 0.000E+00-1.983E-01 0.000E+00
                                         3.367E-01 0.000E+00-5.048E-01 0.000E+00
                           8-    10 P  
                                         1.256E-01 0.000E+00 1.000E+00 0.000E+00
                          11-    15 D  
                                         8.880E-01 0.000E+00 0.000E+00 1.000E+00
   2 B    3.884   2.207 -10.763
   3 B   -1.941   1.154  10.762
   4 B   -1.970   1.103  -3.582
   5 B    1.942  -1.156  -3.582
   6 B    1.941   3.363  -3.601
   7 H   -9.942  -2.946  -3.621
                                 91 S  
                                         1.874E+01 1.968E-02 0.000E+00 0.000E+00
                                         2.826E+00 1.380E-01 0.000E+00 0.000E+00
                                         6.401E-01 4.783E-01 0.000E+00 0.000E+00
                                 92 S  
                                         1.756E-01 1.000E+00 0.000E+00 0.000E+00
   8 H   -5.182   5.155  -3.627
   9 H   -2.386 -10.148   3.553
  10 H   -5.179  -2.948  -3.628
  11 H   -7.597   7.139   3.621
  12 H    0.038   8.172  -3.554
  13 H    9.979  -3.005   3.628
  14 H    7.055   4.119  -3.554
  15 H   -7.596  -7.140   3.560
  16 H    0.039  -5.962  -3.627
  17 H    2.421 -10.085  -3.628
  18 H    7.054  -1.911  -3.628
  19 C  -10.216   1.102  -3.601
                                115 S  
                                         3.624E+03 1.634E-03 0.000E+00 0.000E+00
                                         5.440E+02 1.252E-02 0.000E+00 0.000E+00
                                         1.237E+02 6.211E-02 0.000E+00 0.000E+00
                                         3.476E+01 2.182E-01 0.000E+00 0.000E+00
                                         1.093E+01 4.980E-01 0.000E+00 0.000E+00
                                116 S  
                                         3.574E+00 1.000E+00 0.000E+00 0.000E+00
                                117 S  
                                         7.742E-01 1.000E+00 0.000E+00 0.000E+00
                                118 S  
                                         2.330E-01 1.000E+00 0.000E+00 0.000E+00
                         119-   121 P  
                                         9.443E+00 0.000E+00 3.790E-02 0.000E+00
                                         2.002E+00 0.000E+00 2.082E-01 0.000E+00
                                         5.463E-01 0.000E+00 5.047E-01 0.000E+00
                         122-   124 P  
                                         1.820E-01 0.000E+00 1.000E+00 0.000E+00
                         125-   129 D  
                                         8.880E-01 0.000E+00 0.000E+00 1.000E+00
  20 C   -8.874  -1.182  -3.620
  21 C   -6.245   3.388  -3.622
  22 C   -8.875   3.387  -3.617
  23 C   -6.244  -1.182  -3.629
  24 C   -4.902   1.103  -3.616
  25 C   -1.493  -2.587 -10.761
  26 C    7.371   8.201  -3.561
  27 C    2.100   8.209  -3.560
  28 C    3.415  10.486  -3.564
  29 C    6.057   5.924  -3.552
  30 C    3.406   5.902  -3.565
  31 C    6.065  -8.298  -3.601
  32 C    7.372  -5.993  -3.620
  33 C    2.101  -6.001  -3.622
  34 C    3.415  -8.278  -3.617
  35 C    6.057  -3.716  -3.629
  36 C    3.407  -3.695  -3.616
  37 O   -3.243  -1.103  10.767
                                385 S  
                                         6.773E+03 1.727E-03 0.000E+00 0.000E+00
                                         1.017E+03 1.325E-02 0.000E+00 0.000E+00
                                         2.313E+02 6.603E-02 0.000E+00 0.000E+00
                                         6.501E+01 2.353E-01 0.000E+00 0.000E+00
                                         2.050E+01 5.498E-01 0.000E+00 0.000E+00
                                386 S  
                                         6.716E+00 1.000E+00 0.000E+00 0.000E+00
                                387 S  
                                         1.147E+00 1.000E+00 0.000E+00 0.000E+00
                                388 S  
                                         3.342E-01 1.000E+00 0.000E+00 0.000E+00
                         389-   391 P  
                                         1.769E+01 0.000E+00 4.359E-02 0.000E+00
                                         3.854E+00 0.000E+00 2.318E-01 0.000E+00
                                         1.047E+00 0.000E+00 5.146E-01 0.000E+00
                         392-   394 P  
                                         2.759E-01 0.000E+00 1.000E+00 0.000E+00
                         395-   399 D  
                                         8.000E-01 0.000E+00 0.000E+00 1.000E+00
  38 O    2.580  -0.049 -10.736
  39 O    0.665   1.153  10.746
  40 O   -0.665   3.360  -3.595
  41 O   -0.665  -1.153  -3.555
  42 O    3.243   1.104  -3.616

 *******************************************************************************
 FINISHED BASIS SET HANDLING 
 *******************************************************************************

 INFORMATION **** SET_MPP **** PCRYSTAL CALCULATION
 INFORMATION **** READM2 **** NEW DEFAULT: FOCK/KS MATRIX MIXING SET TO 30 %
 INFORMATION **** READM2 **** NEW DEFAULT: FULL DIRECT SCF MODE
 INFORMATION **** READM2 **** NEW DEFAULT: COULOMB BIPOLAR BUFFER SET TO 32 Mb
 INFORMATION **** READM2 **** NEW DEFAULT: EXCHANGE BIPOLAR BUFFER SET TO 32 Mb

 *******************************************************************************
 NEW DEFAULT: DFT INTEGRATION GRID INCREASED TO XLGRID
 NEW DEFAULT: DIIS ACCELERATOR ACTIVE
 USE KEYWORD NODIIS TO TURN IT OFF
 *******************************************************************************

 WARNING **** RDDFTP **** HSEsol-HJS ACTIVE
 RANGE SEPARATION - OMEGA:   0.110000000000000     
 WARNING **** RDDFTP **** HSEsol-3c has to be combined with sol-def2-mSVP basis set
 *******************************************************************************
 N. OF ATOMS PER CELL        42  COULOMB OVERLAP TOL         (T1) 10**   -6
 NUMBER OF SHELLS           234  COULOMB PENETRATION TOL     (T2) 10**   -6
 NUMBER OF AO               474  EXCHANGE OVERLAP TOL        (T3) 10**   -6
 N. OF ELECTRONS PER CELL   198  EXCHANGE PSEUDO OVP (F(G))  (T4) 10**   -6
 CORE ELECTRONS PER CELL     60  EXCHANGE PSEUDO OVP (P(G))  (T5) 10**  -12
 N. OF SYMMETRY OPERATORS     1  POLE ORDER IN MONO ZONE                  4
 *******************************************************************************
 TYPE OF CALCULATION :  RESTRICTED CLOSED SHELL
 KOHN-SHAM HAMILTONIAN

 (EXCHANGE)[CORRELATION] FUNCTIONAL:(HSEsol GGA)[PBEsol]

 RANGE-SEPARATED HYBRID FUNCTIONAL 
 OMEGA (SHORT-RANGE)[LONG-RANGE]:(    0.1100)[    0.0000]

 HYBRID EXCHANGE - PERCENTAGE OF FOCK EXCHANGE    25.0000

 CAPPA:IS1  2;IS2  2;IS3  8; K PTS MONK NET  20; SYMMOPS:K SPACE   2;G SPACE   1

 *******************************************************************************
 MAX NUMBER OF SCF CYCLES      50  CONVERGENCE ON DELTAP        10**-16
 WEIGHT OF F(I) IN F(I+1)      30% CONVERGENCE ON ENERGY        10**- 6
 SHRINK. FACT.(MONKH.)    2  2  8  NUMBER OF K POINTS IN THE IBZ     20
 SHRINKING FACTOR(GILAT NET)    8  NUMBER OF K POINTS(GILAT NET)   1028
 *******************************************************************************
 *** K POINTS COORDINATES (OBLIQUE COORDINATES IN UNITS OF IS =  2)
   1-R(  0  0  0)   2-R(  1  0  0)   3-R(  0  1  0)   4-R(  1  1  0)
   5-C(  0  0  1)   6-C(  1  0  1)   7-C(  0  1  1)   8-C(  1  1  1)
   9-C(  0  0  2)  10-C(  1  0  2)  11-C(  0  1  2)  12-C(  1  1  2)
  13-C(  0  0  3)  14-C(  1  0  3)  15-C(  0  1  3)  16-C(  1  1  3)
  17-R(  0  0  4)  18-R(  1  0  4)  19-R(  0  1  4)  20-R(  1  1  4)

 DIRECT LATTICE VECTORS COMPON. (A.U.)     RECIP. LATTICE VECTORS COMPON. (A.U.) 
        X            Y            Z              X            Y            Z
   24.5879030  -14.1935232    0.0000000      0.2555397    0.0000000   -0.2689524
    0.0000000   28.3910867    0.0000000      0.1277517    0.2213084   -0.5379591
    7.5579670   13.0928987    7.1810493      0.0000000    0.0000000    0.8749676

 DISK SPACE FOR EIGENVECTORS (FTN 10)     7189632 REALS

 SYMMETRY ADAPTION OF THE BLOCH FUNCTIONS DISABLED
 TTTTTTTTTTTTTTTTTTTTTTTTTTTTTT gordsh1     TELAPSE        0.04 TCPU        0.04

 MATRIX SIZE: P(G)  308392, F(G)   60243, P(G) IRR  155363, F(G) IRR   60723
 MAX G-VECTOR INDEX FOR 1- AND 2-ELECTRON INTEGRALS  55

 TTTTTTTTTTTTTTTTTTTTTTTTTTTTTT INPUT       TELAPSE        0.41 TCPU        0.41

 NEIGHBORS OF THE NON-EQUIVALENT ATOMS

 N = NUMBER OF NEIGHBORS AT DISTANCE R
    ATOM  N     R/ANG      R/AU   NEIGHBORS (ATOM LABELS AND CELL INDICES)
   1 B    1     1.3791     2.6061   37 O    1 2-3
   1 B    1     1.3793     2.6065   38 O    0 0 0
   1 B    1     1.5503     2.9297   25 C    0 0 0
   1 B    1     2.3895     4.5155    3 B    1 2-3
   1 B    1     2.3898     4.5160    2 B    0 0 0
   1 B    1     2.5632     4.8437   26 C    0 0-1

   2 B    1     1.3793     2.6065   39 O    1 2-3
   2 B    1     1.3793     2.6065   38 O    0 0 0
   2 B    1     1.5504     2.9298   19 C    1 1-1
   2 B    1     2.3895     4.5156    3 B    1 2-3
   2 B    1     2.3898     4.5160    1 B    0 0 0
   2 B    1     2.5634     4.8440   22 C    1 1-1

   3 B    1     1.3791     2.6061   37 O    0 0 0
   3 B    1     1.3793     2.6064   39 O    0 0 0
   3 B    1     1.5502     2.9294   31 C   -1-1 2
   3 B    1     2.3895     4.5155    1 B   -1-2 3
   3 B    1     2.3895     4.5156    2 B   -1-2 3
   3 B    1     2.5629     4.8433   32 C   -1-1 2

   4 B    1     1.3795     2.6068   40 O    0 0 0
   4 B    1     1.3795     2.6070   41 O    0 0 0
   4 B    1     1.5513     2.9316   24 C    0 0 0
   4 B    1     2.3905     4.5174    6 B    0 0 0
   4 B    1     2.3905     4.5175    5 B    0 0 0
   4 B    1     2.5648     4.8468   23 C    0 0 0

   5 B    1     1.3795     2.6069   41 O    0 0 0
   5 B    1     1.3797     2.6072   42 O    0 0 0
   5 B    1     1.5516     2.9322   36 C    0 0 0
   5 B    1     2.3905     4.5175    4 B    0 0 0
   5 B    1     2.3911     4.5185    6 B    0 0 0
   5 B    1     2.5651     4.8473   35 C    0 0 0

   6 B    1     1.3795     2.6068   40 O    0 0 0
   6 B    1     1.3796     2.6071   42 O    0 0 0
   6 B    1     1.5516     2.9322   30 C    0 0 0
   6 B    1     2.3905     4.5174    4 B    0 0 0
   6 B    1     2.3911     4.5185    5 B    0 0 0
   6 B    1     2.5651     4.8473   29 C    0 0 0

   7 H    1     1.0913     2.0623   20 C    0 0 0
   7 H    1     2.1472     4.0576   19 C    0 0 0
   7 H    1     2.1680     4.0969   23 C    0 0 0
   7 H    1     2.5202     4.7625   10 H    0 0 0
   7 H    1     2.5676     4.8520   38 O   -1-1 1
   7 H    1     2.7321     5.1630    2 B   -1-1 1

   8 H    1     1.0914     2.0625   21 C    0 0 0
   8 H    1     2.1493     4.0616   24 C    0 0 0
   8 H    1     2.1666     4.0942   22 C    0 0 0
   8 H    1     2.5198     4.7618    9 H    0 1-1
   8 H    1     2.5720     4.8604   40 O    0 0 0
   8 H    1     2.7362     5.1707    4 B    0 0 0

   9 H    1     1.0914     2.0624   22 C    0-1 1
   9 H    1     2.1471     4.0575   19 C    0-1 1
   9 H    1     2.1680     4.0970   21 C    0-1 1
   9 H    1     2.5198     4.7618    8 H    0-1 1
   9 H    1     2.5665     4.8500   39 O    0 0-1
   9 H    1     2.7315     5.1618    2 B   -1-2 2

  10 H    1     1.0915     2.0626   23 C    0 0 0
  10 H    1     2.1490     4.0610   24 C    0 0 0
  10 H    1     2.1669     4.0948   20 C    0 0 0
  10 H    1     2.5202     4.7625    7 H    0 0 0
  10 H    1     2.5712     4.8588   41 O    0 0 0
  10 H    1     2.7351     5.1686    4 B    0 0 0

  11 H    1     1.0913     2.0623   26 C   -1-1 1
  11 H    1     2.1469     4.0571   25 C   -1-1 2
  11 H    1     2.1680     4.0968   29 C   -1-1 1
  11 H    1     2.5198     4.7617   14 H   -1-1 1
  11 H    1     2.5670     4.8510   38 O   -1-1 2
  11 H    1     2.7310     5.1609    1 B   -1-1 2

  12 H    1     1.0914     2.0625   27 C    0 0 0
  12 H    1     2.1493     4.0617   30 C    0 0 0
  12 H    1     2.1664     4.0939   28 C    0 0 0
  12 H    1     2.5192     4.7606   13 H    0 1-1
  12 H    1     2.5735     4.8632   40 O    0 0 0
  12 H    1     2.7371     5.1723    6 B    0 0 0

  13 H    1     1.0914     2.0624   28 C    0-1 1
  13 H    1     2.1475     4.0581   25 C    0-1 2
  13 H    1     2.1679     4.0967   27 C    0-1 1
  13 H    1     2.5192     4.7606   12 H    0-1 1
  13 H    1     2.5675     4.8519   37 O    1 1-1
  13 H    1     2.7328     5.1643    1 B    0-1 2

  14 H    1     1.0914     2.0625   29 C    0 0 0
  14 H    1     2.1491     4.0612   30 C    0 0 0
  14 H    1     2.1666     4.0942   26 C    0 0 0
  14 H    1     2.5198     4.7617   11 H    1 1-1
  14 H    1     2.5723     4.8609   42 O    0 0 0
  14 H    1     2.7355     5.1693    6 B    0 0 0

  15 H    1     1.0914     2.0624   32 C   -1-1 1
  15 H    1     2.1475     4.0582   31 C   -1-1 1
  15 H    1     2.1678     4.0966   35 C   -1-1 1
  15 H    1     2.5200     4.7621   18 H   -1-1 1
  15 H    1     2.5667     4.8503   39 O    0 0-1
  15 H    1     2.7315     5.1618    3 B    0 0-1

  16 H    1     1.0913     2.0623   33 C    0 0 0
  16 H    1     2.1487     4.0605   36 C    0 0 0
  16 H    1     2.1667     4.0945   34 C    0 0 0
  16 H    1     2.5197     4.7616   17 H    0 0 0
  16 H    1     2.5723     4.8610   41 O    0 0 0
  16 H    1     2.7359     5.1701    5 B    0 0 0

  17 H    1     1.0915     2.0626   34 C    0 0 0
  17 H    1     2.1479     4.0589   31 C    0 0 0
  17 H    1     2.1679     4.0968   33 C    0 0 0
  17 H    1     2.5197     4.7616   16 H    0 0 0
  17 H    1     2.5677     4.8522   37 O    1 1-2
  17 H    1     2.7331     5.1648    3 B    1 1-2

  18 H    1     1.0914     2.0624   35 C    0 0 0
  18 H    1     2.1486     4.0602   36 C    0 0 0
  18 H    1     2.1668     4.0947   32 C    0 0 0
  18 H    1     2.5200     4.7621   15 H    1 1-1
  18 H    1     2.5717     4.8598   42 O    0 0 0
  18 H    1     2.7349     5.1682    5 B    0 0 0

  19 C    1     1.4020     2.6495   22 C    0 0 0
  19 C    1     1.4021     2.6495   20 C    0 0 0
  19 C    1     1.5504     2.9298    2 B   -1-1 1
  19 C    1     2.1471     4.0575    9 H    0 1-1
  19 C    1     2.1472     4.0576    7 H    0 0 0
  19 C    1     2.4246     4.5817   21 C    0 0 0

  20 C    1     1.0913     2.0623    7 H    0 0 0
  20 C    1     1.3914     2.6294   23 C    0 0 0
  20 C    1     1.4021     2.6495   19 C    0 0 0
  20 C    1     2.1669     4.0948   10 H    0 0 0
  20 C    1     2.4177     4.5688   22 C    0 0 0
  20 C    1     2.4250     4.5825   24 C    0 0 0

  21 C    1     1.0914     2.0625    8 H    0 0 0
  21 C    1     1.3914     2.6293   22 C    0 0 0
  21 C    1     1.4026     2.6505   24 C    0 0 0
  21 C    1     2.1680     4.0970    9 H    0 1-1
  21 C    1     2.4182     4.5697   23 C    0 0 0
  21 C    1     2.4246     4.5817   19 C    0 0 0

  22 C    1     1.0914     2.0624    9 H    0 1-1
  22 C    1     1.3914     2.6293   21 C    0 0 0
  22 C    1     1.4020     2.6495   19 C    0 0 0
  22 C    1     2.1666     4.0942    8 H    0 0 0
  22 C    1     2.4177     4.5688   20 C    0 0 0
  22 C    1     2.4250     4.5826   24 C    0 0 0

  23 C    1     1.0915     2.0626   10 H    0 0 0
  23 C    1     1.3914     2.6294   20 C    0 0 0
  23 C    1     1.4025     2.6504   24 C    0 0 0
  23 C    1     2.1680     4.0969    7 H    0 0 0
  23 C    1     2.4182     4.5697   21 C    0 0 0
  23 C    1     2.4246     4.5818   19 C    0 0 0

  24 C    1     1.4025     2.6504   23 C    0 0 0
  24 C    1     1.4026     2.6505   21 C    0 0 0
  24 C    1     1.5513     2.9316    4 B    0 0 0
  24 C    1     2.1490     4.0610   10 H    0 0 0
  24 C    1     2.1493     4.0616    8 H    0 0 0
  24 C    1     2.4250     4.5825   20 C    0 0 0

  25 C    1     1.4020     2.6494   26 C    0 0-1
  25 C    1     1.4021     2.6495   28 C    0 0-1
  25 C    1     1.5503     2.9297    1 B    0 0 0
  25 C    1     2.1469     4.0571   11 H    1 1-2
  25 C    1     2.1475     4.0581   13 H    0 1-2
  25 C    1     2.4246     4.5818   27 C    0 0-1

  26 C    1     1.0913     2.0623   11 H    1 1-1
  26 C    1     1.3914     2.6293   29 C    0 0 0
  26 C    1     1.4020     2.6494   25 C    0 0 1
  26 C    1     2.1666     4.0942   14 H    0 0 0
  26 C    1     2.4175     4.5684   28 C    0 0 0
  26 C    1     2.4251     4.5828   30 C    0 0 0

  27 C    1     1.0914     2.0625   12 H    0 0 0
  27 C    1     1.3915     2.6295   28 C    0 0 0
  27 C    1     1.4026     2.6505   30 C    0 0 0
  27 C    1     2.1679     4.0967   13 H    0 1-1
  27 C    1     2.4179     4.5691   29 C    0 0 0
  27 C    1     2.4246     4.5818   25 C    0 0 1

  28 C    1     1.0914     2.0624   13 H    0 1-1
  28 C    1     1.3915     2.6295   27 C    0 0 0
  28 C    1     1.4021     2.6495   25 C    0 0 1
  28 C    1     2.1664     4.0939   12 H    0 0 0
  28 C    1     2.4175     4.5684   26 C    0 0 0
  28 C    1     2.4253     4.5832   30 C    0 0 0

  29 C    1     1.0914     2.0625   14 H    0 0 0
  29 C    1     1.3914     2.6293   26 C    0 0 0
  29 C    1     1.4025     2.6504   30 C    0 0 0
  29 C    1     2.1680     4.0968   11 H    1 1-1
  29 C    1     2.4179     4.5691   27 C    0 0 0
  29 C    1     2.4247     4.5819   25 C    0 0 1

  30 C    1     1.4025     2.6504   29 C    0 0 0
  30 C    1     1.4026     2.6505   27 C    0 0 0
  30 C    1     1.5516     2.9322    6 B    0 0 0
  30 C    1     2.1491     4.0612   14 H    0 0 0
  30 C    1     2.1493     4.0617   12 H    0 0 0
  30 C    1     2.4251     4.5828   26 C    0 0 0

  31 C    1     1.4021     2.6496   32 C    0 0 0
  31 C    1     1.4021     2.6497   34 C    0 0 0
  31 C    1     1.5502     2.9294    3 B    1 1-2
  31 C    1     2.1475     4.0582   15 H    1 1-1
  31 C    1     2.1479     4.0589   17 H    0 0 0
  31 C    1     2.4244     4.5814   33 C    0 0 0

  32 C    1     1.0914     2.0624   15 H    1 1-1
  32 C    1     1.3914     2.6293   35 C    0 0 0
  32 C    1     1.4021     2.6496   31 C    0 0 0
  32 C    1     2.1668     4.0947   18 H    0 0 0
  32 C    1     2.4179     4.5692   34 C    0 0 0
  32 C    1     2.4251     4.5827   36 C    0 0 0

  33 C    1     1.0913     2.0623   16 H    0 0 0
  33 C    1     1.3914     2.6294   34 C    0 0 0
  33 C    1     1.4025     2.6504   36 C    0 0 0
  33 C    1     2.1679     4.0968   17 H    0 0 0
  33 C    1     2.4178     4.5690   35 C    0 0 0
  33 C    1     2.4244     4.5814   31 C    0 0 0

  34 C    1     1.0915     2.0626   17 H    0 0 0
  34 C    1     1.3914     2.6294   33 C    0 0 0
  34 C    1     1.4021     2.6497   31 C    0 0 0
  34 C    1     2.1667     4.0945   16 H    0 0 0
  34 C    1     2.4179     4.5692   32 C    0 0 0
  34 C    1     2.4253     4.5832   36 C    0 0 0

  35 C    1     1.0914     2.0624   18 H    0 0 0
  35 C    1     1.3914     2.6293   32 C    0 0 0
  35 C    1     1.4025     2.6503   36 C    0 0 0
  35 C    1     2.1678     4.0966   15 H    1 1-1
  35 C    1     2.4178     4.5690   33 C    0 0 0
  35 C    1     2.4245     4.5817   31 C    0 0 0

  36 C    1     1.4025     2.6503   35 C    0 0 0
  36 C    1     1.4025     2.6504   33 C    0 0 0
  36 C    1     1.5516     2.9322    5 B    0 0 0
  36 C    1     2.1486     4.0602   18 H    0 0 0
  36 C    1     2.1487     4.0605   16 H    0 0 0
  36 C    1     2.4251     4.5827   32 C    0 0 0

  37 O    1     1.3791     2.6061    1 B   -1-2 3
  37 O    1     1.3791     2.6061    3 B    0 0 0
  37 O    1     2.3880     4.5126   38 O   -1-2 3
  37 O    1     2.3882     4.5130   39 O    0 0 0
  37 O    1     2.5383     4.7966   31 C   -1-1 2
  37 O    1     2.5384     4.7968   25 C   -1-2 3

  38 O    1     1.3793     2.6065    1 B    0 0 0
  38 O    1     1.3793     2.6065    2 B    0 0 0
  38 O    1     2.3880     4.5126   37 O    1 2-3
  38 O    1     2.3882     4.5131   39 O    1 2-3
  38 O    1     2.5391     4.7981   19 C    1 1-1
  38 O    1     2.5395     4.7990   25 C    0 0 0

  39 O    1     1.3793     2.6064    3 B    0 0 0
  39 O    1     1.3793     2.6065    2 B   -1-2 3
  39 O    1     2.3882     4.5130   37 O    0 0 0
  39 O    1     2.3882     4.5131   38 O   -1-2 3
  39 O    1     2.5390     4.7980   19 C    0-1 2
  39 O    1     2.5391     4.7982   31 C   -1-1 2

  40 O    1     1.3795     2.6068    6 B    0 0 0
  40 O    1     1.3795     2.6068    4 B    0 0 0
  40 O    1     2.3880     4.5126   42 O    0 0 0
  40 O    1     2.3884     4.5134   41 O    0 0 0
  40 O    1     2.5400     4.7998   24 C    0 0 0
  40 O    1     2.5403     4.8005   30 C    0 0 0

  41 O    1     1.3795     2.6069    5 B    0 0 0
  41 O    1     1.3795     2.6070    4 B    0 0 0
  41 O    1     2.3881     4.5128   42 O    0 0 0
  41 O    1     2.3884     4.5134   40 O    0 0 0
  41 O    1     2.5404     4.8006   24 C    0 0 0
  41 O    1     2.5405     4.8008   36 C    0 0 0

  42 O    1     1.3796     2.6071    6 B    0 0 0
  42 O    1     1.3797     2.6072    5 B    0 0 0
  42 O    1     2.3880     4.5126   40 O    0 0 0
  42 O    1     2.3881     4.5128   41 O    0 0 0
  42 O    1     2.5409     4.8016   36 C    0 0 0
  42 O    1     2.5410     4.8019   30 C    0 0 0


 SYMMETRY ALLOWED INTERNAL DEGREE(S) OF FREEDOM: 123
 TTTTTTTTTTTTTTTTTTTTTTTTTTTTTT SYMM        TELAPSE        0.42 TCPU        0.41
 TTTTTTTTTTTTTTTTTTTTTTTTTTTTTT INT_SCREEN  TELAPSE        0.45 TCPU        0.45

 DFT PARAMETERS

     ATOM       ELECTRONS   NET CHARGE   R(ANGSTROM)
   1   5  B       5.0000      0.0000     0.89000000
   7   1  H       1.0000      0.0000     1.11000000
  19   6  C       6.0000      0.0000     0.77000000
  37   8  O       8.0000      0.0000     0.74000000

 SIZE OF GRID=    1315112
 TTTTTTTTTTTTTTTTTTTTTTTTTTTTTT MAKE_GRID2  TELAPSE        8.70 TCPU        8.69
 BECKE WEIGHT FUNCTION
 RADSAFE =     2.00
 TOLERANCES - DENSITY:10**- 6; POTENTIAL:10**- 9; GRID WGT:10**-14

 RADIAL INTEGRATION  - INTERVALS (POINTS,UPPER LIMIT):            1( 75,  4.0*R)

 ANGULAR INTEGRATION - INTERVALS (ACCURACY LEVEL [N. POINTS] UPPER LIMIT):
  1(  4[  86]   0.2)  2(  8[ 194]   0.5)  3( 12[ 350]   0.9)  4( 16[ 974]   3.5)
  5( 12[ 350]9999.0)
 TTTTTTTTTTTTTTTTTTTTTTTTTTTTTT INT_CALC    TELAPSE        8.77 TCPU        8.76
 EEEEEEEEEE INT_CALC TERMINATION  DATE 19 02 2026 TIME 18:58:48.3

 *******************************************************************************
 cof-1_z38_L080_incl                                                             
 CRYSTAL - SCF - TYPE OF CALCULATION :  RESTRICTED CLOSED SHELL
 *******************************************************************************

 CAPPA:IS1  2;IS2  2;IS3  8; K PTS MONK NET  20; SYMMOPS:K SPACE   2;G SPACE   1

 TTTTTTTTTTTTTTTTTTTTTTTTTTTTTT SDIK        TELAPSE        9.36 TCPU       16.60

 AAAAAAAAAAAAAAAAAAAAAAAAAAAAAAAAAAAAAAAAAAAAAAAAAAAAAAAAAAAAAAAAAAAAAAAAAAAAAAA
         ATOMIC WAVEFUNCTION(S)


 NUCLEAR CHARGE  5.0  SYMMETRY SPECIES            S    P
 N. ELECTRONS    5.0  NUMBER OF PRIMITIVE GTOS    8    4
                      NUMBER OF CONTRACTED GTOS   4    2
                      NUMBER OF CLOSED SHELLS     2    0
                      OPEN SHELL OCCUPATION       0    1

  ZNUC  SCFIT    TOTAL HF ENERGY   KINETIC ENERGY   VIRIAL THEOREM ACCURACY
   5.0    11    -2.451164084E+01  2.462155050E+01 -1.995536038E+00  1.5E-06

 NUCLEAR CHARGE  1.0  SYMMETRY SPECIES            S
 N. ELECTRONS    1.0  NUMBER OF PRIMITIVE GTOS    4
                      NUMBER OF CONTRACTED GTOS   2
                      NUMBER OF CLOSED SHELLS     0
                      OPEN SHELL OCCUPATION       1

  ZNUC  SCFIT    TOTAL HF ENERGY   KINETIC ENERGY   VIRIAL THEOREM ACCURACY
   1.0     1    -4.977266687E-01  5.190767460E-01 -1.958869132E+00  0.0E+00

 NUCLEAR CHARGE  6.0  SYMMETRY SPECIES            S    P
 N. ELECTRONS    6.0  NUMBER OF PRIMITIVE GTOS    8    4
                      NUMBER OF CONTRACTED GTOS   4    2
                      NUMBER OF CLOSED SHELLS     2    0
                      OPEN SHELL OCCUPATION       0    2

  ZNUC  SCFIT    TOTAL HF ENERGY   KINETIC ENERGY   VIRIAL THEOREM ACCURACY
   6.0     9    -3.766704647E+01  3.775180683E+01 -1.997754800E+00  1.1E-06

 NUCLEAR CHARGE  8.0  SYMMETRY SPECIES            S    P
 N. ELECTRONS    8.0  NUMBER OF PRIMITIVE GTOS    8    4
                      NUMBER OF CONTRACTED GTOS   4    2
                      NUMBER OF CLOSED SHELLS     2    0
                      OPEN SHELL OCCUPATION       0    4

  ZNUC  SCFIT    TOTAL HF ENERGY   KINETIC ENERGY   VIRIAL THEOREM ACCURACY
   8.0    12    -7.477373220E+01  7.477365593E+01 -2.000001020E+00  3.8E-06

 AAAAAAAAAAAAAAAAAAAAAAAAAAAAAAAAAAAAAAAAAAAAAAAAAAAAAAAAAAAAAAAAAAAAAAAAAAAAAAA

 CHARGE NORMALIZATION FACTOR   1.00000000
 TOTAL ATOMIC CHARGES:
   5.0000000   5.0000000   5.0000000   5.0000000   5.0000000   5.0000000
   1.0000000   1.0000000   1.0000000   1.0000000   1.0000000   1.0000000
   1.0000000   1.0000000   1.0000000   1.0000000   1.0000000   1.0000000
   6.0000000   6.0000000   6.0000000   6.0000000   6.0000000   6.0000000
   6.0000000   6.0000000   6.0000000   6.0000000   6.0000000   6.0000000
   6.0000000   6.0000000   6.0000000   6.0000000   6.0000000   6.0000000
   8.0000000   8.0000000   8.0000000   8.0000000   8.0000000   8.0000000
 TTTTTTTTTTTTTTTTTTTTTTTTTTTTTT MOQGAD      TELAPSE        9.40 TCPU       17.93
 TTTTTTTTTTTTTTTTTTTTTTTTTTTTTT SHELLXN     TELAPSE       15.47 TCPU      210.96
 TTTTTTTTTTTTTTTTTTTTTTTTTTTTTT MONMO3      TELAPSE       15.60 TCPU      215.24
 NUMERICALLY INTEGRATED DENSITY    197.9999718151
 TTTTTTTTTTTTTTTTTTTTTTTTTTTTTT NUMDFT      TELAPSE       16.20 TCPU      234.51
 CYC   0 ETOT(AU) -1.295957198406E+03 DETOT -1.30E+03 tst  0.00E+00 PX  1.00E+00
 TTTTTTTTTTTTTTTTTTTTTTTTTTTTTT DIIS        TELAPSE       16.24 TCPU      235.68
 TTTTTTTTTTTTTTTTTTTTTTTTTTTTTT FDIK        TELAPSE       16.73 TCPU      251.17
 INSULATING STATE
 TOP OF VALENCE BANDS -    BAND     99; K    1; EIG -3.1089505E-01 AU
 BOTTOM OF VIRTUAL BANDS - BAND    100; K    1; EIG -1.5880799E-01 AU
 DIRECT ENERGY BAND GAP:   4.1385 eV
 TTTTTTTTTTTTTTTTTTTTTTTTTTTTTT PDIG        TELAPSE       17.06 TCPU      257.36
 CHARGE NORMALIZATION FACTOR   1.00000000
 TOTAL ATOMIC CHARGES:
   4.1534385   4.1603354   4.1607864   4.1602531   4.1599359   4.1527130
   0.7853109   0.7854350   0.7853246   0.7854782   0.7854896   0.7856424
   0.7854812   0.7856006   0.7853284   0.7855468   0.7852599   0.7854273
   6.0434704   6.2659815   6.2659455   6.2654911   6.2654818   6.0429337
   6.0462324   6.2660972   6.2662061   6.2660156   6.2661997   6.0449089
   6.0439181   6.2652296   6.2658581   6.2655866   6.2662249   6.0424963
   8.6951549   8.6954056   8.6952200   8.6956362   8.6955810   8.6959373
 TTTTTTTTTTTTTTTTTTTTTTTTTTTTTT MOQGAD      TELAPSE       17.10 TCPU      257.40
 TTTTTTTTTTTTTTTTTTTTTTTTTTTTTT SHELLXN     TELAPSE       23.74 TCPU      468.61
 TTTTTTTTTTTTTTTTTTTTTTTTTTTTTT MONMO3      TELAPSE       23.87 TCPU      473.01
 NUMERICALLY INTEGRATED DENSITY    197.9999937935
 TTTTTTTTTTTTTTTTTTTTTTTTTTTTTT NUMDFT      TELAPSE       24.50 TCPU      492.93
 CYC   1 ETOT(AU) -1.288814962585E+03 DETOT  7.14E+00 tst  0.00E+00 PX  1.00E+00
 TTTTTTTTTTTTTTTTTTTTTTTTTTTTTT DIIS        TELAPSE       24.55 TCPU      494.49
 DIIS TEST: 0.11150E+01 AT SCF   CYCLE   1 - MIX   30 %
 TTTTTTTTTTTTTTTTTTTTTTTTTTTTTT FDIK        TELAPSE       25.04 TCPU      510.41
 INSULATING STATE
 TOP OF VALENCE BANDS -    BAND     99; K    1; EIG -2.2232250E-01 AU
 BOTTOM OF VIRTUAL BANDS - BAND    100; K    1; EIG -8.4236481E-02 AU
 DIRECT ENERGY BAND GAP:   3.7575 eV
 TTTTTTTTTTTTTTTTTTTTTTTTTTTTTT PDIG        TELAPSE       25.38 TCPU      516.60
 CHARGE NORMALIZATION FACTOR   1.00000000
 TOTAL ATOMIC CHARGES:
   4.7119207   4.7070352   4.7077380   4.7075669   4.7068529   4.7122500
   0.9067127   0.9068143   0.9067502   0.9064281   0.9059311   0.9062997
   0.9059260   0.9061917   0.9066510   0.9064955   0.9067723   0.9068305
   5.8719231   6.1378341   6.1380995   6.1308277   6.1310533   5.8748378
   5.8808293   6.1284736   6.1301378   6.1289180   6.1301447   5.8838826
   5.8721169   6.1309584   6.1310627   6.1381427   6.1375853   5.8746215
   8.3374374   8.3379576   8.3334927   8.3375415   8.3327959   8.3381592
 TTTTTTTTTTTTTTTTTTTTTTTTTTTTTT MOQGAD      TELAPSE       25.43 TCPU      516.64
 TTTTTTTTTTTTTTTTTTTTTTTTTTTTTT SHELLXN     TELAPSE       31.98 TCPU      725.17
 TTTTTTTTTTTTTTTTTTTTTTTTTTTTTT MONMO3      TELAPSE       32.11 TCPU      729.56
 NUMERICALLY INTEGRATED DENSITY    197.9999900638
 TTTTTTTTTTTTTTTTTTTTTTTTTTTTTT NUMDFT      TELAPSE       32.74 TCPU      749.58
 CYC   2 ETOT(AU) -1.289009166686E+03 DETOT -1.94E-01 tst  3.62E-03 PX  1.59E-01
 TTTTTTTTTTTTTTTTTTTTTTTTTTTTTT DIIS        TELAPSE       32.79 TCPU      751.11
 DIIS TEST: 0.46381E+00 AT SCF   CYCLE   2 - DIIS ACTIVE - HISTORY:     2 CYCLES
 TTTTTTTTTTTTTTTTTTTTTTTTTTTTTT FDIK        TELAPSE       33.29 TCPU      767.03
 INSULATING STATE
 TOP OF VALENCE BANDS -    BAND     99; K    1; EIG -2.3562745E-01 AU
 BOTTOM OF VIRTUAL BANDS - BAND    100; K    1; EIG -7.8508360E-02 AU
 DIRECT ENERGY BAND GAP:   4.2754 eV
 TTTTTTTTTTTTTTTTTTTTTTTTTTTTTT PDIG        TELAPSE       36.93 TCPU      773.22
 CHARGE NORMALIZATION FACTOR   1.00000000
 TOTAL ATOMIC CHARGES:
   4.4998698   4.4991490   4.4997728   4.4996272   4.4990041   4.4997610
   0.8857168   0.8859347   0.8858434   0.8856997   0.8843761   0.8849930
   0.8844088   0.8848678   0.8857688   0.8857442   0.8858326   0.8858552
   5.8906012   6.1630521   6.1623917   6.1626345   6.1626437   5.8904884
   5.8914464   6.1635329   6.1632374   6.1634221   6.1633437   5.8896201
   5.8906051   6.1625905   6.1628861   6.1627075   6.1625690   5.8904561
   8.5123761   8.5128318   8.5142294   8.5125916   8.5144823   8.5130355
 TTTTTTTTTTTTTTTTTTTTTTTTTTTTTT MOQGAD      TELAPSE       36.97 TCPU      773.26
 TTTTTTTTTTTTTTTTTTTTTTTTTTTTTT SHELLXN     TELAPSE       43.52 TCPU      982.02
 TTTTTTTTTTTTTTTTTTTTTTTTTTTTTT MONMO3      TELAPSE       43.66 TCPU      986.31
 NUMERICALLY INTEGRATED DENSITY    197.9999909970
 TTTTTTTTTTTTTTTTTTTTTTTTTTTTTT NUMDFT      TELAPSE       44.27 TCPU     1005.95
 CYC   3 ETOT(AU) -1.289104587839E+03 DETOT -9.54E-02 tst  7.16E-04 PX  6.37E-02
 TTTTTTTTTTTTTTTTTTTTTTTTTTTTTT DIIS        TELAPSE       44.33 TCPU     1007.86
 DIIS TEST: 0.13319E-01 AT SCF   CYCLE   3 - DIIS ACTIVE - HISTORY:     3 CYCLES
 TTTTTTTTTTTTTTTTTTTTTTTTTTTTTT FDIK        TELAPSE       44.83 TCPU     1023.57
 INSULATING STATE
 TOP OF VALENCE BANDS -    BAND     99; K    1; EIG -2.4465129E-01 AU
 BOTTOM OF VIRTUAL BANDS - BAND    100; K    1; EIG -8.6914944E-02 AU
 DIRECT ENERGY BAND GAP:   4.2922 eV
 TTTTTTTTTTTTTTTTTTTTTTTTTTTTTT PDIG        TELAPSE       45.16 TCPU     1029.76
 CHARGE NORMALIZATION FACTOR   1.00000000
 TOTAL ATOMIC CHARGES:
   4.5059942   4.5043526   4.5050157   4.5047124   4.5039764   4.5058343
   0.8689468   0.8690112   0.8692468   0.8690927   0.8683156   0.8685960
   0.8683090   0.8685044   0.8691828   0.8691573   0.8689908   0.8690109
   5.9411881   6.1692139   6.1696038   6.1649007   6.1649803   5.9429567
   5.9467219   6.1638216   6.1652635   6.1640422   6.1652031   5.9486409
   5.9415934   6.1648571   6.1651432   6.1693362   6.1693441   5.9425253
   8.4816909   8.4821016   8.4783648   8.4819318   8.4779008   8.4824243
 TTTTTTTTTTTTTTTTTTTTTTTTTTTTTT MOQGAD      TELAPSE       45.20 TCPU     1029.80
 TTTTTTTTTTTTTTTTTTTTTTTTTTTTTT SHELLXN     TELAPSE       51.84 TCPU     1241.00
 TTTTTTTTTTTTTTTTTTTTTTTTTTTTTT MONMO3      TELAPSE       51.97 TCPU     1245.42
 NUMERICALLY INTEGRATED DENSITY    197.9999911215
 TTTTTTTTTTTTTTTTTTTTTTTTTTTTTT NUMDFT      TELAPSE       52.60 TCPU     1265.41
 CYC   4 ETOT(AU) -1.289107385766E+03 DETOT -2.80E-03 tst  3.26E-05 PX  1.28E-02
 TTTTTTTTTTTTTTTTTTTTTTTTTTTTTT DIIS        TELAPSE       52.66 TCPU     1267.43
 DIIS TEST: 0.38380E-02 AT SCF   CYCLE   4 - DIIS ACTIVE - HISTORY:     4 CYCLES
 TTTTTTTTTTTTTTTTTTTTTTTTTTTTTT FDIK        TELAPSE       53.17 TCPU     1283.59
 INSULATING STATE
 TOP OF VALENCE BANDS -    BAND     99; K    1; EIG -2.4310801E-01 AU
 BOTTOM OF VIRTUAL BANDS - BAND    100; K    1; EIG -8.6742794E-02 AU
 DIRECT ENERGY BAND GAP:   4.2549 eV
 TTTTTTTTTTTTTTTTTTTTTTTTTTTTTT PDIG        TELAPSE       53.50 TCPU     1289.77
 CHARGE NORMALIZATION FACTOR   1.00000000
 TOTAL ATOMIC CHARGES:
   4.5092415   4.5067938   4.5074567   4.5072992   4.5066075   4.5092297
   0.8717595   0.8719580   0.8719208   0.8717558   0.8706977   0.8712339
   0.8707147   0.8711186   0.8718491   0.8718091   0.8718552   0.8719080
   5.9220163   6.1696864   6.1692084   6.1667472   6.1667728   5.9225252
   5.9259109   6.1667033   6.1668515   6.1666968   6.1669664   5.9250728
   5.9220468   6.1667088   6.1669790   6.1694570   6.1692752   5.9224614
   8.4902859   8.4907687   8.4900965   8.4904598   8.4901239   8.4909700
 TTTTTTTTTTTTTTTTTTTTTTTTTTTTTT MOQGAD      TELAPSE       53.54 TCPU     1289.81
 TTTTTTTTTTTTTTTTTTTTTTTTTTTTTT SHELLXN     TELAPSE       60.12 TCPU     1499.39
 TTTTTTTTTTTTTTTTTTTTTTTTTTTTTT MONMO3      TELAPSE       60.26 TCPU     1503.84
 NUMERICALLY INTEGRATED DENSITY    197.9999911530
 TTTTTTTTTTTTTTTTTTTTTTTTTTTTTT NUMDFT      TELAPSE       60.89 TCPU     1523.89
 CYC   5 ETOT(AU) -1.289108266658E+03 DETOT -8.81E-04 tst  6.80E-06 PX  6.71E-03
 TTTTTTTTTTTTTTTTTTTTTTTTTTTTTT DIIS        TELAPSE       60.96 TCPU     1526.16
 DIIS TEST: 0.71403E-04 AT SCF   CYCLE   5 - DIIS ACTIVE - HISTORY:     5 CYCLES
 TTTTTTTTTTTTTTTTTTTTTTTTTTTTTT FDIK        TELAPSE       61.46 TCPU     1542.21
 INSULATING STATE
 TOP OF VALENCE BANDS -    BAND     99; K    1; EIG -2.4298348E-01 AU
 BOTTOM OF VIRTUAL BANDS - BAND    100; K    1; EIG -8.6166067E-02 AU
 DIRECT ENERGY BAND GAP:   4.2672 eV
 TTTTTTTTTTTTTTTTTTTTTTTTTTTTTT PDIG        TELAPSE       61.80 TCPU     1548.40
 CHARGE NORMALIZATION FACTOR   1.00000000
 TOTAL ATOMIC CHARGES:
   4.5083996   4.5066746   4.5073306   4.5070610   4.5063705   4.5082315
   0.8726818   0.8727661   0.8728136   0.8726471   0.8717173   0.8720779
   0.8717109   0.8719856   0.8727384   0.8727041   0.8727363   0.8727572
   5.9219410   6.1689732   6.1691891   6.1660956   6.1661620   5.9232350
   5.9251774   6.1656219   6.1667759   6.1657953   6.1667101   5.9263594
   5.9223055   6.1660696   6.1663457   6.1690191   6.1689886   5.9228369
   8.4902116   8.4905990   8.4885478   8.4904778   8.4882405   8.4909178
 TTTTTTTTTTTTTTTTTTTTTTTTTTTTTT MOQGAD      TELAPSE       61.84 TCPU     1548.44
 TTTTTTTTTTTTTTTTTTTTTTTTTTTTTT SHELLXN     TELAPSE       68.47 TCPU     1759.53
 TTTTTTTTTTTTTTTTTTTTTTTTTTTTTT MONMO3      TELAPSE       68.61 TCPU     1763.91
 NUMERICALLY INTEGRATED DENSITY    197.9999911248
 TTTTTTTTTTTTTTTTTTTTTTTTTTTTTT NUMDFT      TELAPSE       69.23 TCPU     1783.71
 CYC   6 ETOT(AU) -1.289108287090E+03 DETOT -2.04E-05 tst  2.36E-07 PX  1.11E-03
 TTTTTTTTTTTTTTTTTTTTTTTTTTTTTT DIIS        TELAPSE       69.30 TCPU     1786.03
 DIIS TEST: 0.61749E-05 AT SCF   CYCLE   6 - DIIS ACTIVE - HISTORY:     6 CYCLES
 TTTTTTTTTTTTTTTTTTTTTTTTTTTTTT FDIK        TELAPSE       69.79 TCPU     1801.85
 INSULATING STATE
 TOP OF VALENCE BANDS -    BAND     99; K    1; EIG -2.4295466E-01 AU
 BOTTOM OF VIRTUAL BANDS - BAND    100; K    1; EIG -8.6261211E-02 AU
 DIRECT ENERGY BAND GAP:   4.2638 eV
 TTTTTTTTTTTTTTTTTTTTTTTTTTTTTT PDIG        TELAPSE       70.12 TCPU     1808.03
 CHARGE NORMALIZATION FACTOR   1.00000000
 TOTAL ATOMIC CHARGES:
   4.5088453   4.5066418   4.5073030   4.5071416   4.5064479   4.5088067
   0.8726207   0.8728064   0.8728124   0.8726433   0.8715818   0.8721140
   0.8716004   0.8719960   0.8727420   0.8726951   0.8727178   0.8727552
   5.9224487   6.1689627   6.1685303   6.1659465   6.1660038   5.9230611
   5.9264804   6.1658835   6.1660441   6.1658697   6.1661671   5.9257649
   5.9224740   6.1658984   6.1662155   6.1687331   6.1686013   5.9230039
   8.4898994   8.4903916   8.4893405   8.4900660   8.4893502   8.4905919
 TTTTTTTTTTTTTTTTTTTTTTTTTTTTTT MOQGAD      TELAPSE       70.17 TCPU     1808.08
 TTTTTTTTTTTTTTTTTTTTTTTTTTTTTT SHELLXN     TELAPSE       76.77 TCPU     2018.21
 TTTTTTTTTTTTTTTTTTTTTTTTTTTTTT MONMO3      TELAPSE       76.90 TCPU     2022.61
 NUMERICALLY INTEGRATED DENSITY    197.9999911299
 TTTTTTTTTTTTTTTTTTTTTTTTTTTTTT NUMDFT      TELAPSE       77.53 TCPU     2042.57
 CYC   7 ETOT(AU) -1.289108287558E+03 DETOT -4.68E-07 tst  2.31E-08 PX  4.40E-04
 TTTTTTTTTTTTTTTTTTTTTTTTTTTTTT DIIS        TELAPSE       77.61 TCPU     2045.18
 DIIS TEST: 0.12380E-05 AT SCF   CYCLE   7 - DIIS ACTIVE - HISTORY:     7 CYCLES
 TTTTTTTTTTTTTTTTTTTTTTTTTTTTTT FDIK        TELAPSE       78.11 TCPU     2061.07
 INSULATING STATE
 TOP OF VALENCE BANDS -    BAND     99; K    1; EIG -2.4296666E-01 AU
 BOTTOM OF VIRTUAL BANDS - BAND    100; K    1; EIG -8.6262635E-02 AU
 DIRECT ENERGY BAND GAP:   4.2641 eV
 TTTTTTTTTTTTTTTTTTTTTTTTTTTTTT PDIG        TELAPSE       78.44 TCPU     2067.27
 CHARGE NORMALIZATION FACTOR   1.00000000
 TOTAL ATOMIC CHARGES:
   4.5088230   4.5067473   4.5074055   4.5071882   4.5064961   4.5087282
   0.8726091   0.8727458   0.8727712   0.8726068   0.8716049   0.8720453
   0.8716087   0.8719425   0.8726971   0.8726627   0.8726827   0.8727182
   5.9221780   6.1689376   6.1688335   6.1659965   6.1660326   5.9231005
   5.9257932   6.1656992   6.1663976   6.1657963   6.1664100   5.9260526
   5.9223983   6.1659676   6.1662232   6.1688623   6.1687508   5.9228482
   8.4900589   8.4904876   8.4891057   8.4902848   8.4889477   8.4907541
 TTTTTTTTTTTTTTTTTTTTTTTTTTTTTT MOQGAD      TELAPSE       78.48 TCPU     2067.31
 TTTTTTTTTTTTTTTTTTTTTTTTTTTTTT SHELLXN     TELAPSE       85.03 TCPU     2275.91
 +++ ENERGIES IN A.U. +++
 ::: EXT EL-POLE                                  -1.3779868179668E+03
 ::: EXT EL-SPHEROPOLE                             1.5051437458545E+01
 ::: BIELET ZONE E-E                               2.0391726679147E+03
 ::: TOTAL E-E                                     6.7623728740648E+02
 ::: TOTAL E-N + N-E                              -3.1807494863318E+03
 ::: TOTAL N-N                                     6.9176139092204E+01
 ::: KINETIC ENERGY                                1.2799468510868E+03
 ::: PSEUDO TOTAL   ENERGY                        -1.1553892087463E+03
 ::: VIRIAL COEFFICIENT                            1.0511459770974E+00
 TTTTTTTTTTTTTTTTTTTTTTTTTTTTTT MONMO3      TELAPSE       85.17 TCPU     2280.19
 NUMERICALLY INTEGRATED DENSITY    197.9999911286
 EXCHANGE ENERGY: -0.126028432195E+03  CORRELATION ENERGY: -0.769064691224E+01
 TTTTTTTTTTTTTTTTTTTTTTTTTTTTTT NUMDFT      TELAPSE       85.78 TCPU     2299.81
 CYC   8 ETOT(AU) -1.289108287854E+03 DETOT -2.96E-07 tst  6.31E-09 PX  4.40E-04

 == SCF ENDED - CONVERGENCE ON ENERGY      E(AU) -1.2891082878539E+03 CYCLES   8


 ENERGY EXPRESSION=HARTREE+FOCK EXCH*0.00000+(HSESOL     EXCH)*1.00000+PBESOL     CORR


 TOTAL ENERGY(DFT)(AU)(  8) -1.2891082878539E+03 DE-3.0E-07 tester 6.3E-09
 TTTTTTTTTTTTTTTTTTTTTTTTTTTTTT EDFT        TELAPSE       85.78 TCPU     2299.82
 
 INFORMATION **** DFTD3 ENERGY **** CALCULATE DFTD3 ENERGY

           DFT-D V3(BJ)
 DF                                         hsesol3c  
 parameters
 s6       :    1.0000
 s8       :    0.0000
 a1       :    0.5196
 a2       :    4.9385
 k1 k3    :   16.0000   -4.0000
 Cutoff   :   50.2022
 CN-Cutoff:   21.1671
 ABC-Cutoff:   21.1671
 
 Edisp /kcal,au:   -24.0511 -0.03832789

 E6    /kcal :   -25.3429
 E8    /kcal :     0.0000
 E6(ABC) "   :   1.291748
 
 INFORMATION **** DFTD3 ENERGY **** NORMAL TERMINATION OF DFTD3 MODULE

 GCP ENERGY CALCULATION
  level        hsesol3c            basis:hsesol3c
  Nbf            474
  Atoms           42

  Parameters: 
  sigma     1.0000
  eta       1.4281
  alpha     0.2936
  beta      1.9467

  dmp_scal      4.0000
  dmp_exp       6.0000
 cutoffs: 
   distance [bohr] 60.0
   noise    [a.u.] 2.2E-16
 SR-damping   T
 ** gCP correction **
  Egcp:        0.0830052329 / (a.u.) ||      52.0866 / (kcal/mol)
 INFORMATION **** GCP **** NORMAL TERMINATION OF GCP MODULE

 *******************************************************************************

 DFT-D3-GCP DISPERSION AND COUNTERPOISE CORRECTION

 D3 DISPERSION ENERGY (AU)      -3.8327890643083E-02
 GCP ENERGY (AU)                 8.3005232864708E-02
 TOTAL ENERGY + DISP + GCP (AU) -1.2890636105117E+03

 *******************************************************************************

 EIGENVECTORS IN FORTRAN UNIT  8
 TTTTTTTTTTTTTTTTTTTTTTTTTTTTTT END         TELAPSE       87.55 TCPU     2307.52
 EEEEEEEEEE TERMINATION  DATE 19 02 2026 TIME 19:00:07.1
