 Default number of threads is:           32

         
 *******************************************************************************
 *                                                                             *
 *                               CRYSTAL23                                     *
 *                      public : 1.0.1 - October 2022                          *
 *                       HTTP://WWW.CRYSTAL.UNITO.IT                           *
 *                                                                             *
 *                              MAIN AUTHORS                                   *
 *                                                                             *
 *  R. DOVESI(1,11), V.R. SAUNDERS(2), C. ROETTI(1,11), R. ORLANDO(1,11),      *
 *  C.M. ZICOVICH-WILSON(1,3), F. PASCALE(4), B. CIVALLERI(1,11),              *
 *  K. DOLL(5), N.M. HARRISON(6), I.J. BUSH(7), Ph. D'ARCO(8),                 *
 *  M. LLUNELL(9), M. CAUSA'(10), Y. NOEL(8), L. MASCHIO(1,11), A. ERBA(1,11)  *
 *  M. RE'RAT(14), S. CASASSA(1,11), B.G. SEARLE(2), J.K. DESMARAIS(1)         *
 *                                                                             *
 *        CONTRIBUTIONS TO THE CODE HAVE ALSO BEEN GIVEN BY                    *
 *                                                                             *
 *  M. FERRABONE(1,11), M. DE LA PIERRE(1,11), M. FERRERO(1,11),               *
 *  J. BAIMA(1,11), E. ALBANESE(1,11), M.F. PEINTINGER(12), R. BAST(13),       *
 *  B. KIRTMAN(15), V. LACIVITA(1,11), R. DEMICHELIS(1,16)                     *
 *  G. BRANDEBURG(17), S. SALUSTRO(1,11), G. SANSONE(1,11)                     *
 *  M.T. RUGGIERO(18), L.E. DAGA(1), L. DONA'(1), A. COSSARD(1)                *
 *                                                                             *
 * (1) THEORETICAL CHEMISTRY GROUP - UNIVERSITA' DI TORINO - TORINO (ITALY)    *
 * (2) SCIENTIFIC COMPUTING DEPARTMENT - STFC DARESBURY (UK)                   *
 * (3) UNIVERSIDAD AUTONOMA DEL ESTADO DE MORELOS - CUERNAVACA (MEXICO)        *
 * (4) UNIVERSITE' DE LORRAINE - NANCY (FRANCE)                                *
 * (5) UNIVERSITAET STUTTGART- STUTTGART (GERMANY)                             *
 * (6) IMPERIAL COLLEGE - LONDON (UK)                                          *
 * (7) SCIENTIFIC COMPUTING DEPARTMENT - STFC RAL (UK)                         *
 * (8) UPMC - SORBONNE UNIVERSITES - PARIS (FRANCE)                            *
 * (9) UNIVERSIDAD DE BARCELONA - BARCELONA (SPAIN)                            *
 *(10) UNIVERSITA' DI NAPOLI "FEDERICO II" - NAPOLI (ITALY)                    *
 *(11) NIS - NANOSTRUCTURED INTERFACES AND SURFACES - TORINO (ITALY)           *
 *(12) MPI FUER CHEMISCHE ENERGIEKONVERSION - MUELHEIM AN DER RUHR (GERMANY)   *
 *(13) UNIVERSITY OF TROMSO - TROMSO (NORWAY)                                  *
 *(14) UNIVERSITE' DE PAU ET DES PAYS DE L'ADOUR - PAU (FRANCE)                *
 *(15) UNIVERSITY OF CALIFORNIA SANTA BARBARA - SANTA BARBARA (USA)            *
 *(16) CURTIN UNIVERSITY - PERTH (AUSTRALIA)                                   *
 *(17) UNIVERSITY COLLEGE LONDON - LONDON (UK)                                 *
 *(18) UNIVERSITY OF VERMONT - BURLINGTON (USA)                                *
 *                                                                             *
 *******************************************************************************
 EEEEEEEEEE STARTING  DATE 19 02 2026 TIME 19:00:39.4
 cof-1_z39_L030_incl                                                             

 CRYSTAL CALCULATION
 (INPUT ACCORDING TO THE INTERNATIONAL TABLES FOR X-RAY CRYSTALLOGRAPHY)
 CRYSTAL FAMILY                       :  TRICLINIC   
 CRYSTAL CLASS  (GROTH - 1921)        :  TRICLINIC PEDIAL                     

 SPACE GROUP (NONCENTROSYMMETRIC)     :  P 1             

 LATTICE PARAMETERS  (ANGSTROMS AND DEGREES) - CONVENTIONAL CELL
        A           B           C        ALPHA        BETA       GAMMA
    15.02361    15.02392     4.92037    58.12674    89.99995   119.99596


 NUMBER OF IRREDUCIBLE ATOMS IN THE CONVENTIONAL CELL:   42

 INPUT COORDINATES

 ATOM AT. N.              COORDINATES
   1   5     5.559047000000E-01  1.117548000000E-01  5.012225100000E-01
   2   5     7.149603600000E-01  2.708144600000E-01  5.012225300000E-01
   3   5     5.561972700000E-01  2.713909900000E-01  4.986473600000E-01
   4   5     1.694794100000E-01  4.980698000000E-01  5.012225200000E-01
   5   5     3.285873800000E-01  4.980490300000E-01  5.012225200000E-01
   6   5     3.288645000000E-01  6.577819700000E-01  4.986473600000E-01
   7   1     8.458831900000E-01  1.945975700000E-01  4.958836900000E-01
   8   1     3.956821000000E-02  5.769091900000E-01  4.950672900000E-01
   9   1     8.459195800000E-01  4.799571500000E-01  4.949416400000E-01
  10   1     3.968073000000E-02  2.915624300000E-01  4.949729800000E-01
  11   1     6.329235200000E-01 -1.922546000000E-02  5.041117800000E-01
  12   1     2.507267300000E-01  7.870194900000E-01  5.049282400000E-01
  13   1     3.476525100000E-01 -1.939683000000E-02  5.050539600000E-01
  14   1     5.360983600000E-01  7.869077900000E-01  5.050224100000E-01
  15   1     6.339123000000E-01  4.797217200000E-01  4.958837400000E-01
  16   1     2.518955100000E-01  2.914650900000E-01  4.950672400000E-01
  17   1     3.487887400000E-01  1.947079900000E-01  4.949415400000E-01
  18   1     5.372354200000E-01  5.768354000000E-01  4.949730800000E-01
  19   6     8.344221700000E-01  3.309957300000E-01  4.985531400000E-01
  20   6     8.893142000000E-01  2.784241800000E-01  4.960093300000E-01
  21   6    -3.761460000000E-03  4.928745200000E-01  4.957895800000E-01
  22   6     8.892265100000E-01  4.392293500000E-01  4.964490600000E-01
  23   6    -3.603770000000E-03  3.321781500000E-01  4.947531500000E-01
  24   6     5.080667000000E-02  4.395655600000E-01  4.964804400000E-01
  25   6     4.962382400000E-01 -7.445650000000E-03  5.014423700000E-01
  26   6     5.490834500000E-01 -6.264466000000E-02  5.039861300000E-01
  27   6     3.346789300000E-01  8.304118700000E-01  5.042059600000E-01
  28   6     3.882438600000E-01 -6.249638000000E-02  5.035464900000E-01
  29   6     4.954776600000E-01  8.301333300000E-01  5.052422800000E-01
  30   6     3.878878100000E-01  7.759000700000E-01  5.035150500000E-01
  31   6     4.965767300000E-01  3.309265900000E-01  4.985531400000E-01
  32   6     5.500353000000E-01  4.392643200000E-01  4.960093800000E-01
  33   6     3.356737900000E-01  3.318612600000E-01  4.957895300000E-01
  34   6     3.890616700000E-01  2.782271700000E-01  4.964489900000E-01
  35   6     4.967128400000E-01  4.930261600000E-01  4.947532200000E-01
  36   6     3.887307600000E-01  4.394881600000E-01  4.964804400000E-01
  37   8     5.031780400000E-01  1.652416500000E-01  4.993382500000E-01
  38   8     6.614968100000E-01  1.639967100000E-01  5.047712300000E-01
  39   8     6.624393400000E-01  3.248316600000E-01  4.965746700000E-01
  40   8     2.227658700000E-01  6.045221300000E-01  4.993382700000E-01
  41   8     2.221590800000E-01  4.443139900000E-01  5.047712200000E-01
  42   8     3.820237600000E-01  6.051436300000E-01  4.965746500000E-01

 *******************************************************************************

 << INFORMATION >>: FROM NOW ON, ALL COORDINATES REFER TO THE PRIMITIVE CELL

 *******************************************************************************

 LATTICE PARAMETERS  (ANGSTROMS AND DEGREES) - PRIMITIVE CELL
       A          B          C        ALPHA      BETA     GAMMA        VOLUME
   15.02361   15.02392    4.92037    58.12674  89.99995 119.99596    762.381540

 COORDINATES OF THE EQUIVALENT ATOMS (FRACTIONAL UNITS)

 N. ATOM EQUIV AT. N.          X                  Y                  Z

   1   1   1    5 B    -4.44095300000E-01  1.11754800000E-01 -4.98777490000E-01

   2   2   1    5 B    -2.85039640000E-01  2.70814460000E-01 -4.98777470000E-01

   3   3   1    5 B    -4.43802730000E-01  2.71390990000E-01  4.98647360000E-01

   4   4   1    5 B     1.69479410000E-01  4.98069800000E-01 -4.98777480000E-01

   5   5   1    5 B     3.28587380000E-01  4.98049030000E-01 -4.98777480000E-01

   6   6   1    5 B     3.28864500000E-01 -3.42218030000E-01  4.98647360000E-01

   7   7   1    1 H    -1.54116810000E-01  1.94597570000E-01  4.95883690000E-01

   8   8   1    1 H     3.95682100000E-02 -4.23090810000E-01  4.95067290000E-01

   9   9   1    1 H    -1.54080420000E-01  4.79957150000E-01  4.94941640000E-01

  10  10   1    1 H     3.96807300000E-02  2.91562430000E-01  4.94972980000E-01

  11  11   1    1 H    -3.67076480000E-01 -1.92254600000E-02 -4.95888220000E-01

  12  12   1    1 H     2.50726730000E-01 -2.12980510000E-01 -4.95071760000E-01

  13  13   1    1 H     3.47652510000E-01 -1.93968300000E-02 -4.94946040000E-01

  14  14   1    1 H    -4.63901640000E-01 -2.13092210000E-01 -4.94977590000E-01

  15  15   1    1 H    -3.66087700000E-01  4.79721720000E-01  4.95883740000E-01

  16  16   1    1 H     2.51895510000E-01  2.91465090000E-01  4.95067240000E-01

  17  17   1    1 H     3.48788740000E-01  1.94707990000E-01  4.94941540000E-01

  18  18   1    1 H    -4.62764580000E-01 -4.23164600000E-01  4.94973080000E-01

  19  19   1    6 C    -1.65577830000E-01  3.30995730000E-01  4.98553140000E-01

  20  20   1    6 C    -1.10685800000E-01  2.78424180000E-01  4.96009330000E-01

  21  21   1    6 C    -3.76146000000E-03  4.92874520000E-01  4.95789580000E-01

  22  22   1    6 C    -1.10773490000E-01  4.39229350000E-01  4.96449060000E-01

  23  23   1    6 C    -3.60377000000E-03  3.32178150000E-01  4.94753150000E-01

  24  24   1    6 C     5.08066700000E-02  4.39565560000E-01  4.96480440000E-01

  25  25   1    6 C     4.96238240000E-01 -7.44565000000E-03 -4.98557630000E-01

  26  26   1    6 C    -4.50916550000E-01 -6.26446600000E-02 -4.96013870000E-01

  27  27   1    6 C     3.34678930000E-01 -1.69588130000E-01 -4.95794040000E-01

  28  28   1    6 C     3.88243860000E-01 -6.24963800000E-02 -4.96453510000E-01

  29  29   1    6 C     4.95477660000E-01 -1.69866670000E-01 -4.94757720000E-01

  30  30   1    6 C     3.87887810000E-01 -2.24099930000E-01 -4.96484950000E-01

  31  31   1    6 C     4.96576730000E-01  3.30926590000E-01  4.98553140000E-01

  32  32   1    6 C    -4.49964700000E-01  4.39264320000E-01  4.96009380000E-01

  33  33   1    6 C     3.35673790000E-01  3.31861260000E-01  4.95789530000E-01

  34  34   1    6 C     3.89061670000E-01  2.78227170000E-01  4.96448990000E-01

  35  35   1    6 C     4.96712840000E-01  4.93026160000E-01  4.94753220000E-01

  36  36   1    6 C     3.88730760000E-01  4.39488160000E-01  4.96480440000E-01

  37  37   1    8 O    -4.96821960000E-01  1.65241650000E-01  4.99338250000E-01

  38  38   1    8 O    -3.38503190000E-01  1.63996710000E-01 -4.95228770000E-01

  39  39   1    8 O    -3.37560660000E-01  3.24831660000E-01  4.96574670000E-01

  40  40   1    8 O     2.22765870000E-01 -3.95477870000E-01  4.99338270000E-01

  41  41   1    8 O     2.22159080000E-01  4.44313990000E-01 -4.95228780000E-01

  42  42   1    8 O     3.82023760000E-01 -3.94856370000E-01  4.96574650000E-01

 NUMBER OF SYMMETRY OPERATORS         :    1
 *******************************************************************************
 * GEOMETRY EDITING - INPUT COORDINATES ARE GIVEN IN ANGSTROM         
 *******************************************************************************

 GCALCO - MAX INDICES DIRECT LATTICE VECTOR     9    11    31
 NO.OF VECTORS CREATED 6999 STARS 3500 RMAX   205.06022 BOHR

 GEOMETRY FOR WAVE FUNCTION - DIMENSIONALITY OF THE SYSTEM    3
 (NON PERIODIC DIRECTION: LATTICE PARAMETER FORMALLY SET TO 500)
 *******************************************************************************
 LATTICE PARAMETERS (ANGSTROMS AND DEGREES) - BOHR = 0.5291772083 ANGSTROM
 PRIMITIVE CELL - CENTRING CODE 1/0 VOLUME=   762.381540 - DENSITY  0.850 g/cm^3
         A              B              C           ALPHA      BETA       GAMMA 
    15.02361100    15.02391600     4.92036600    58.126743  89.999955 119.995964
 *******************************************************************************
 ATOMS IN THE ASYMMETRIC UNIT   42 - ATOMS IN THE UNIT CELL:   42
     ATOM                 X/A                 Y/B                 Z/C    
 *******************************************************************************
      1 T   5 B    -4.440953000000E-01  1.117548000000E-01 -4.987774900000E-01
      2 T   5 B    -2.850396400000E-01  2.708144600000E-01 -4.987774700000E-01
      3 T   5 B    -4.438027300000E-01  2.713909900000E-01  4.986473600000E-01
      4 T   5 B     1.694794100000E-01  4.980698000000E-01 -4.987774800000E-01
      5 T   5 B     3.285873800000E-01  4.980490300000E-01 -4.987774800000E-01
      6 T   5 B     3.288645000000E-01 -3.422180300000E-01  4.986473600000E-01
      7 T   1 H    -1.541168100000E-01  1.945975700000E-01  4.958836900000E-01
      8 T   1 H     3.956821000000E-02 -4.230908100000E-01  4.950672900000E-01
      9 T   1 H    -1.540804200000E-01  4.799571500000E-01  4.949416400000E-01
     10 T   1 H     3.968073000000E-02  2.915624300000E-01  4.949729800000E-01
     11 T   1 H    -3.670764800000E-01 -1.922546000000E-02 -4.958882200000E-01
     12 T   1 H     2.507267300000E-01 -2.129805100000E-01 -4.950717600000E-01
     13 T   1 H     3.476525100000E-01 -1.939683000000E-02 -4.949460400000E-01
     14 T   1 H    -4.639016400000E-01 -2.130922100000E-01 -4.949775900000E-01
     15 T   1 H    -3.660877000000E-01  4.797217200000E-01  4.958837400000E-01
     16 T   1 H     2.518955100000E-01  2.914650900000E-01  4.950672400000E-01
     17 T   1 H     3.487887400000E-01  1.947079900000E-01  4.949415400000E-01
     18 T   1 H    -4.627645800000E-01 -4.231646000000E-01  4.949730800000E-01
     19 T   6 C    -1.655778300000E-01  3.309957300000E-01  4.985531400000E-01
     20 T   6 C    -1.106858000000E-01  2.784241800000E-01  4.960093300000E-01
     21 T   6 C    -3.761460000000E-03  4.928745200000E-01  4.957895800000E-01
     22 T   6 C    -1.107734900000E-01  4.392293500000E-01  4.964490600000E-01
     23 T   6 C    -3.603770000000E-03  3.321781500000E-01  4.947531500000E-01
     24 T   6 C     5.080667000000E-02  4.395655600000E-01  4.964804400000E-01
     25 T   6 C     4.962382400000E-01 -7.445650000000E-03 -4.985576300000E-01
     26 T   6 C    -4.509165500000E-01 -6.264466000000E-02 -4.960138700000E-01
     27 T   6 C     3.346789300000E-01 -1.695881300000E-01 -4.957940400000E-01
     28 T   6 C     3.882438600000E-01 -6.249638000000E-02 -4.964535100000E-01
     29 T   6 C     4.954776600000E-01 -1.698666700000E-01 -4.947577200000E-01
     30 T   6 C     3.878878100000E-01 -2.240999300000E-01 -4.964849500000E-01
     31 T   6 C     4.965767300000E-01  3.309265900000E-01  4.985531400000E-01
     32 T   6 C    -4.499647000000E-01  4.392643200000E-01  4.960093800000E-01
     33 T   6 C     3.356737900000E-01  3.318612600000E-01  4.957895300000E-01
     34 T   6 C     3.890616700000E-01  2.782271700000E-01  4.964489900000E-01
     35 T   6 C     4.967128400000E-01  4.930261600000E-01  4.947532200000E-01
     36 T   6 C     3.887307600000E-01  4.394881600000E-01  4.964804400000E-01
     37 T   8 O    -4.968219600000E-01  1.652416500000E-01  4.993382500000E-01
     38 T   8 O    -3.385031900000E-01  1.639967100000E-01 -4.952287700000E-01
     39 T   8 O    -3.375606600000E-01  3.248316600000E-01  4.965746700000E-01
     40 T   8 O     2.227658700000E-01 -3.954778700000E-01  4.993382700000E-01
     41 T   8 O     2.221590800000E-01  4.443139900000E-01 -4.952287800000E-01
     42 T   8 O     3.820237600000E-01 -3.948563700000E-01  4.965746500000E-01

 T = ATOM BELONGING TO THE ASYMMETRIC UNIT

 ****    1 SYMMOPS - TRANSLATORS IN FRACTIONAL UNITS
 **** MATRICES AND TRANSLATORS IN THE CRYSTALLOGRAPHIC REFERENCE FRAME
   V INV                    ROTATION MATRICES                   TRANSLATORS
   1   1  1.00 -0.00  0.00  0.00  1.00  0.00  0.00 -0.00  1.00  0.00  0.00  0.00

 DIRECT LATTICE VECTORS CARTESIAN COMPONENTS (ANGSTROM)
          X                    Y                    Z
   0.130113578931E+02  -0.751088897922E+01   0.000000000000E+00
   0.000000000000E+00   0.150239160000E+02   0.000000000000E+00
   0.149980881487E+01   0.259815998579E+01   0.390001792060E+01


 CARTESIAN COORDINATES - PRIMITIVE CELL
 *******************************************************************************
 *      ATOM          X(ANGSTROM)         Y(ANGSTROM)         Z(ANGSTROM)
 *******************************************************************************
    1     5 B    -6.526353763087E+00  3.718641505956E+00 -1.945241149392E+00
    2     5 B    -4.456823615914E+00  4.913691124972E+00 -1.945241071392E+00
    3     5 B     6.484948630279E+00 -1.402774876616E+00 -1.955284280541E+00
    4     5 B     1.457086397850E+00  4.914114114213E+00 -1.945241110392E+00
    5     5 B     3.527297139158E+00  3.718759769099E+00 -1.945241110392E+00
    6     5 B     3.527040598989E+00  6.109801946869E+00 -1.955284280541E+00
    7     1 H    -2.761347057705E+00  2.771396970397E+00 -1.966062643067E+00
    8     1 H     1.257342426995E+00 -5.367409199075E+00  1.930771302903E+00
    9     1 H    -1.262477654413E+00 -5.369861601959E+00  1.930281265652E+00
   10     1 H    -2.411437968573E-01  2.770230904323E+00 -1.969614428388E+00
   11     1 H    -4.020092164078E+00  3.777992047223E+00  1.966044975986E+00
   12     1 H     4.019591042616E+00 -3.771097576164E+00  1.969229184618E+00
   13     1 H     5.280915611224E+00 -1.590384761004E+00  1.969719494871E+00
   14     1 H    -5.278553202989E+00  1.594963269613E+00  1.969596449305E+00
   15     1 H    -4.019567280542E+00 -3.778587813114E+00  1.933955472535E+00
   16     1 H     2.520200027898E+00  1.175091726571E+00 -1.969246812699E+00
   17     1 H     3.780723994874E+00 -1.006659698310E+00 -1.969737044951E+00
   18     1 H    -5.278830582101E+00 -1.595796770179E+00  1.930403882215E+00
   19     6 C    -2.906466826104E+00  4.913649575775E+00 -1.955651740229E+00
   20     6 C    -2.196062206959E+00  3.704921856058E+00 -1.965572644816E+00
   21     6 C    -8.051609347272E-01  6.123137957816E+00 -1.966429673754E+00
   22     6 C    -6.967348471295E-01 -6.303109672958E+00  1.936160230666E+00
   23     6 C    -8.046636205511E-01  3.704971990394E+00 -1.970471769327E+00
   24     6 C    -9.411930782456E-02  4.914168419303E+00 -1.963735307373E+00
   25     6 C     7.208801027537E+00 -2.536225647132E+00  1.955634229149E+00
   26     6 C    -5.111153771605E+00  3.755052632613E+00  1.965554938734E+00
   27     6 C     5.110839880815E+00 -3.751606356760E+00  1.966412279674E+00
   28     6 C     5.806803276642E+00 -2.546702551442E+00  1.963840334856E+00
   29     6 C    -5.806753905592E+00  2.550048977022E+00  1.970453946245E+00
   30     6 C     5.802123428675E+00 -4.972028146073E+00  1.963717718292E+00
   31     6 C     5.709063134575E+00 -6.075856501947E-02 -1.955651740229E+00
   32     6 C    -5.110732510558E+00 -3.756099124562E+00  1.934445470786E+00
   33     6 C     3.611352509551E+00  1.154627656399E+00 -1.966429868755E+00
   34     6 C     4.306990387304E+00 -5.044346342850E-02 -1.963857962937E+00
   35     6 C     5.705134956986E+00  2.363716651104E+00 -1.970471496326E+00
   36     6 C     4.302731967851E+00  2.374895244812E+00 -1.963735307373E+00
   37     8 O     5.796132656447E+00 -2.597537051185E+00 -1.952589797159E+00
   38     8 O    -5.147134627656E+00  3.719649100489E+00 -1.931401077797E+00
   39     8 O    -2.147546675695E+00 -3.719951361663E+00  5.836668032518E+00
   40     8 O     2.147589585005E+00  6.108320710029E+00 -1.952589719159E+00
   41     8 O     2.147842809449E+00  3.720040277771E+00 -1.931401116797E+00
   42     8 O     4.215606087451E+00  4.914309416068E+00 -1.963367886685E+00

 *******************************************************************************
 STARTING BASIS SET HANDLING 
 *******************************************************************************

 Loading internal basis set: SOLDEF2MSVP         

 Please cite in your publication:
 L. Dona', J. G. Brandenburg and B. Civalleri, J. Chem. Phys., 151, 121101 (2019
 )                                                                              
                                                                                
                    

 *******************************************************************************
 LOCAL ATOMIC FUNCTIONS BASIS SET
 *******************************************************************************
   ATOM   X(AU)   Y(AU)   Z(AU)  N. TYPE  EXPONENT  S COEF   P COEF   D/F/G COEF
 *******************************************************************************
   1 B  -12.333   7.027  -3.676
                                  1 S  
                                         2.410E+03 1.755E-03 0.000E+00 0.000E+00
                                         3.619E+02 1.344E-02 0.000E+00 0.000E+00
                                         8.231E+01 6.637E-02 0.000E+00 0.000E+00
                                         2.311E+01 2.303E-01 0.000E+00 0.000E+00
                                         7.252E+00 5.150E-01 0.000E+00 0.000E+00
                                  2 S  
                                         2.367E+00 1.000E+00 0.000E+00 0.000E+00
                                  3 S  
                                         5.533E-01 1.000E+00 0.000E+00 0.000E+00
                                  4 S  
                                         1.716E-01 1.000E+00 0.000E+00 0.000E+00
                           5-     7 P  
                                         6.002E+00 0.000E+00-3.555E-02 0.000E+00
                                         1.240E+00 0.000E+00-1.983E-01 0.000E+00
                                         3.367E-01 0.000E+00-5.048E-01 0.000E+00
                           8-    10 P  
                                         1.256E-01 0.000E+00 1.000E+00 0.000E+00
                          11-    15 D  
                                         8.880E-01 0.000E+00 0.000E+00 1.000E+00
   2 B   -8.422   9.286  -3.676
   3 B   12.255  -2.651  -3.695
   4 B    2.753   9.286  -3.676
   5 B    6.666   7.027  -3.676
   6 B    6.665  11.546  -3.695
   7 H   -5.218   5.237  -3.715
                                 91 S  
                                         1.874E+01 1.968E-02 0.000E+00 0.000E+00
                                         2.826E+00 1.380E-01 0.000E+00 0.000E+00
                                         6.401E-01 4.783E-01 0.000E+00 0.000E+00
                                 92 S  
                                         1.756E-01 1.000E+00 0.000E+00 0.000E+00
   8 H    2.376 -10.143   3.649
   9 H   -2.386 -10.148   3.648
  10 H   -0.456   5.235  -3.722
  11 H   -7.597   7.139   3.715
  12 H    7.596  -7.126   3.721
  13 H    9.979  -3.005   3.722
  14 H   -9.975   3.014   3.722
  15 H   -7.596  -7.140   3.655
  16 H    4.762   2.221  -3.721
  17 H    7.145  -1.902  -3.722
  18 H   -9.976  -3.016   3.648
  19 C   -5.492   9.285  -3.696
                                115 S  
                                         3.624E+03 1.634E-03 0.000E+00 0.000E+00
                                         5.440E+02 1.252E-02 0.000E+00 0.000E+00
                                         1.237E+02 6.211E-02 0.000E+00 0.000E+00
                                         3.476E+01 2.182E-01 0.000E+00 0.000E+00
                                         1.093E+01 4.980E-01 0.000E+00 0.000E+00
                                116 S  
                                         3.574E+00 1.000E+00 0.000E+00 0.000E+00
                                117 S  
                                         7.742E-01 1.000E+00 0.000E+00 0.000E+00
                                118 S  
                                         2.330E-01 1.000E+00 0.000E+00 0.000E+00
                         119-   121 P  
                                         9.443E+00 0.000E+00 3.790E-02 0.000E+00
                                         2.002E+00 0.000E+00 2.082E-01 0.000E+00
                                         5.463E-01 0.000E+00 5.047E-01 0.000E+00
                         122-   124 P  
                                         1.820E-01 0.000E+00 1.000E+00 0.000E+00
                         125-   129 D  
                                         8.880E-01 0.000E+00 0.000E+00 1.000E+00
  20 C   -4.150   7.001  -3.714
  21 C   -1.522  11.571  -3.716
  22 C   -1.317 -11.911   3.659
  23 C   -1.521   7.001  -3.724
  24 C   -0.178   9.286  -3.711
  25 C   13.623  -4.793   3.696
  26 C   -9.659   7.096   3.714
  27 C    9.658  -7.090   3.716
  28 C   10.973  -4.813   3.711
  29 C  -10.973   4.819   3.724
  30 C   10.964  -9.396   3.711
  31 C   10.789  -0.115  -3.696
  32 C   -9.658  -7.098   3.656
  33 C    6.824   2.182  -3.716
  34 C    8.139  -0.095  -3.711
  35 C   10.781   4.467  -3.724
  36 C    8.131   4.488  -3.711
  37 O   10.953  -4.909  -3.690
                                385 S  
                                         6.773E+03 1.727E-03 0.000E+00 0.000E+00
                                         1.017E+03 1.325E-02 0.000E+00 0.000E+00
                                         2.313E+02 6.603E-02 0.000E+00 0.000E+00
                                         6.501E+01 2.353E-01 0.000E+00 0.000E+00
                                         2.050E+01 5.498E-01 0.000E+00 0.000E+00
                                386 S  
                                         6.716E+00 1.000E+00 0.000E+00 0.000E+00
                                387 S  
                                         1.147E+00 1.000E+00 0.000E+00 0.000E+00
                                388 S  
                                         3.342E-01 1.000E+00 0.000E+00 0.000E+00
                         389-   391 P  
                                         1.769E+01 0.000E+00 4.359E-02 0.000E+00
                                         3.854E+00 0.000E+00 2.318E-01 0.000E+00
                                         1.047E+00 0.000E+00 5.146E-01 0.000E+00
                         392-   394 P  
                                         2.759E-01 0.000E+00 1.000E+00 0.000E+00
                         395-   399 D  
                                         8.000E-01 0.000E+00 0.000E+00 1.000E+00
  38 O   -9.727   7.029  -3.650
  39 O   -4.058  -7.030  11.030
  40 O    4.058  11.543  -3.690
  41 O    4.059   7.030  -3.650
  42 O    7.966   9.287  -3.710

 *******************************************************************************
 FINISHED BASIS SET HANDLING 
 *******************************************************************************

 INFORMATION **** SET_MPP **** PCRYSTAL CALCULATION
 INFORMATION **** READM2 **** NEW DEFAULT: FOCK/KS MATRIX MIXING SET TO 30 %
 INFORMATION **** READM2 **** NEW DEFAULT: FULL DIRECT SCF MODE
 INFORMATION **** READM2 **** NEW DEFAULT: COULOMB BIPOLAR BUFFER SET TO 32 Mb
 INFORMATION **** READM2 **** NEW DEFAULT: EXCHANGE BIPOLAR BUFFER SET TO 32 Mb

 *******************************************************************************
 NEW DEFAULT: DFT INTEGRATION GRID INCREASED TO XLGRID
 NEW DEFAULT: DIIS ACCELERATOR ACTIVE
 USE KEYWORD NODIIS TO TURN IT OFF
 *******************************************************************************

 WARNING **** RDDFTP **** HSEsol-HJS ACTIVE
 RANGE SEPARATION - OMEGA:   0.110000000000000     
 WARNING **** RDDFTP **** HSEsol-3c has to be combined with sol-def2-mSVP basis set
 *******************************************************************************
 N. OF ATOMS PER CELL        42  COULOMB OVERLAP TOL         (T1) 10**   -6
 NUMBER OF SHELLS           234  COULOMB PENETRATION TOL     (T2) 10**   -6
 NUMBER OF AO               474  EXCHANGE OVERLAP TOL        (T3) 10**   -6
 N. OF ELECTRONS PER CELL   198  EXCHANGE PSEUDO OVP (F(G))  (T4) 10**   -6
 CORE ELECTRONS PER CELL     60  EXCHANGE PSEUDO OVP (P(G))  (T5) 10**  -12
 N. OF SYMMETRY OPERATORS     1  POLE ORDER IN MONO ZONE                  4
 *******************************************************************************
 TYPE OF CALCULATION :  RESTRICTED CLOSED SHELL
 KOHN-SHAM HAMILTONIAN

 (EXCHANGE)[CORRELATION] FUNCTIONAL:(HSEsol GGA)[PBEsol]

 RANGE-SEPARATED HYBRID FUNCTIONAL 
 OMEGA (SHORT-RANGE)[LONG-RANGE]:(    0.1100)[    0.0000]

 HYBRID EXCHANGE - PERCENTAGE OF FOCK EXCHANGE    25.0000

 CAPPA:IS1  2;IS2  2;IS3  8; K PTS MONK NET  20; SYMMOPS:K SPACE   2;G SPACE   1

 *******************************************************************************
 MAX NUMBER OF SCF CYCLES      50  CONVERGENCE ON DELTAP        10**-16
 WEIGHT OF F(I) IN F(I+1)      30% CONVERGENCE ON ENERGY        10**- 6
 SHRINK. FACT.(MONKH.)    2  2  8  NUMBER OF K POINTS IN THE IBZ     20
 SHRINKING FACTOR(GILAT NET)    8  NUMBER OF K POINTS(GILAT NET)   1028
 *******************************************************************************
 *** K POINTS COORDINATES (OBLIQUE COORDINATES IN UNITS OF IS =  2)
   1-R(  0  0  0)   2-R(  1  0  0)   3-R(  0  1  0)   4-R(  1  1  0)
   5-C(  0  0  1)   6-C(  1  0  1)   7-C(  0  1  1)   8-C(  1  1  1)
   9-C(  0  0  2)  10-C(  1  0  2)  11-C(  0  1  2)  12-C(  1  1  2)
  13-C(  0  0  3)  14-C(  1  0  3)  15-C(  0  1  3)  16-C(  1  1  3)
  17-R(  0  0  4)  18-R(  1  0  4)  19-R(  0  1  4)  20-R(  1  1  4)

 DIRECT LATTICE VECTORS COMPON. (A.U.)     RECIP. LATTICE VECTORS COMPON. (A.U.) 
        X            Y            Z              X            Y            Z
   24.5879030  -14.1935232    0.0000000      0.2555397    0.0000000   -0.0982715
    0.0000000   28.3910867    0.0000000      0.1277517    0.2213084   -0.1965626
    2.8342279    4.9098108    7.3699658      0.0000000    0.0000000    0.8525393

 DISK SPACE FOR EIGENVECTORS (FTN 10)     7189632 REALS

 SYMMETRY ADAPTION OF THE BLOCH FUNCTIONS DISABLED
 TTTTTTTTTTTTTTTTTTTTTTTTTTTTTT gordsh1     TELAPSE        0.04 TCPU        0.04

 MATRIX SIZE: P(G)  327432, F(G)   68442, P(G) IRR  165021, F(G) IRR   69102
 MAX G-VECTOR INDEX FOR 1- AND 2-ELECTRON INTEGRALS  75

 TTTTTTTTTTTTTTTTTTTTTTTTTTTTTT INPUT       TELAPSE       10.23 TCPU        0.34

 NEIGHBORS OF THE NON-EQUIVALENT ATOMS

 N = NUMBER OF NEIGHBORS AT DISTANCE R
    ATOM  N     R/ANG      R/AU   NEIGHBORS (ATOM LABELS AND CELL INDICES)
   1 B    1     1.3791     2.6061   37 O   -1 0 0
   1 B    1     1.3793     2.6065   38 O    0 0 0
   1 B    1     1.5503     2.9297   25 C   -1 0-1
   1 B    1     2.3895     4.5155    3 B   -1 0 0
   1 B    1     2.3898     4.5160    2 B    0 0 0
   1 B    1     2.5632     4.8437   26 C    0 0-1

   2 B    1     1.3793     2.6065   39 O    0 1-2
   2 B    1     1.3793     2.6065   38 O    0 0 0
   2 B    1     1.5504     2.9298   19 C    0 0 0
   2 B    1     2.3895     4.5156    3 B   -1 0 0
   2 B    1     2.3898     4.5160    1 B    0 0 0
   2 B    1     2.5634     4.8440   22 C    0 1-1

   3 B    1     1.3791     2.6061   37 O    0 0 0
   3 B    1     1.3793     2.6064   39 O    1 1-2
   3 B    1     1.5502     2.9294   31 C    0 0 0
   3 B    1     2.3895     4.5155    1 B    1 0 0
   3 B    1     2.3895     4.5156    2 B    1 0 0
   3 B    1     2.5629     4.8433   32 C    1 1-1

   4 B    1     1.3795     2.6068   40 O    0 0 0
   4 B    1     1.3795     2.6070   41 O    0 0 0
   4 B    1     1.5513     2.9316   24 C    0 0 0
   4 B    1     2.3905     4.5174    6 B    0 0 0
   4 B    1     2.3905     4.5175    5 B    0 0 0
   4 B    1     2.5648     4.8468   23 C    0 0 0

   5 B    1     1.3795     2.6069   41 O    0 0 0
   5 B    1     1.3797     2.6072   42 O    0 0 0
   5 B    1     1.5516     2.9322   36 C    0 0 0
   5 B    1     2.3905     4.5175    4 B    0 0 0
   5 B    1     2.3911     4.5185    6 B    0 0 0
   5 B    1     2.5651     4.8473   35 C    0 0 0

   6 B    1     1.3795     2.6068   40 O    0 0 0
   6 B    1     1.3796     2.6071   42 O    0 0 0
   6 B    1     1.5516     2.9322   30 C    0 1-1
   6 B    1     2.3905     4.5174    4 B    0 0 0
   6 B    1     2.3911     4.5185    5 B    0 0 0
   6 B    1     2.5651     4.8473   29 C    1 1-1

   7 H    1     1.0913     2.0623   20 C    0 0 0
   7 H    1     2.1472     4.0576   19 C    0 0 0
   7 H    1     2.1680     4.0969   23 C    0 0 0
   7 H    1     2.5202     4.7625   10 H    0 0 0
   7 H    1     2.5676     4.8520   38 O    0 0 0
   7 H    1     2.7321     5.1630    2 B    0 0 0

   8 H    1     1.0914     2.0625   21 C    0-1 1
   8 H    1     2.1493     4.0616   24 C    0-1 1
   8 H    1     2.1666     4.0942   22 C    0 0 0
   8 H    1     2.5198     4.7618    9 H    0 0 0
   8 H    1     2.5720     4.8604   40 O    0-1 1
   8 H    1     2.7362     5.1707    4 B    0-1 1

   9 H    1     1.0914     2.0624   22 C    0 0 0
   9 H    1     2.1471     4.0575   19 C    0-1 1
   9 H    1     2.1680     4.0970   21 C    0-1 1
   9 H    1     2.5198     4.7618    8 H    0 0 0
   9 H    1     2.5665     4.8500   39 O    0 0-1
   9 H    1     2.7315     5.1618    2 B    0-1 1

  10 H    1     1.0915     2.0626   23 C    0 0 0
  10 H    1     2.1490     4.0610   24 C    0 0 0
  10 H    1     2.1669     4.0948   20 C    0 0 0
  10 H    1     2.5202     4.7625    7 H    0 0 0
  10 H    1     2.5712     4.8588   41 O    0 0 0
  10 H    1     2.7351     5.1686    4 B    0 0 0

  11 H    1     1.0913     2.0623   26 C    0 0 0
  11 H    1     2.1469     4.0571   25 C   -1 0 0
  11 H    1     2.1680     4.0968   29 C    0 0 0
  11 H    1     2.5198     4.7617   14 H    0 0 0
  11 H    1     2.5670     4.8510   38 O    0 0 1
  11 H    1     2.7310     5.1609    1 B    0 0 1

  12 H    1     1.0914     2.0625   27 C    0 0 0
  12 H    1     2.1493     4.0617   30 C    0 0 0
  12 H    1     2.1664     4.0939   28 C    0 0 0
  12 H    1     2.5192     4.7606   13 H    0 0 0
  12 H    1     2.5735     4.8632   40 O    0-1 1
  12 H    1     2.7371     5.1723    6 B    0-1 1

  13 H    1     1.0914     2.0624   28 C    0 0 0
  13 H    1     2.1475     4.0581   25 C    0 0 0
  13 H    1     2.1679     4.0967   27 C    0 0 0
  13 H    1     2.5192     4.7606   12 H    0 0 0
  13 H    1     2.5675     4.8519   37 O    0 0 1
  13 H    1     2.7328     5.1643    1 B    1 0 1

  14 H    1     1.0914     2.0625   29 C    0 0 0
  14 H    1     2.1491     4.0612   30 C   -1 0 0
  14 H    1     2.1666     4.0942   26 C    0 0 0
  14 H    1     2.5198     4.7617   11 H    0 0 0
  14 H    1     2.5723     4.8609   42 O   -1-1 1
  14 H    1     2.7355     5.1693    6 B   -1-1 1

  15 H    1     1.0914     2.0624   32 C    0 0 0
  15 H    1     2.1475     4.0582   31 C   -1-1 1
  15 H    1     2.1678     4.0966   35 C   -1-1 1
  15 H    1     2.5200     4.7621   18 H    0 0 0
  15 H    1     2.5667     4.8503   39 O    0 0-1
  15 H    1     2.7315     5.1618    3 B   -1-1 1

  16 H    1     1.0913     2.0623   33 C    0 0 0
  16 H    1     2.1487     4.0605   36 C    0 0 0
  16 H    1     2.1667     4.0945   34 C    0 0 0
  16 H    1     2.5197     4.7616   17 H    0 0 0
  16 H    1     2.5723     4.8610   41 O    0 0 0
  16 H    1     2.7359     5.1701    5 B    0 0 0

  17 H    1     1.0915     2.0626   34 C    0 0 0
  17 H    1     2.1479     4.0589   31 C    0 0 0
  17 H    1     2.1679     4.0968   33 C    0 0 0
  17 H    1     2.5197     4.7616   16 H    0 0 0
  17 H    1     2.5677     4.8522   37 O    0 0 0
  17 H    1     2.7331     5.1648    3 B    0 0 0

  18 H    1     1.0914     2.0624   35 C   -1-1 1
  18 H    1     2.1486     4.0602   36 C   -1-1 1
  18 H    1     2.1668     4.0947   32 C    0 0 0
  18 H    1     2.5200     4.7621   15 H    0 0 0
  18 H    1     2.5717     4.8598   42 O   -1-1 1
  18 H    1     2.7349     5.1682    5 B   -1-1 1

  19 C    1     1.4020     2.6495   22 C    0 1-1
  19 C    1     1.4021     2.6495   20 C    0 0 0
  19 C    1     1.5504     2.9298    2 B    0 0 0
  19 C    1     2.1471     4.0575    9 H    0 1-1
  19 C    1     2.1472     4.0576    7 H    0 0 0
  19 C    1     2.4246     4.5817   21 C    0 0 0

  20 C    1     1.0913     2.0623    7 H    0 0 0
  20 C    1     1.3914     2.6294   23 C    0 0 0
  20 C    1     1.4021     2.6495   19 C    0 0 0
  20 C    1     2.1669     4.0948   10 H    0 0 0
  20 C    1     2.4177     4.5688   22 C    0 1-1
  20 C    1     2.4250     4.5825   24 C    0 0 0

  21 C    1     1.0914     2.0625    8 H    0 1-1
  21 C    1     1.3914     2.6293   22 C    0 1-1
  21 C    1     1.4026     2.6505   24 C    0 0 0
  21 C    1     2.1680     4.0970    9 H    0 1-1
  21 C    1     2.4182     4.5697   23 C    0 0 0
  21 C    1     2.4246     4.5817   19 C    0 0 0

  22 C    1     1.0914     2.0624    9 H    0 0 0
  22 C    1     1.3914     2.6293   21 C    0-1 1
  22 C    1     1.4020     2.6495   19 C    0-1 1
  22 C    1     2.1666     4.0942    8 H    0 0 0
  22 C    1     2.4177     4.5688   20 C    0-1 1
  22 C    1     2.4250     4.5826   24 C    0-1 1

  23 C    1     1.0915     2.0626   10 H    0 0 0
  23 C    1     1.3914     2.6294   20 C    0 0 0
  23 C    1     1.4025     2.6504   24 C    0 0 0
  23 C    1     2.1680     4.0969    7 H    0 0 0
  23 C    1     2.4182     4.5697   21 C    0 0 0
  23 C    1     2.4246     4.5818   19 C    0 0 0

  24 C    1     1.4025     2.6504   23 C    0 0 0
  24 C    1     1.4026     2.6505   21 C    0 0 0
  24 C    1     1.5513     2.9316    4 B    0 0 0
  24 C    1     2.1490     4.0610   10 H    0 0 0
  24 C    1     2.1493     4.0616    8 H    0 1-1
  24 C    1     2.4250     4.5825   20 C    0 0 0

  25 C    1     1.4020     2.6494   26 C    1 0 0
  25 C    1     1.4021     2.6495   28 C    0 0 0
  25 C    1     1.5503     2.9297    1 B    1 0 1
  25 C    1     2.1469     4.0571   11 H    1 0 0
  25 C    1     2.1475     4.0581   13 H    0 0 0
  25 C    1     2.4246     4.5818   27 C    0 0 0

  26 C    1     1.0913     2.0623   11 H    0 0 0
  26 C    1     1.3914     2.6293   29 C    0 0 0
  26 C    1     1.4020     2.6494   25 C   -1 0 0
  26 C    1     2.1666     4.0942   14 H    0 0 0
  26 C    1     2.4175     4.5684   28 C   -1 0 0
  26 C    1     2.4251     4.5828   30 C   -1 0 0

  27 C    1     1.0914     2.0625   12 H    0 0 0
  27 C    1     1.3915     2.6295   28 C    0 0 0
  27 C    1     1.4026     2.6505   30 C    0 0 0
  27 C    1     2.1679     4.0967   13 H    0 0 0
  27 C    1     2.4179     4.5691   29 C    1 0 0
  27 C    1     2.4246     4.5818   25 C    0 0 0

  28 C    1     1.0914     2.0624   13 H    0 0 0
  28 C    1     1.3915     2.6295   27 C    0 0 0
  28 C    1     1.4021     2.6495   25 C    0 0 0
  28 C    1     2.1664     4.0939   12 H    0 0 0
  28 C    1     2.4175     4.5684   26 C    1 0 0
  28 C    1     2.4253     4.5832   30 C    0 0 0

  29 C    1     1.0914     2.0625   14 H    0 0 0
  29 C    1     1.3914     2.6293   26 C    0 0 0
  29 C    1     1.4025     2.6504   30 C   -1 0 0
  29 C    1     2.1680     4.0968   11 H    0 0 0
  29 C    1     2.4179     4.5691   27 C   -1 0 0
  29 C    1     2.4247     4.5819   25 C   -1 0 0

  30 C    1     1.4025     2.6504   29 C    1 0 0
  30 C    1     1.4026     2.6505   27 C    0 0 0
  30 C    1     1.5516     2.9322    6 B    0-1 1
  30 C    1     2.1491     4.0612   14 H    1 0 0
  30 C    1     2.1493     4.0617   12 H    0 0 0
  30 C    1     2.4251     4.5828   26 C    1 0 0

  31 C    1     1.4021     2.6496   32 C    1 1-1
  31 C    1     1.4021     2.6497   34 C    0 0 0
  31 C    1     1.5502     2.9294    3 B    0 0 0
  31 C    1     2.1475     4.0582   15 H    1 1-1
  31 C    1     2.1479     4.0589   17 H    0 0 0
  31 C    1     2.4244     4.5814   33 C    0 0 0

  32 C    1     1.0914     2.0624   15 H    0 0 0
  32 C    1     1.3914     2.6293   35 C   -1-1 1
  32 C    1     1.4021     2.6496   31 C   -1-1 1
  32 C    1     2.1668     4.0947   18 H    0 0 0
  32 C    1     2.4179     4.5692   34 C   -1-1 1
  32 C    1     2.4251     4.5827   36 C   -1-1 1

  33 C    1     1.0913     2.0623   16 H    0 0 0
  33 C    1     1.3914     2.6294   34 C    0 0 0
  33 C    1     1.4025     2.6504   36 C    0 0 0
  33 C    1     2.1679     4.0968   17 H    0 0 0
  33 C    1     2.4178     4.5690   35 C    0 0 0
  33 C    1     2.4244     4.5814   31 C    0 0 0

  34 C    1     1.0915     2.0626   17 H    0 0 0
  34 C    1     1.3914     2.6294   33 C    0 0 0
  34 C    1     1.4021     2.6497   31 C    0 0 0
  34 C    1     2.1667     4.0945   16 H    0 0 0
  34 C    1     2.4179     4.5692   32 C    1 1-1
  34 C    1     2.4253     4.5832   36 C    0 0 0

  35 C    1     1.0914     2.0624   18 H    1 1-1
  35 C    1     1.3914     2.6293   32 C    1 1-1
  35 C    1     1.4025     2.6503   36 C    0 0 0
  35 C    1     2.1678     4.0966   15 H    1 1-1
  35 C    1     2.4178     4.5690   33 C    0 0 0
  35 C    1     2.4245     4.5817   31 C    0 0 0

  36 C    1     1.4025     2.6503   35 C    0 0 0
  36 C    1     1.4025     2.6504   33 C    0 0 0
  36 C    1     1.5516     2.9322    5 B    0 0 0
  36 C    1     2.1486     4.0602   18 H    1 1-1
  36 C    1     2.1487     4.0605   16 H    0 0 0
  36 C    1     2.4251     4.5827   32 C    1 1-1

  37 O    1     1.3791     2.6061    1 B    1 0 0
  37 O    1     1.3791     2.6061    3 B    0 0 0
  37 O    1     2.3880     4.5126   38 O    1 0 0
  37 O    1     2.3882     4.5130   39 O    1 1-2
  37 O    1     2.5383     4.7966   31 C    0 0 0
  37 O    1     2.5384     4.7968   25 C    0 0-1

  38 O    1     1.3793     2.6065    1 B    0 0 0
  38 O    1     1.3793     2.6065    2 B    0 0 0
  38 O    1     2.3880     4.5126   37 O   -1 0 0
  38 O    1     2.3882     4.5131   39 O    0 1-2
  38 O    1     2.5391     4.7981   19 C    0 0 0
  38 O    1     2.5395     4.7990   25 C   -1 0-1

  39 O    1     1.3793     2.6064    3 B   -1-1 2
  39 O    1     1.3793     2.6065    2 B    0-1 2
  39 O    1     2.3882     4.5130   37 O   -1-1 2
  39 O    1     2.3882     4.5131   38 O    0-1 2
  39 O    1     2.5390     4.7980   19 C    0-1 2
  39 O    1     2.5391     4.7982   31 C   -1-1 2

  40 O    1     1.3795     2.6068    6 B    0 0 0
  40 O    1     1.3795     2.6068    4 B    0 0 0
  40 O    1     2.3880     4.5126   42 O    0 0 0
  40 O    1     2.3884     4.5134   41 O    0 0 0
  40 O    1     2.5400     4.7998   24 C    0 0 0
  40 O    1     2.5403     4.8005   30 C    0 1-1

  41 O    1     1.3795     2.6069    5 B    0 0 0
  41 O    1     1.3795     2.6070    4 B    0 0 0
  41 O    1     2.3881     4.5128   42 O    0 0 0
  41 O    1     2.3884     4.5134   40 O    0 0 0
  41 O    1     2.5404     4.8006   24 C    0 0 0
  41 O    1     2.5405     4.8008   36 C    0 0 0

  42 O    1     1.3796     2.6071    6 B    0 0 0
  42 O    1     1.3797     2.6072    5 B    0 0 0
  42 O    1     2.3880     4.5126   40 O    0 0 0
  42 O    1     2.3881     4.5128   41 O    0 0 0
  42 O    1     2.5409     4.8016   36 C    0 0 0
  42 O    1     2.5410     4.8019   30 C    0 1-1


 SYMMETRY ALLOWED INTERNAL DEGREE(S) OF FREEDOM: 123
 TTTTTTTTTTTTTTTTTTTTTTTTTTTTTT SYMM        TELAPSE       10.23 TCPU        0.34
 TTTTTTTTTTTTTTTTTTTTTTTTTTTTTT INT_SCREEN  TELAPSE       10.26 TCPU        0.37

 DFT PARAMETERS

     ATOM       ELECTRONS   NET CHARGE   R(ANGSTROM)
   1   5  B       5.0000      0.0000     0.89000000
   7   1  H       1.0000      0.0000     1.11000000
  19   6  C       6.0000      0.0000     0.77000000
  37   8  O       8.0000      0.0000     0.74000000

 SIZE OF GRID=    1305469
 TTTTTTTTTTTTTTTTTTTTTTTTTTTTTT MAKE_GRID2  TELAPSE       19.34 TCPU        9.44
 BECKE WEIGHT FUNCTION
 RADSAFE =     2.00
 TOLERANCES - DENSITY:10**- 6; POTENTIAL:10**- 9; GRID WGT:10**-14

 RADIAL INTEGRATION  - INTERVALS (POINTS,UPPER LIMIT):            1( 75,  4.0*R)

 ANGULAR INTEGRATION - INTERVALS (ACCURACY LEVEL [N. POINTS] UPPER LIMIT):
  1(  4[  86]   0.2)  2(  8[ 194]   0.5)  3( 12[ 350]   0.9)  4( 16[ 974]   3.5)
  5( 12[ 350]9999.0)
 TTTTTTTTTTTTTTTTTTTTTTTTTTTTTT INT_CALC    TELAPSE       19.43 TCPU        9.53
 EEEEEEEEEE INT_CALC TERMINATION  DATE 19 02 2026 TIME 19:00:58.8

 *******************************************************************************
 cof-1_z39_L030_incl                                                             
 CRYSTAL - SCF - TYPE OF CALCULATION :  RESTRICTED CLOSED SHELL
 *******************************************************************************

 CAPPA:IS1  2;IS2  2;IS3  8; K PTS MONK NET  20; SYMMOPS:K SPACE   2;G SPACE   1

 TTTTTTTTTTTTTTTTTTTTTTTTTTTTTT SDIK        TELAPSE       20.03 TCPU       17.52

 AAAAAAAAAAAAAAAAAAAAAAAAAAAAAAAAAAAAAAAAAAAAAAAAAAAAAAAAAAAAAAAAAAAAAAAAAAAAAAA
         ATOMIC WAVEFUNCTION(S)


 NUCLEAR CHARGE  5.0  SYMMETRY SPECIES            S    P
 N. ELECTRONS    5.0  NUMBER OF PRIMITIVE GTOS    8    4
                      NUMBER OF CONTRACTED GTOS   4    2
                      NUMBER OF CLOSED SHELLS     2    0
                      OPEN SHELL OCCUPATION       0    1

  ZNUC  SCFIT    TOTAL HF ENERGY   KINETIC ENERGY   VIRIAL THEOREM ACCURACY
   5.0    11    -2.451164084E+01  2.462155050E+01 -1.995536038E+00  1.5E-06

 NUCLEAR CHARGE  1.0  SYMMETRY SPECIES            S
 N. ELECTRONS    1.0  NUMBER OF PRIMITIVE GTOS    4
                      NUMBER OF CONTRACTED GTOS   2
                      NUMBER OF CLOSED SHELLS     0
                      OPEN SHELL OCCUPATION       1

  ZNUC  SCFIT    TOTAL HF ENERGY   KINETIC ENERGY   VIRIAL THEOREM ACCURACY
   1.0     1    -4.977266687E-01  5.190767460E-01 -1.958869132E+00  0.0E+00

 NUCLEAR CHARGE  6.0  SYMMETRY SPECIES            S    P
 N. ELECTRONS    6.0  NUMBER OF PRIMITIVE GTOS    8    4
                      NUMBER OF CONTRACTED GTOS   4    2
                      NUMBER OF CLOSED SHELLS     2    0
                      OPEN SHELL OCCUPATION       0    2

  ZNUC  SCFIT    TOTAL HF ENERGY   KINETIC ENERGY   VIRIAL THEOREM ACCURACY
   6.0     9    -3.766704647E+01  3.775180683E+01 -1.997754800E+00  1.1E-06

 NUCLEAR CHARGE  8.0  SYMMETRY SPECIES            S    P
 N. ELECTRONS    8.0  NUMBER OF PRIMITIVE GTOS    8    4
                      NUMBER OF CONTRACTED GTOS   4    2
                      NUMBER OF CLOSED SHELLS     2    0
                      OPEN SHELL OCCUPATION       0    4

  ZNUC  SCFIT    TOTAL HF ENERGY   KINETIC ENERGY   VIRIAL THEOREM ACCURACY
   8.0    12    -7.477373220E+01  7.477365593E+01 -2.000001020E+00  3.8E-06

 AAAAAAAAAAAAAAAAAAAAAAAAAAAAAAAAAAAAAAAAAAAAAAAAAAAAAAAAAAAAAAAAAAAAAAAAAAAAAAA

 CHARGE NORMALIZATION FACTOR   1.00000000
 TOTAL ATOMIC CHARGES:
   5.0000000   5.0000000   5.0000000   5.0000000   5.0000000   5.0000000
   1.0000000   1.0000000   1.0000000   1.0000000   1.0000000   1.0000000
   1.0000000   1.0000000   1.0000000   1.0000000   1.0000000   1.0000000
   6.0000000   6.0000000   6.0000000   6.0000000   6.0000000   6.0000000
   6.0000000   6.0000000   6.0000000   6.0000000   6.0000000   6.0000000
   6.0000000   6.0000000   6.0000000   6.0000000   6.0000000   6.0000000
   8.0000000   8.0000000   8.0000000   8.0000000   8.0000000   8.0000000
 TTTTTTTTTTTTTTTTTTTTTTTTTTTTTT MOQGAD      TELAPSE       20.08 TCPU       19.03
 TTTTTTTTTTTTTTTTTTTTTTTTTTTTTT SHELLXN     TELAPSE       27.65 TCPU      261.11
 TTTTTTTTTTTTTTTTTTTTTTTTTTTTTT MONMO3      TELAPSE       27.81 TCPU      265.93
 NUMERICALLY INTEGRATED DENSITY    197.9999881548
 TTTTTTTTTTTTTTTTTTTTTTTTTTTTTT NUMDFT      TELAPSE       28.38 TCPU      284.39
 CYC   0 ETOT(AU) -1.295957903290E+03 DETOT -1.30E+03 tst  0.00E+00 PX  1.00E+00
 TTTTTTTTTTTTTTTTTTTTTTTTTTTTTT DIIS        TELAPSE       28.42 TCPU      285.48
 TTTTTTTTTTTTTTTTTTTTTTTTTTTTTT FDIK        TELAPSE       28.91 TCPU      301.22
 INSULATING STATE
 TOP OF VALENCE BANDS -    BAND     99; K   17; EIG -3.1163625E-01 AU
 TOP OF VALENCE BANDS -    BAND     99; K    1; EIG -3.1361486E-01 AU
 BOTTOM OF VIRTUAL BANDS - BAND    100; K    1; EIG -1.5950341E-01 AU
 INDIRECT ENERGY BAND GAP:   4.1397 eV
 TTTTTTTTTTTTTTTTTTTTTTTTTTTTTT PDIG        TELAPSE       29.21 TCPU      307.38
 CHARGE NORMALIZATION FACTOR   1.00000000
 TOTAL ATOMIC CHARGES:
   4.1516513   4.1621247   4.1625064   4.1619483   4.1617198   4.1513073
   0.7853026   0.7854297   0.7849913   0.7850698   0.7857151   0.7859111
   0.7857168   0.7858811   0.7849711   0.7851238   0.7852546   0.7854221
   6.0438121   6.2662718   6.2662412   6.2650379   6.2650145   6.0431853
   6.0475145   6.2655085   6.2656475   6.2653975   6.2656648   6.0463880
   6.0442261   6.2647823   6.2653793   6.2658866   6.2665077   6.0427299
   8.6944672   8.6946322   8.6944857   8.6950462   8.6948916   8.6952346
 TTTTTTTTTTTTTTTTTTTTTTTTTTTTTT MOQGAD      TELAPSE       29.26 TCPU      307.42
 TTTTTTTTTTTTTTTTTTTTTTTTTTTTTT SHELLXN     TELAPSE       37.19 TCPU      560.26
 TTTTTTTTTTTTTTTTTTTTTTTTTTTTTT MONMO3      TELAPSE       37.34 TCPU      564.93
 NUMERICALLY INTEGRATED DENSITY    197.9999936137
 TTTTTTTTTTTTTTTTTTTTTTTTTTTTTT NUMDFT      TELAPSE       37.92 TCPU      583.62
 CYC   1 ETOT(AU) -1.288820753154E+03 DETOT  7.14E+00 tst  0.00E+00 PX  1.00E+00
 TTTTTTTTTTTTTTTTTTTTTTTTTTTTTT DIIS        TELAPSE       37.96 TCPU      585.04
 DIIS TEST: 0.10966E+01 AT SCF   CYCLE   1 - MIX   30 %
 TTTTTTTTTTTTTTTTTTTTTTTTTTTTTT FDIK        TELAPSE       38.46 TCPU      600.98
 INSULATING STATE
 TOP OF VALENCE BANDS -    BAND     99; K   17; EIG -2.2122861E-01 AU
 TOP OF VALENCE BANDS -    BAND     99; K    1; EIG -2.2703540E-01 AU
 BOTTOM OF VIRTUAL BANDS - BAND    100; K    1; EIG -8.1740622E-02 AU
 INDIRECT ENERGY BAND GAP:   3.7957 eV
 TTTTTTTTTTTTTTTTTTTTTTTTTTTTTT PDIG        TELAPSE       38.77 TCPU      607.15
 CHARGE NORMALIZATION FACTOR   1.00000000
 TOTAL ATOMIC CHARGES:
   4.6810664   4.7023057   4.7019247   4.7020207   4.7022719   4.6800297
   0.9087433   0.9088690   0.9162839   0.9165327   0.9067718   0.9066067
   0.9066981   0.9065781   0.9163077   0.9165569   0.9086461   0.9086877
   5.8673287   6.1236464   6.1240007   6.1437555   6.1448231   5.8697262
   5.8846249   6.1386159   6.1403077   6.1397106   6.1392792   5.8871700
   5.8670236   6.1435302   6.1451398   6.1239779   6.1239275   5.8700738
   8.3320481   8.3322849   8.3491368   8.3318315   8.3491896   8.3319466
 TTTTTTTTTTTTTTTTTTTTTTTTTTTTTT MOQGAD      TELAPSE       38.82 TCPU      607.19
 TTTTTTTTTTTTTTTTTTTTTTTTTTTTTT SHELLXN     TELAPSE       46.82 TCPU      862.23
 TTTTTTTTTTTTTTTTTTTTTTTTTTTTTT MONMO3      TELAPSE       46.97 TCPU      867.03
 NUMERICALLY INTEGRATED DENSITY    197.9999938376
 TTTTTTTTTTTTTTTTTTTTTTTTTTTTTT NUMDFT      TELAPSE       47.56 TCPU      885.83
 CYC   2 ETOT(AU) -1.289015357692E+03 DETOT -1.95E-01 tst  3.93E-03 PX  1.59E-01
 TTTTTTTTTTTTTTTTTTTTTTTTTTTTTT DIIS        TELAPSE       47.61 TCPU      887.41
 DIIS TEST: 0.45394E+00 AT SCF   CYCLE   2 - DIIS ACTIVE - HISTORY:     2 CYCLES
 TTTTTTTTTTTTTTTTTTTTTTTTTTTTTT FDIK        TELAPSE       48.10 TCPU      903.29
 INSULATING STATE
 TOP OF VALENCE BANDS -    BAND     99; K   17; EIG -2.3430616E-01 AU
 TOP OF VALENCE BANDS -    BAND     99; K    1; EIG -2.3794135E-01 AU
 BOTTOM OF VIRTUAL BANDS - BAND    100; K    1; EIG -7.7966115E-02 AU
 INDIRECT ENERGY BAND GAP:   4.2542 eV
 TTTTTTTTTTTTTTTTTTTTTTTTTTTTTT PDIG        TELAPSE       48.41 TCPU      909.44
 CHARGE NORMALIZATION FACTOR   1.00000000
 TOTAL ATOMIC CHARGES:
   4.4799363   4.4975815   4.4974894   4.4969465   4.4968927   4.4790390
   0.8868322   0.8870465   0.8927532   0.8929631   0.8864860   0.8866947
   0.8866083   0.8865018   0.8927234   0.8930522   0.8867786   0.8868953
   5.8905860   6.1620802   6.1620181   6.1589241   6.1578343   5.8900103
   5.9062216   6.1607794   6.1603824   6.1606155   6.1605870   5.9061479
   5.8911194   6.1589612   6.1578716   6.1619102   6.1622235   5.8896328
   8.5155571   8.5158484   8.5126453   8.5160668   8.5123791   8.5163771
 TTTTTTTTTTTTTTTTTTTTTTTTTTTTTT MOQGAD      TELAPSE       48.45 TCPU      909.49
 TTTTTTTTTTTTTTTTTTTTTTTTTTTTTT SHELLXN     TELAPSE       56.42 TCPU     1163.43
 TTTTTTTTTTTTTTTTTTTTTTTTTTTTTT MONMO3      TELAPSE       56.57 TCPU     1168.29
 NUMERICALLY INTEGRATED DENSITY    197.9999938837
 TTTTTTTTTTTTTTTTTTTTTTTTTTTTTT NUMDFT      TELAPSE       57.16 TCPU     1187.16
 CYC   3 ETOT(AU) -1.289109394967E+03 DETOT -9.40E-02 tst  6.87E-04 PX  6.52E-02
 TTTTTTTTTTTTTTTTTTTTTTTTTTTTTT DIIS        TELAPSE       57.21 TCPU     1188.94
 DIIS TEST: 0.13644E-01 AT SCF   CYCLE   3 - DIIS ACTIVE - HISTORY:     3 CYCLES
 TTTTTTTTTTTTTTTTTTTTTTTTTTTTTT FDIK        TELAPSE       57.72 TCPU     1205.06
 INSULATING STATE
 TOP OF VALENCE BANDS -    BAND     99; K   17; EIG -2.4436740E-01 AU
 TOP OF VALENCE BANDS -    BAND     99; K    1; EIG -2.4981081E-01 AU
 BOTTOM OF VIRTUAL BANDS - BAND    100; K    1; EIG -8.6462646E-02 AU
 INDIRECT ENERGY BAND GAP:   4.2968 eV
 TTTTTTTTTTTTTTTTTTTTTTTTTTTTTT PDIG        TELAPSE       58.02 TCPU     1211.22
 CHARGE NORMALIZATION FACTOR   1.00000000
 TOTAL ATOMIC CHARGES:
   4.4867931   4.5016509   4.5014417   4.5013475   4.5014002   4.4862287
   0.8703908   0.8706144   0.8750048   0.8750975   0.8678381   0.8677607
   0.8677718   0.8677454   0.8750790   0.8750997   0.8703451   0.8704517
   5.9374582   6.1602551   6.1603057   6.1724090   6.1740676   5.9401030
   5.9541866   6.1693791   6.1710994   6.1703905   6.1701057   5.9561971
   5.9373519   6.1719636   6.1745794   6.1603544   6.1603166   5.9402827
   8.4769747   8.4770884   8.4894046   8.4768862   8.4898427   8.4769371
 TTTTTTTTTTTTTTTTTTTTTTTTTTTTTT MOQGAD      TELAPSE       58.07 TCPU     1211.27
 TTTTTTTTTTTTTTTTTTTTTTTTTTTTTT SHELLXN     TELAPSE       66.07 TCPU     1466.08
 TTTTTTTTTTTTTTTTTTTTTTTTTTTTTT MONMO3      TELAPSE       66.21 TCPU     1470.84
 NUMERICALLY INTEGRATED DENSITY    197.9999938139
 TTTTTTTTTTTTTTTTTTTTTTTTTTTTTT NUMDFT      TELAPSE       66.79 TCPU     1489.32
 CYC   4 ETOT(AU) -1.289112278123E+03 DETOT -2.88E-03 tst  3.04E-05 PX  1.35E-02
 TTTTTTTTTTTTTTTTTTTTTTTTTTTTTT DIIS        TELAPSE       66.85 TCPU     1491.12
 DIIS TEST: 0.41722E-02 AT SCF   CYCLE   4 - DIIS ACTIVE - HISTORY:     4 CYCLES
 TTTTTTTTTTTTTTTTTTTTTTTTTTTTTT FDIK        TELAPSE       67.34 TCPU     1506.97
 INSULATING STATE
 TOP OF VALENCE BANDS -    BAND     99; K   17; EIG -2.4260025E-01 AU
 TOP OF VALENCE BANDS -    BAND     99; K    1; EIG -2.4742412E-01 AU
 BOTTOM OF VIRTUAL BANDS - BAND    100; K    1; EIG -8.5968329E-02 AU
 INDIRECT ENERGY BAND GAP:   4.2622 eV
 TTTTTTTTTTTTTTTTTTTTTTTTTTTTTT PDIG        TELAPSE       67.64 TCPU     1513.12
 CHARGE NORMALIZATION FACTOR   1.00000000
 TOTAL ATOMIC CHARGES:
   4.4865257   4.5046153   4.5044349   4.5041093   4.5041293   4.4855878
   0.8729314   0.8731166   0.8785406   0.8788182   0.8715055   0.8716604
   0.8715721   0.8715097   0.8785308   0.8788987   0.8728640   0.8729645
   5.9214685   6.1637344   6.1637051   6.1704954   6.1693982   5.9205535
   5.9363945   6.1695367   6.1694079   6.1695736   6.1694191   5.9361310
   5.9217428   6.1704775   6.1694792   6.1636190   6.1639249   5.9203858
   8.4899099   8.4901989   8.4938672   8.4902207   8.4935403   8.4905010
 TTTTTTTTTTTTTTTTTTTTTTTTTTTTTT MOQGAD      TELAPSE       67.69 TCPU     1513.17
 TTTTTTTTTTTTTTTTTTTTTTTTTTTTTT SHELLXN     TELAPSE       75.60 TCPU     1765.25
 TTTTTTTTTTTTTTTTTTTTTTTTTTTTTT MONMO3      TELAPSE       80.66 TCPU     1775.92
 NUMERICALLY INTEGRATED DENSITY    197.9999938742
 TTTTTTTTTTTTTTTTTTTTTTTTTTTTTT NUMDFT      TELAPSE       81.24 TCPU     1794.35
 CYC   5 ETOT(AU) -1.289113230606E+03 DETOT -9.52E-04 tst  6.19E-06 PX  6.60E-03
 TTTTTTTTTTTTTTTTTTTTTTTTTTTTTT DIIS        TELAPSE       81.30 TCPU     1796.42
 DIIS TEST: 0.72791E-04 AT SCF   CYCLE   5 - DIIS ACTIVE - HISTORY:     5 CYCLES
 TTTTTTTTTTTTTTTTTTTTTTTTTTTTTT FDIK        TELAPSE       81.81 TCPU     1812.49
 INSULATING STATE
 TOP OF VALENCE BANDS -    BAND     99; K   17; EIG -2.4232578E-01 AU
 TOP OF VALENCE BANDS -    BAND     99; K    1; EIG -2.4716492E-01 AU
 BOTTOM OF VIRTUAL BANDS - BAND    100; K    1; EIG -8.5454080E-02 AU
 INDIRECT ENERGY BAND GAP:   4.2687 eV
 TTTTTTTTTTTTTTTTTTTTTTTTTTTTTT PDIG        TELAPSE       82.11 TCPU     1818.64
 CHARGE NORMALIZATION FACTOR   1.00000000
 TOTAL ATOMIC CHARGES:
   4.4872711   4.5037785   4.5035983   4.5034300   4.5034686   4.4866453
   0.8739558   0.8741801   0.8795869   0.8796305   0.8726388   0.8725536
   0.8725946   0.8725180   0.8796459   0.8796409   0.8738954   0.8740236
   5.9186944   6.1628037   6.1629679   6.1685536   6.1707227   5.9223273
   5.9353917   6.1676336   6.1694259   6.1685623   6.1685244   5.9380744
   5.9188335   6.1681587   6.1711905   6.1629394   6.1629230   5.9222932
   8.4886417   8.4887311   8.4957983   8.4886671   8.4963734   8.4887125
 TTTTTTTTTTTTTTTTTTTTTTTTTTTTTT MOQGAD      TELAPSE       82.16 TCPU     1818.69
 TTTTTTTTTTTTTTTTTTTTTTTTTTTTTT SHELLXN     TELAPSE       90.17 TCPU     2073.98
 TTTTTTTTTTTTTTTTTTTTTTTTTTTTTT MONMO3      TELAPSE       90.32 TCPU     2078.88
 NUMERICALLY INTEGRATED DENSITY    197.9999938638
 TTTTTTTTTTTTTTTTTTTTTTTTTTTTTT NUMDFT      TELAPSE       90.91 TCPU     2097.76
 CYC   6 ETOT(AU) -1.289113244014E+03 DETOT -1.34E-05 tst  3.04E-07 PX  9.60E-04
 TTTTTTTTTTTTTTTTTTTTTTTTTTTTTT DIIS        TELAPSE       90.98 TCPU     2099.96
 DIIS TEST: 0.35589E-04 AT SCF   CYCLE   6 - DIIS ACTIVE - HISTORY:     6 CYCLES
 TTTTTTTTTTTTTTTTTTTTTTTTTTTTTT FDIK        TELAPSE       91.52 TCPU     2117.15
 INSULATING STATE
 TOP OF VALENCE BANDS -    BAND     99; K   17; EIG -2.4234606E-01 AU
 TOP OF VALENCE BANDS -    BAND     99; K    1; EIG -2.4717098E-01 AU
 BOTTOM OF VIRTUAL BANDS - BAND    100; K    1; EIG -8.5481420E-02 AU
 INDIRECT ENERGY BAND GAP:   4.2685 eV
 TTTTTTTTTTTTTTTTTTTTTTTTTTTTTT PDIG        TELAPSE       91.82 TCPU     2123.30
 CHARGE NORMALIZATION FACTOR   1.00000000
 TOTAL ATOMIC CHARGES:
   4.4870318   4.5041644   4.5039904   4.5036838   4.5037045   4.4861907
   0.8739370   0.8741462   0.8794369   0.8796752   0.8724724   0.8725770
   0.8725093   0.8724596   0.8794502   0.8797311   0.8738780   0.8739867
   5.9209742   6.1629132   6.1628544   6.1697250   6.1691209   5.9207127
   5.9365563   6.1684816   6.1687225   6.1687553   6.1684845   5.9367070
   5.9211427   6.1695805   6.1693341   6.1628328   6.1630342   5.9206482
   8.4890221   8.4892720   8.4947566   8.4892579   8.4946000   8.4894861
 TTTTTTTTTTTTTTTTTTTTTTTTTTTTTT MOQGAD      TELAPSE       91.87 TCPU     2123.35
 TTTTTTTTTTTTTTTTTTTTTTTTTTTTTT SHELLXN     TELAPSE       99.85 TCPU     2377.85
 TTTTTTTTTTTTTTTTTTTTTTTTTTTTTT MONMO3      TELAPSE       99.99 TCPU     2382.53
 NUMERICALLY INTEGRATED DENSITY    197.9999938697
 TTTTTTTTTTTTTTTTTTTTTTTTTTTTTT NUMDFT      TELAPSE      100.57 TCPU     2400.94
 CYC   7 ETOT(AU) -1.289113251910E+03 DETOT -7.90E-06 tst  2.08E-07 PX  6.75E-04
 TTTTTTTTTTTTTTTTTTTTTTTTTTTTTT DIIS        TELAPSE      100.64 TCPU     2403.38
 DIIS TEST: 0.27348E-05 AT SCF   CYCLE   7 - DIIS ACTIVE - HISTORY:     7 CYCLES
 TTTTTTTTTTTTTTTTTTTTTTTTTTTTTT FDIK        TELAPSE      101.14 TCPU     2419.17
 INSULATING STATE
 TOP OF VALENCE BANDS -    BAND     99; K   17; EIG -2.4235235E-01 AU
 TOP OF VALENCE BANDS -    BAND     99; K    1; EIG -2.4718285E-01 AU
 BOTTOM OF VIRTUAL BANDS - BAND    100; K    1; EIG -8.5510265E-02 AU
 INDIRECT ENERGY BAND GAP:   4.2679 eV
 TTTTTTTTTTTTTTTTTTTTTTTTTTTTTT PDIG        TELAPSE      101.44 TCPU     2425.32
 CHARGE NORMALIZATION FACTOR   1.00000000
 TOTAL ATOMIC CHARGES:
   4.4869726   4.5042642   4.5040860   4.5038259   4.5038510   4.4861771
   0.8739004   0.8741039   0.8794355   0.8796080   0.8724465   0.8725020
   0.8724712   0.8723962   0.8794515   0.8796615   0.8738372   0.8739487
   5.9203537   6.1628272   6.1628803   6.1692759   6.1695621   5.9213638
   5.9360500   6.1683169   6.1689834   6.1687065   6.1686319   5.9370354
   5.9205763   6.1691148   6.1697908   6.1628115   6.1629958   5.9212462
   8.4891731   8.4893838   8.4945121   8.4893620   8.4945576   8.4895492
 TTTTTTTTTTTTTTTTTTTTTTTTTTTTTT MOQGAD      TELAPSE      101.49 TCPU     2425.37
 TTTTTTTTTTTTTTTTTTTTTTTTTTTTTT SHELLXN     TELAPSE      109.46 TCPU     2679.65
 TTTTTTTTTTTTTTTTTTTTTTTTTTTTTT MONMO3      TELAPSE      109.62 TCPU     2684.46
 NUMERICALLY INTEGRATED DENSITY    197.9999938690
 TTTTTTTTTTTTTTTTTTTTTTTTTTTTTT NUMDFT      TELAPSE      110.20 TCPU     2703.29
 CYC   8 ETOT(AU) -1.289113252258E+03 DETOT -3.47E-07 tst  2.01E-08 PX  1.64E-04
 TTTTTTTTTTTTTTTTTTTTTTTTTTTTTT DIIS        TELAPSE      110.28 TCPU     2705.79
 DIIS TEST: 0.37924E-06 AT SCF   CYCLE   8 - DIIS ACTIVE - HISTORY:     8 CYCLES
 TTTTTTTTTTTTTTTTTTTTTTTTTTTTTT FDIK        TELAPSE      110.78 TCPU     2721.70
 INSULATING STATE
 TOP OF VALENCE BANDS -    BAND     99; K   17; EIG -2.4235337E-01 AU
 TOP OF VALENCE BANDS -    BAND     99; K    1; EIG -2.4718664E-01 AU
 BOTTOM OF VIRTUAL BANDS - BAND    100; K    1; EIG -8.5512545E-02 AU
 INDIRECT ENERGY BAND GAP:   4.2679 eV
 TTTTTTTTTTTTTTTTTTTTTTTTTTTTTT PDIG        TELAPSE      111.08 TCPU     2727.86
 CHARGE NORMALIZATION FACTOR   1.00000000
 TOTAL ATOMIC CHARGES:
   4.4870408   4.5042384   4.5040597   4.5037889   4.5038151   4.4862382
   0.8738857   0.8740939   0.8794226   0.8796137   0.8724418   0.8725033
   0.8724626   0.8724015   0.8794437   0.8796622   0.8738243   0.8739371
   5.9204534   6.1628589   6.1628727   6.1694214   6.1694937   5.9211487
   5.9361818   6.1683394   6.1689411   6.1687478   6.1685692   5.9369533
   5.9206404   6.1692345   6.1697489   6.1628355   6.1629947   5.9210667
   8.4890792   8.4892910   8.4947557   8.4892721   8.4947672   8.4894592
 TTTTTTTTTTTTTTTTTTTTTTTTTTTTTT MOQGAD      TELAPSE      111.14 TCPU     2727.90
 TTTTTTTTTTTTTTTTTTTTTTTTTTTTTT SHELLXN     TELAPSE      119.02 TCPU     2979.30
 +++ ENERGIES IN A.U. +++
 ::: EXT EL-POLE                                  -1.3142301424339E+03
 ::: EXT EL-SPHEROPOLE                             1.4686050998242E+01
 ::: BIELET ZONE E-E                               2.1359872306008E+03
 ::: TOTAL E-E                                     8.3644313916521E+02
 ::: TOTAL E-N + N-E                              -3.5016069633466E+03
 ::: TOTAL N-N                                     2.2984518644942E+02
 ::: KINETIC ENERGY                                1.2799189491946E+03
 ::: PSEUDO TOTAL   ENERGY                        -1.1553996885373E+03
 ::: VIRIAL COEFFICIENT                            1.0511305825562E+00
 TTTTTTTTTTTTTTTTTTTTTTTTTTTTTT MONMO3      TELAPSE      119.17 TCPU     2984.03
 NUMERICALLY INTEGRATED DENSITY    197.9999938684
 EXCHANGE ENERGY: -0.126023004050E+03  CORRELATION ENERGY: -0.769055975895E+01
 TTTTTTTTTTTTTTTTTTTTTTTTTTTTTT NUMDFT      TELAPSE      119.75 TCPU     3002.55
 CYC   9 ETOT(AU) -1.289113252347E+03 DETOT -8.91E-08 tst  1.14E-09 PX  1.64E-04

 == SCF ENDED - CONVERGENCE ON ENERGY      E(AU) -1.2891132523468E+03 CYCLES   9


 ENERGY EXPRESSION=HARTREE+FOCK EXCH*0.00000+(HSESOL     EXCH)*1.00000+PBESOL     CORR


 TOTAL ENERGY(DFT)(AU)(  9) -1.2891132523468E+03 DE-8.9E-08 tester 1.1E-09
 TTTTTTTTTTTTTTTTTTTTTTTTTTTTTT EDFT        TELAPSE      119.75 TCPU     3002.55
 
 INFORMATION **** DFTD3 ENERGY **** CALCULATE DFTD3 ENERGY

           DFT-D V3(BJ)
 DF                                         hsesol3c  
 parameters
 s6       :    1.0000
 s8       :    0.0000
 a1       :    0.5196
 a2       :    4.9385
 k1 k3    :   16.0000   -4.0000
 Cutoff   :   50.2022
 CN-Cutoff:   21.1671
 ABC-Cutoff:   21.1671
 
 Edisp /kcal,au:   -25.7238 -0.04099346

 E6    /kcal :   -27.3211
 E8    /kcal :     0.0000
 E6(ABC) "   :   1.597274
 
 INFORMATION **** DFTD3 ENERGY **** NORMAL TERMINATION OF DFTD3 MODULE

 GCP ENERGY CALCULATION
  level        hsesol3c            basis:hsesol3c
  Nbf            474
  Atoms           42

  Parameters: 
  sigma     1.0000
  eta       1.4281
  alpha     0.2936
  beta      1.9467

  dmp_scal      4.0000
  dmp_exp       6.0000
 cutoffs: 
   distance [bohr] 60.0
   noise    [a.u.] 2.2E-16
 SR-damping   T
 ** gCP correction **
  Egcp:        0.0829893782 / (a.u.) ||      52.0766 / (kcal/mol)
 INFORMATION **** GCP **** NORMAL TERMINATION OF GCP MODULE

 *******************************************************************************

 DFT-D3-GCP DISPERSION AND COUNTERPOISE CORRECTION

 D3 DISPERSION ENERGY (AU)      -4.0993455641829E-02
 GCP ENERGY (AU)                 8.2989378189889E-02
 TOTAL ENERGY + DISP + GCP (AU) -1.2890712564242E+03

 *******************************************************************************

 EIGENVECTORS IN FORTRAN UNIT 10
 TTTTTTTTTTTTTTTTTTTTTTTTTTTTTT END         TELAPSE      120.93 TCPU     3009.70
 EEEEEEEEEE TERMINATION  DATE 19 02 2026 TIME 19:02:40.3
