 Default number of threads is:           32

         
 *******************************************************************************
 *                                                                             *
 *                               CRYSTAL23                                     *
 *                      public : 1.0.1 - October 2022                          *
 *                       HTTP://WWW.CRYSTAL.UNITO.IT                           *
 *                                                                             *
 *                              MAIN AUTHORS                                   *
 *                                                                             *
 *  R. DOVESI(1,11), V.R. SAUNDERS(2), C. ROETTI(1,11), R. ORLANDO(1,11),      *
 *  C.M. ZICOVICH-WILSON(1,3), F. PASCALE(4), B. CIVALLERI(1,11),              *
 *  K. DOLL(5), N.M. HARRISON(6), I.J. BUSH(7), Ph. D'ARCO(8),                 *
 *  M. LLUNELL(9), M. CAUSA'(10), Y. NOEL(8), L. MASCHIO(1,11), A. ERBA(1,11)  *
 *  M. RE'RAT(14), S. CASASSA(1,11), B.G. SEARLE(2), J.K. DESMARAIS(1)         *
 *                                                                             *
 *        CONTRIBUTIONS TO THE CODE HAVE ALSO BEEN GIVEN BY                    *
 *                                                                             *
 *  M. FERRABONE(1,11), M. DE LA PIERRE(1,11), M. FERRERO(1,11),               *
 *  J. BAIMA(1,11), E. ALBANESE(1,11), M.F. PEINTINGER(12), R. BAST(13),       *
 *  B. KIRTMAN(15), V. LACIVITA(1,11), R. DEMICHELIS(1,16)                     *
 *  G. BRANDEBURG(17), S. SALUSTRO(1,11), G. SANSONE(1,11)                     *
 *  M.T. RUGGIERO(18), L.E. DAGA(1), L. DONA'(1), A. COSSARD(1)                *
 *                                                                             *
 * (1) THEORETICAL CHEMISTRY GROUP - UNIVERSITA' DI TORINO - TORINO (ITALY)    *
 * (2) SCIENTIFIC COMPUTING DEPARTMENT - STFC DARESBURY (UK)                   *
 * (3) UNIVERSIDAD AUTONOMA DEL ESTADO DE MORELOS - CUERNAVACA (MEXICO)        *
 * (4) UNIVERSITE' DE LORRAINE - NANCY (FRANCE)                                *
 * (5) UNIVERSITAET STUTTGART- STUTTGART (GERMANY)                             *
 * (6) IMPERIAL COLLEGE - LONDON (UK)                                          *
 * (7) SCIENTIFIC COMPUTING DEPARTMENT - STFC RAL (UK)                         *
 * (8) UPMC - SORBONNE UNIVERSITES - PARIS (FRANCE)                            *
 * (9) UNIVERSIDAD DE BARCELONA - BARCELONA (SPAIN)                            *
 *(10) UNIVERSITA' DI NAPOLI "FEDERICO II" - NAPOLI (ITALY)                    *
 *(11) NIS - NANOSTRUCTURED INTERFACES AND SURFACES - TORINO (ITALY)           *
 *(12) MPI FUER CHEMISCHE ENERGIEKONVERSION - MUELHEIM AN DER RUHR (GERMANY)   *
 *(13) UNIVERSITY OF TROMSO - TROMSO (NORWAY)                                  *
 *(14) UNIVERSITE' DE PAU ET DES PAYS DE L'ADOUR - PAU (FRANCE)                *
 *(15) UNIVERSITY OF CALIFORNIA SANTA BARBARA - SANTA BARBARA (USA)            *
 *(16) CURTIN UNIVERSITY - PERTH (AUSTRALIA)                                   *
 *(17) UNIVERSITY COLLEGE LONDON - LONDON (UK)                                 *
 *(18) UNIVERSITY OF VERMONT - BURLINGTON (USA)                                *
 *                                                                             *
 *******************************************************************************
 EEEEEEEEEE STARTING  DATE 19 02 2026 TIME 20:10:12.2
 cof-1_z35_L030_serr                                                             

 CRYSTAL CALCULATION
 (INPUT ACCORDING TO THE INTERNATIONAL TABLES FOR X-RAY CRYSTALLOGRAPHY)
 CRYSTAL FAMILY                       :  TRICLINIC   
 CRYSTAL CLASS  (GROTH - 1921)        :  TRICLINIC PEDIAL                     

 SPACE GROUP (NONCENTROSYMMETRIC)     :  P 1             

 LATTICE PARAMETERS  (ANGSTROMS AND DEGREES) - CONVENTIONAL CELL
        A           B           C        ALPHA        BETA       GAMMA
    15.02361    15.02392     7.00000    90.00032    89.99994   119.99596


 NUMBER OF IRREDUCIBLE ATOMS IN THE CONVENTIONAL CELL:   84

 INPUT COORDINATES

 ATOM AT. N.              COORDINATES
   1   5     6.136805400000E-01  2.273182200000E-01  2.506823900000E-01
   2   5     7.289503700000E-01  4.578813200000E-01  7.506823900000E-01
   3   5     7.727362000000E-01  3.863778800000E-01  2.506824000000E-01
   4   5     8.880060300000E-01  6.169409800000E-01  7.506824000000E-01
   5   5     6.136762700000E-01  3.863606700000E-01  2.492476500000E-01
   6   5     7.289461000000E-01  6.169237700000E-01  7.492476600000E-01
   7   5     2.272552500000E-01  6.136332200000E-01  2.506824000000E-01
   8   5     3.425250800000E-01  8.441963200000E-01  7.506824000000E-01
   9   5     3.863632200000E-01  6.136124500000E-01  2.506823900000E-01
  10   5     5.016330500000E-01  8.441755500000E-01  7.506823900000E-01
  11   5     3.863435000000E-01  7.727516500000E-01  2.492476600000E-01
  12   5     5.016133300000E-01  3.314750000000E-03  7.492476600000E-01
  13   1     9.030436200000E-01  3.089300500000E-01  2.477078900000E-01
  14   1     1.831345000000E-02  5.394931500000E-01  7.477078900000E-01
  15   1     9.663453000000E-02  6.910534400000E-01  2.472530400000E-01
  16   1     2.119043600000E-01  9.216165400000E-01  7.472530300000E-01
  17   1     9.029714200000E-01  5.940724300000E-01  2.471830300000E-01
  18   1     1.824125000000E-02  8.246355300000E-01  7.471830300000E-01
  19   1     9.673618000000E-02  4.056849400000E-01  2.472004900000E-01
  20   1     2.120060100000E-01  6.362480400000E-01  7.472004900000E-01
  21   1     6.910324000000E-01  9.700412000000E-02  2.522921300000E-01
  22   1     8.063022300000E-01  3.275672200000E-01  7.522921300000E-01
  23   1     3.089297200000E-01  9.034373100000E-01  2.527470200000E-01
  24   1     4.241995500000E-01  1.340004100000E-01  7.527470100000E-01
  25   1     4.058699900000E-01  9.704998000000E-02  2.528170600000E-01
  26   1     5.211398200000E-01  3.276130800000E-01  7.528170600000E-01
  27   1     5.943122100000E-01  9.033473200000E-01  2.527994800000E-01
  28   1     7.095820400000E-01  1.339104200000E-01  7.527994800000E-01
  29   1     6.910727400000E-01  5.940542100000E-01  2.477079200000E-01
  30   1     8.063425700000E-01  8.246173100000E-01  7.477079100000E-01
  31   1     3.089618300000E-01  4.056093300000E-01  2.472530100000E-01
  32   1     4.242316600000E-01  6.361724300000E-01  7.472530100000E-01
  33   1     4.058405700000E-01  3.088232500000E-01  2.471829700000E-01
  34   1     5.211104000000E-01  5.393863500000E-01  7.471829700000E-01
  35   1     5.942908800000E-01  6.909579300000E-01  2.472005500000E-01
  36   1     7.095607100000E-01  9.215210300000E-01  7.472005500000E-01
  37   6     8.918903100000E-01  4.459436900000E-01  2.491951600000E-01
  38   6     7.160140000000E-03  6.765067900000E-01  7.491951600000E-01
  39   6     9.464891100000E-01  3.927856300000E-01  2.477778800000E-01
  40   6     6.175894000000E-02  6.233487300000E-01  7.477778800000E-01
  41   6     5.338812000000E-02  6.071853000000E-01  2.476554500000E-01
  42   6     1.686579500000E-01  8.377484000000E-01  7.476554500000E-01
  43   6     9.464521100000E-01  5.536921900000E-01  2.480228800000E-01
  44   6     6.172194000000E-02  7.842552900000E-01  7.480228800000E-01
  45   6     5.342634000000E-02  4.462499700000E-01  2.470780200000E-01
  46   6     1.686961700000E-01  6.768130700000E-01  7.470780200000E-01
  47   6     1.080358900000E-01  5.540356300000E-01  2.480403700000E-01
  48   6     2.233057200000E-01  7.845987300000E-01  7.480403600000E-01
  49   6     5.540394200000E-01  1.081684600000E-01  2.508048800000E-01
  50   6     6.693092500000E-01  3.387315600000E-01  7.508048800000E-01
  51   6     6.071778500000E-01  5.355594000000E-02  2.522221300000E-01
  52   6     7.224476800000E-01  2.841190400000E-01  7.522221300000E-01
  53   6     3.927986700000E-01  9.466631600000E-01  2.523446000000E-01
  54   6     5.080685000000E-01  1.772262600000E-01  7.523446000000E-01
  55   6     4.462875800000E-01  5.360286000000E-02  2.519771800000E-01
  56   6     5.615574100000E-01  2.841659600000E-01  7.519771800000E-01
  57   6     5.537168500000E-01  9.466235600000E-01  2.529219900000E-01
  58   6     6.689866800000E-01  1.771866600000E-01  7.529219800000E-01
  59   6     4.459279100000E-01  8.919920600000E-01  2.519596600000E-01
  60   6     5.611977400000E-01  1.225551600000E-01  7.519596600000E-01
  61   6     5.540448700000E-01  4.458745500000E-01  2.491951600000E-01
  62   6     6.693147000000E-01  6.764376500000E-01  7.491951600000E-01
  63   6     6.072102200000E-01  5.536257800000E-01  2.477779100000E-01
  64   6     7.224800500000E-01  7.841888800000E-01  7.477779200000E-01
  65   6     3.928233700000E-01  4.461720300000E-01  2.476554200000E-01
  66   6     5.080932000000E-01  6.767351300000E-01  7.476554200000E-01
  67   6     4.462872600000E-01  3.926899900000E-01  2.480228400000E-01
  68   6     5.615570900000E-01  6.232530900000E-01  7.480228400000E-01
  69   6     5.537429600000E-01  6.070980000000E-01  2.470780500000E-01
  70   6     6.690127900000E-01  8.376611000000E-01  7.470780500000E-01
  71   6     4.459599800000E-01  5.539582300000E-01  2.480403700000E-01
  72   6     5.612298100000E-01  7.845213300000E-01  7.480403600000E-01
  73   8     5.607366800000E-01  2.803706300000E-01  2.496325800000E-01
  74   8     6.760065100000E-01  5.109337300000E-01  7.496325800000E-01
  75   8     7.196817000000E-01  2.803783300000E-01  2.526595300000E-01
  76   8     8.349515300000E-01  5.109414300000E-01  7.526595400000E-01
  77   8     7.196794200000E-01  4.393234600000E-01  2.480928700000E-01
  78   8     8.349492500000E-01  6.698865600000E-01  7.480928700000E-01
  79   8     2.803245100000E-01  7.196511100000E-01  2.496325900000E-01
  80   8     3.955943400000E-01  9.502142100000E-01  7.496325900000E-01
  81   8     2.803439700000E-01  5.606956100000E-01  2.526595300000E-01
  82   8     3.956138000000E-01  7.912587100000E-01  7.526595300000E-01
  83   8     4.392638400000E-01  7.196354200000E-01  2.480928600000E-01
  84   8     5.545336700000E-01  9.501985200000E-01  7.480928600000E-01

 *******************************************************************************

 << INFORMATION >>: FROM NOW ON, ALL COORDINATES REFER TO THE PRIMITIVE CELL

 *******************************************************************************

 LATTICE PARAMETERS  (ANGSTROMS AND DEGREES) - PRIMITIVE CELL
       A          B          C        ALPHA      BETA     GAMMA        VOLUME
   15.02361   15.02392    7.00000    90.00032  89.99994 119.99596   1368.370836

 COORDINATES OF THE EQUIVALENT ATOMS (FRACTIONAL UNITS)

 N. ATOM EQUIV AT. N.          X                  Y                  Z

   1   1   1    5 B    -3.86319460000E-01  2.27318220000E-01  2.50682390000E-01

   2   2   1    5 B    -2.71049630000E-01  4.57881320000E-01 -2.49317610000E-01

   3   3   1    5 B    -2.27263800000E-01  3.86377880000E-01  2.50682400000E-01

   4   4   1    5 B    -1.11993970000E-01 -3.83059020000E-01 -2.49317600000E-01

   5   5   1    5 B    -3.86323730000E-01  3.86360670000E-01  2.49247650000E-01

   6   6   1    5 B    -2.71053900000E-01 -3.83076230000E-01 -2.50752340000E-01

   7   7   1    5 B     2.27255250000E-01 -3.86366780000E-01  2.50682400000E-01

   8   8   1    5 B     3.42525080000E-01 -1.55803680000E-01 -2.49317600000E-01

   9   9   1    5 B     3.86363220000E-01 -3.86387550000E-01  2.50682390000E-01

  10  10   1    5 B    -4.98366950000E-01 -1.55824450000E-01 -2.49317610000E-01

  11  11   1    5 B     3.86343500000E-01 -2.27248350000E-01  2.49247660000E-01

  12  12   1    5 B    -4.98386670000E-01  3.31475000000E-03 -2.50752340000E-01

  13  13   1    1 H    -9.69563800000E-02  3.08930050000E-01  2.47707890000E-01

  14  14   1    1 H     1.83134500000E-02 -4.60506850000E-01 -2.52292110000E-01

  15  15   1    1 H     9.66345300000E-02 -3.08946560000E-01  2.47253040000E-01

  16  16   1    1 H     2.11904360000E-01 -7.83834600000E-02 -2.52746970000E-01

  17  17   1    1 H    -9.70285800000E-02 -4.05927570000E-01  2.47183030000E-01

  18  18   1    1 H     1.82412500000E-02 -1.75364470000E-01 -2.52816970000E-01

  19  19   1    1 H     9.67361800000E-02  4.05684940000E-01  2.47200490000E-01

  20  20   1    1 H     2.12006010000E-01 -3.63751960000E-01 -2.52799510000E-01

  21  21   1    1 H    -3.08967600000E-01  9.70041200000E-02  2.52292130000E-01

  22  22   1    1 H    -1.93697770000E-01  3.27567220000E-01 -2.47707870000E-01

  23  23   1    1 H     3.08929720000E-01 -9.65626900000E-02  2.52747020000E-01

  24  24   1    1 H     4.24199550000E-01  1.34000410000E-01 -2.47252990000E-01

  25  25   1    1 H     4.05869990000E-01  9.70499800000E-02  2.52817060000E-01

  26  26   1    1 H    -4.78860180000E-01  3.27613080000E-01 -2.47182940000E-01

  27  27   1    1 H    -4.05687790000E-01 -9.66526800000E-02  2.52799480000E-01

  28  28   1    1 H    -2.90417960000E-01  1.33910420000E-01 -2.47200520000E-01

  29  29   1    1 H    -3.08927260000E-01 -4.05945790000E-01  2.47707920000E-01

  30  30   1    1 H    -1.93657430000E-01 -1.75382690000E-01 -2.52292090000E-01

  31  31   1    1 H     3.08961830000E-01  4.05609330000E-01  2.47253010000E-01

  32  32   1    1 H     4.24231660000E-01 -3.63827570000E-01 -2.52746990000E-01

  33  33   1    1 H     4.05840570000E-01  3.08823250000E-01  2.47182970000E-01

  34  34   1    1 H    -4.78889600000E-01 -4.60613650000E-01 -2.52817030000E-01

  35  35   1    1 H    -4.05709120000E-01 -3.09042070000E-01  2.47200550000E-01

  36  36   1    1 H    -2.90439290000E-01 -7.84789700000E-02 -2.52799450000E-01

  37  37   1    6 C    -1.08109690000E-01  4.45943690000E-01  2.49195160000E-01

  38  38   1    6 C     7.16014000000E-03 -3.23493210000E-01 -2.50804840000E-01

  39  39   1    6 C    -5.35108900000E-02  3.92785630000E-01  2.47777880000E-01

  40  40   1    6 C     6.17589400000E-02 -3.76651270000E-01 -2.52222120000E-01

  41  41   1    6 C     5.33881200000E-02 -3.92814700000E-01  2.47655450000E-01

  42  42   1    6 C     1.68657950000E-01 -1.62251600000E-01 -2.52344550000E-01

  43  43   1    6 C    -5.35478900000E-02 -4.46307810000E-01  2.48022880000E-01

  44  44   1    6 C     6.17219400000E-02 -2.15744710000E-01 -2.51977120000E-01

  45  45   1    6 C     5.34263400000E-02  4.46249970000E-01  2.47078020000E-01

  46  46   1    6 C     1.68696170000E-01 -3.23186930000E-01 -2.52921980000E-01

  47  47   1    6 C     1.08035890000E-01 -4.45964370000E-01  2.48040370000E-01

  48  48   1    6 C     2.23305720000E-01 -2.15401270000E-01 -2.51959640000E-01

  49  49   1    6 C    -4.45960580000E-01  1.08168460000E-01  2.50804880000E-01

  50  50   1    6 C    -3.30690750000E-01  3.38731560000E-01 -2.49195120000E-01

  51  51   1    6 C    -3.92822150000E-01  5.35559400000E-02  2.52222130000E-01

  52  52   1    6 C    -2.77552320000E-01  2.84119040000E-01 -2.47777870000E-01

  53  53   1    6 C     3.92798670000E-01 -5.33368400000E-02  2.52344600000E-01

  54  54   1    6 C    -4.91931500000E-01  1.77226260000E-01 -2.47655400000E-01

  55  55   1    6 C     4.46287580000E-01  5.36028600000E-02  2.51977180000E-01

  56  56   1    6 C    -4.38442590000E-01  2.84165960000E-01 -2.48022820000E-01

  57  57   1    6 C    -4.46283150000E-01 -5.33764400000E-02  2.52921990000E-01

  58  58   1    6 C    -3.31013320000E-01  1.77186660000E-01 -2.47078020000E-01

  59  59   1    6 C     4.45927910000E-01 -1.08007940000E-01  2.51959660000E-01

  60  60   1    6 C    -4.38802260000E-01  1.22555160000E-01 -2.48040340000E-01

  61  61   1    6 C    -4.45955130000E-01  4.45874550000E-01  2.49195160000E-01

  62  62   1    6 C    -3.30685300000E-01 -3.23562350000E-01 -2.50804840000E-01

  63  63   1    6 C    -3.92789780000E-01 -4.46374220000E-01  2.47777910000E-01

  64  64   1    6 C    -2.77519950000E-01 -2.15811120000E-01 -2.52222080000E-01

  65  65   1    6 C     3.92823370000E-01  4.46172030000E-01  2.47655420000E-01

  66  66   1    6 C    -4.91906800000E-01 -3.23264870000E-01 -2.52344580000E-01

  67  67   1    6 C     4.46287260000E-01  3.92689990000E-01  2.48022840000E-01

  68  68   1    6 C    -4.38442910000E-01 -3.76746910000E-01 -2.51977160000E-01

  69  69   1    6 C    -4.46257040000E-01 -3.92902000000E-01  2.47078050000E-01

  70  70   1    6 C    -3.30987210000E-01 -1.62338900000E-01 -2.52921950000E-01

  71  71   1    6 C     4.45959980000E-01 -4.46041770000E-01  2.48040370000E-01

  72  72   1    6 C    -4.38770190000E-01 -2.15478670000E-01 -2.51959640000E-01

  73  73   1    8 O    -4.39263320000E-01  2.80370630000E-01  2.49632580000E-01

  74  74   1    8 O    -3.23993490000E-01 -4.89066270000E-01 -2.50367420000E-01

  75  75   1    8 O    -2.80318300000E-01  2.80378330000E-01  2.52659530000E-01

  76  76   1    8 O    -1.65048470000E-01 -4.89058570000E-01 -2.47340460000E-01

  77  77   1    8 O    -2.80320580000E-01  4.39323460000E-01  2.48092870000E-01

  78  78   1    8 O    -1.65050750000E-01 -3.30113440000E-01 -2.51907130000E-01

  79  79   1    8 O     2.80324510000E-01 -2.80348890000E-01  2.49632590000E-01

  80  80   1    8 O     3.95594340000E-01 -4.97857900000E-02 -2.50367410000E-01

  81  81   1    8 O     2.80343970000E-01 -4.39304390000E-01  2.52659530000E-01

  82  82   1    8 O     3.95613800000E-01 -2.08741290000E-01 -2.47340470000E-01

  83  83   1    8 O     4.39263840000E-01 -2.80364580000E-01  2.48092860000E-01

  84  84   1    8 O    -4.45466330000E-01 -4.98014800000E-02 -2.51907140000E-01

 NUMBER OF SYMMETRY OPERATORS         :    1
 *******************************************************************************
 * GEOMETRY EDITING - INPUT COORDINATES ARE GIVEN IN ANGSTROM         
 *******************************************************************************

 GCALCO - MAX INDICES DIRECT LATTICE VECTOR    11    11    22
 NO.OF VECTORS CREATED 6999 STARS 3500 RMAX   248.91122 BOHR

 GEOMETRY FOR WAVE FUNCTION - DIMENSIONALITY OF THE SYSTEM    3
 (NON PERIODIC DIRECTION: LATTICE PARAMETER FORMALLY SET TO 500)
 *******************************************************************************
 LATTICE PARAMETERS (ANGSTROMS AND DEGREES) - BOHR = 0.5291772083 ANGSTROM
 PRIMITIVE CELL - CENTRING CODE 1/0 VOLUME=  1368.370836 - DENSITY  0.947 g/cm^3
         A              B              C           ALPHA      BETA       GAMMA 
    15.02361100    15.02391600     7.00000000    90.000323  89.999944 119.995964
 *******************************************************************************
 ATOMS IN THE ASYMMETRIC UNIT   84 - ATOMS IN THE UNIT CELL:   84
     ATOM                 X/A                 Y/B                 Z/C    
 *******************************************************************************
      1 T   5 B    -3.863194600000E-01  2.273182200000E-01  2.506823900000E-01
      2 T   5 B    -2.710496300000E-01  4.578813200000E-01 -2.493176100000E-01
      3 T   5 B    -2.272638000000E-01  3.863778800000E-01  2.506824000000E-01
      4 T   5 B    -1.119939700000E-01 -3.830590200000E-01 -2.493176000000E-01
      5 T   5 B    -3.863237300000E-01  3.863606700000E-01  2.492476500000E-01
      6 T   5 B    -2.710539000000E-01 -3.830762300000E-01 -2.507523400000E-01
      7 T   5 B     2.272552500000E-01 -3.863667800000E-01  2.506824000000E-01
      8 T   5 B     3.425250800000E-01 -1.558036800000E-01 -2.493176000000E-01
      9 T   5 B     3.863632200000E-01 -3.863875500000E-01  2.506823900000E-01
     10 T   5 B    -4.983669500000E-01 -1.558244500000E-01 -2.493176100000E-01
     11 T   5 B     3.863435000000E-01 -2.272483500000E-01  2.492476600000E-01
     12 T   5 B    -4.983866700000E-01  3.314750000000E-03 -2.507523400000E-01
     13 T   1 H    -9.695638000000E-02  3.089300500000E-01  2.477078900000E-01
     14 T   1 H     1.831345000000E-02 -4.605068500000E-01 -2.522921100000E-01
     15 T   1 H     9.663453000000E-02 -3.089465600000E-01  2.472530400000E-01
     16 T   1 H     2.119043600000E-01 -7.838346000000E-02 -2.527469700000E-01
     17 T   1 H    -9.702858000000E-02 -4.059275700000E-01  2.471830300000E-01
     18 T   1 H     1.824125000000E-02 -1.753644700000E-01 -2.528169700000E-01
     19 T   1 H     9.673618000000E-02  4.056849400000E-01  2.472004900000E-01
     20 T   1 H     2.120060100000E-01 -3.637519600000E-01 -2.527995100000E-01
     21 T   1 H    -3.089676000000E-01  9.700412000000E-02  2.522921300000E-01
     22 T   1 H    -1.936977700000E-01  3.275672200000E-01 -2.477078700000E-01
     23 T   1 H     3.089297200000E-01 -9.656269000000E-02  2.527470200000E-01
     24 T   1 H     4.241995500000E-01  1.340004100000E-01 -2.472529900000E-01
     25 T   1 H     4.058699900000E-01  9.704998000000E-02  2.528170600000E-01
     26 T   1 H    -4.788601800000E-01  3.276130800000E-01 -2.471829400000E-01
     27 T   1 H    -4.056877900000E-01 -9.665268000000E-02  2.527994800000E-01
     28 T   1 H    -2.904179600000E-01  1.339104200000E-01 -2.472005200000E-01
     29 T   1 H    -3.089272600000E-01 -4.059457900000E-01  2.477079200000E-01
     30 T   1 H    -1.936574300000E-01 -1.753826900000E-01 -2.522920900000E-01
     31 T   1 H     3.089618300000E-01  4.056093300000E-01  2.472530100000E-01
     32 T   1 H     4.242316600000E-01 -3.638275700000E-01 -2.527469900000E-01
     33 T   1 H     4.058405700000E-01  3.088232500000E-01  2.471829700000E-01
     34 T   1 H    -4.788896000000E-01 -4.606136500000E-01 -2.528170300000E-01
     35 T   1 H    -4.057091200000E-01 -3.090420700000E-01  2.472005500000E-01
     36 T   1 H    -2.904392900000E-01 -7.847897000000E-02 -2.527994500000E-01
     37 T   6 C    -1.081096900000E-01  4.459436900000E-01  2.491951600000E-01
     38 T   6 C     7.160140000000E-03 -3.234932100000E-01 -2.508048400000E-01
     39 T   6 C    -5.351089000000E-02  3.927856300000E-01  2.477778800000E-01
     40 T   6 C     6.175894000000E-02 -3.766512700000E-01 -2.522221200000E-01
     41 T   6 C     5.338812000000E-02 -3.928147000000E-01  2.476554500000E-01
     42 T   6 C     1.686579500000E-01 -1.622516000000E-01 -2.523445500000E-01
     43 T   6 C    -5.354789000000E-02 -4.463078100000E-01  2.480228800000E-01
     44 T   6 C     6.172194000000E-02 -2.157447100000E-01 -2.519771200000E-01
     45 T   6 C     5.342634000000E-02  4.462499700000E-01  2.470780200000E-01
     46 T   6 C     1.686961700000E-01 -3.231869300000E-01 -2.529219800000E-01
     47 T   6 C     1.080358900000E-01 -4.459643700000E-01  2.480403700000E-01
     48 T   6 C     2.233057200000E-01 -2.154012700000E-01 -2.519596400000E-01
     49 T   6 C    -4.459605800000E-01  1.081684600000E-01  2.508048800000E-01
     50 T   6 C    -3.306907500000E-01  3.387315600000E-01 -2.491951200000E-01
     51 T   6 C    -3.928221500000E-01  5.355594000000E-02  2.522221300000E-01
     52 T   6 C    -2.775523200000E-01  2.841190400000E-01 -2.477778700000E-01
     53 T   6 C     3.927986700000E-01 -5.333684000000E-02  2.523446000000E-01
     54 T   6 C    -4.919315000000E-01  1.772262600000E-01 -2.476554000000E-01
     55 T   6 C     4.462875800000E-01  5.360286000000E-02  2.519771800000E-01
     56 T   6 C    -4.384425900000E-01  2.841659600000E-01 -2.480228200000E-01
     57 T   6 C    -4.462831500000E-01 -5.337644000000E-02  2.529219900000E-01
     58 T   6 C    -3.310133200000E-01  1.771866600000E-01 -2.470780200000E-01
     59 T   6 C     4.459279100000E-01 -1.080079400000E-01  2.519596600000E-01
     60 T   6 C    -4.388022600000E-01  1.225551600000E-01 -2.480403400000E-01
     61 T   6 C    -4.459551300000E-01  4.458745500000E-01  2.491951600000E-01
     62 T   6 C    -3.306853000000E-01 -3.235623500000E-01 -2.508048400000E-01
     63 T   6 C    -3.927897800000E-01 -4.463742200000E-01  2.477779100000E-01
     64 T   6 C    -2.775199500000E-01 -2.158111200000E-01 -2.522220800000E-01
     65 T   6 C     3.928233700000E-01  4.461720300000E-01  2.476554200000E-01
     66 T   6 C    -4.919068000000E-01 -3.232648700000E-01 -2.523445800000E-01
     67 T   6 C     4.462872600000E-01  3.926899900000E-01  2.480228400000E-01
     68 T   6 C    -4.384429100000E-01 -3.767469100000E-01 -2.519771600000E-01
     69 T   6 C    -4.462570400000E-01 -3.929020000000E-01  2.470780500000E-01
     70 T   6 C    -3.309872100000E-01 -1.623389000000E-01 -2.529219500000E-01
     71 T   6 C     4.459599800000E-01 -4.460417700000E-01  2.480403700000E-01
     72 T   6 C    -4.387701900000E-01 -2.154786700000E-01 -2.519596400000E-01
     73 T   8 O    -4.392633200000E-01  2.803706300000E-01  2.496325800000E-01
     74 T   8 O    -3.239934900000E-01 -4.890662700000E-01 -2.503674200000E-01
     75 T   8 O    -2.803183000000E-01  2.803783300000E-01  2.526595300000E-01
     76 T   8 O    -1.650484700000E-01 -4.890585700000E-01 -2.473404600000E-01
     77 T   8 O    -2.803205800000E-01  4.393234600000E-01  2.480928700000E-01
     78 T   8 O    -1.650507500000E-01 -3.301134400000E-01 -2.519071300000E-01
     79 T   8 O     2.803245100000E-01 -2.803488900000E-01  2.496325900000E-01
     80 T   8 O     3.955943400000E-01 -4.978579000000E-02 -2.503674100000E-01
     81 T   8 O     2.803439700000E-01 -4.393043900000E-01  2.526595300000E-01
     82 T   8 O     3.956138000000E-01 -2.087412900000E-01 -2.473404700000E-01
     83 T   8 O     4.392638400000E-01 -2.803645800000E-01  2.480928600000E-01
     84 T   8 O    -4.454663300000E-01 -4.980148000000E-02 -2.519071400000E-01

 T = ATOM BELONGING TO THE ASYMMETRIC UNIT

 ****    1 SYMMOPS - TRANSLATORS IN FRACTIONAL UNITS
 **** MATRICES AND TRANSLATORS IN THE CRYSTALLOGRAPHIC REFERENCE FRAME
   V INV                    ROTATION MATRICES                   TRANSLATORS
   1   1  1.00  0.00  0.00  0.00  1.00  0.00  0.00  0.00  1.00  0.00  0.00  0.00

 DIRECT LATTICE VECTORS CARTESIAN COMPONENTS (ANGSTROM)
          X                    Y                    Z
   0.130113578931E+02  -0.751088897922E+01   0.000000000000E+00
   0.000000000000E+00   0.150239160000E+02   0.000000000000E+00
  -0.148798465207E-04  -0.394618943860E-04   0.699999999987E+01


 CARTESIAN COORDINATES - PRIMITIVE CELL
 *******************************************************************************
 *      ATOM          X(ANGSTROM)         Y(ANGSTROM)         Z(ANGSTROM)
 *******************************************************************************
    1     5 B    -5.026544485228E+00  6.316802524718E+00  1.754776729968E+00
    2     5 B    -3.526720032903E+00 -6.108911993018E+00 -1.745223269968E+00
    3     5 B    -2.957014368052E+00  7.511852091771E+00  1.754776799968E+00
    4     5 B    -1.457189915727E+00 -4.913862425966E+00 -1.745223199968E+00
    5     5 B    -5.026600022377E+00 -6.317640937934E+00  1.744733549968E+00
    6     5 B    -3.526775570052E+00 -3.719439455671E+00 -1.755266379968E+00
    7     5 B     2.956895660710E+00 -7.511640893007E+00  1.754776799968E+00
    8     5 B     4.456720113035E+00 -4.913439410743E+00 -1.745223199968E+00
    9     5 B     5.027106402018E+00  6.316920761880E+00  1.754776729968E+00
   10     5 B    -6.484427038713E+00  1.402095223360E+00 -1.745223269968E+00
   11     5 B     5.026849839389E+00 -6.315953093665E+00  1.744733619968E+00
   12     5 B     6.526674291714E+00 -3.717751611402E+00 -1.755266379968E+00
   13     1 H    -1.261537846051E+00  5.369557952060E+00  1.733955229969E+00
   14     1 H     2.382866062745E-01 -7.056156565676E+00 -1.766044769968E+00
   15     1 H     1.257342775570E+00 -5.367408149391E+00  1.730771279969E+00
   16     1 H     2.757167227895E+00 -2.769206667127E+00 -1.769228789968E+00
   17     1 H    -1.262477258281E+00 -5.369860575884E+00  1.730281209969E+00
   18     1 H     2.373471940444E-01 -2.771659093620E+00 -1.769718789968E+00
   19     1 H     1.258665380882E+00  5.368391997772E+00  1.730403429969E+00
   20     1 H     2.758489833207E+00 -7.057322519964E+00 -1.769596569968E+00
   21     1 H    -4.020091775027E+00  3.777993136383E+00  1.766044909968E+00
   22     1 H    -2.520267322702E+00  6.376194618647E+00 -1.733955089969E+00
   23     1 H     4.019591389885E+00 -3.771096546471E+00  1.769229139968E+00
   24     1 H     5.519415842210E+00 -1.172895064207E+00 -1.730770929969E+00
   25     1 H     5.280915936062E+00 -1.590383664204E+00  1.769719419968E+00
   26     1 H     6.780740388387E+00  1.007817818060E+00 -1.730280579969E+00
   27     1 H    -5.278552790151E+00  1.594964229472E+00  1.769596359968E+00
   28     1 H    -3.778728337826E+00  4.193165711736E+00 -1.730403639969E+00
   29     1 H    -4.019566828637E+00 -3.778586872024E+00  1.733955439969E+00
   30     1 H    -2.519742376312E+00 -1.180385389760E+00 -1.766044629968E+00
   31     1 H     4.020009266337E+00  3.773252741719E+00  1.730771069969E+00
   32     1 H    -7.491524174395E+00 -1.141572796801E+00 -1.769228929968E+00
   33     1 H     5.280533225747E+00  1.591501348007E+00  1.730280789969E+00
   34     1 H    -6.231000214984E+00 -3.323324190513E+00 -1.769719209968E+00
   35     1 H    -5.278830239103E+00 -1.595795696973E+00  1.730403849969E+00
   36     1 H    -3.779005786778E+00  1.002405785291E+00 -1.769596149968E+00
   37     6 C    -1.406657576283E+00  7.511810584744E+00  1.744366119968E+00
   38     6 C     9.316687604192E-02 -4.913903932992E+00 -1.755633879968E+00
   39     6 C    -6.962530278628E-01  6.303082887312E+00  1.734445159969E+00
   40     6 C     8.035714244622E-01 -6.122631630425E+00 -1.765554839968E+00
   41     6 C     6.946482514824E-01 -6.302617071447E+00  1.733588149969E+00
   42     6 C     2.194472703807E+00 -3.704415589184E+00 -1.766411849968E+00
   43     6 C    -6.967344517504E-01 -6.303108578175E+00  1.736160159968E+00
   44     6 C     8.030900005746E-01 -3.704907095912E+00 -1.763839839968E+00
   45     6 C     6.951455541731E-01  6.303133005810E+00  1.729546139969E+00
   46     6 C     2.194970006498E+00 -6.122581511926E+00 -1.770453859968E+00
   47     6 C     1.405689939282E+00 -7.511586597577E+00  1.736282589968E+00
   48     6 C     2.905514391607E+00 -4.913385115313E+00 -1.763717479968E+00
   49     6 C     7.208801448543E+00 -2.536224614076E+00  1.755634159968E+00
   50     6 C    -4.302731992188E+00 -7.451050152596E+00 -1.744365839968E+00
   51     6 C    -5.111153334997E+00  3.755053547925E+00  1.765554909968E+00
   52     6 C    -3.611328882671E+00  6.353255030189E+00 -1.734445089969E+00
   53     6 C     5.110840320438E+00 -3.751605363415E+00  1.766412199968E+00
   54     6 C     6.610664772763E+00 -1.153403881152E+00 -1.733587799969E+00
   55     6 C     5.806803677224E+00 -2.546701543680E+00  1.763840259968E+00
   56     6 C     7.306628129549E+00  5.149993858335E-02 -1.736159739968E+00
   57     6 C    -5.806753549731E+00  2.550050061225E+00  1.770453929968E+00
   58     6 C    -4.306929097406E+00  5.148251543489E+00 -1.729546139969E+00
   59     6 C     5.802123882392E+00 -4.972027185443E+00  1.763717619968E+00
   60     6 C     7.301948334717E+00 -2.373825703179E+00 -1.736282379968E+00
   61     6 C     7.208872384396E+00  2.537402443950E+00  1.744366119968E+00
   62     6 C    -4.302661056335E+00 -2.377423094570E+00 -1.755633879968E+00
   63     6 C    -5.110732091212E+00 -3.756098133880E+00  1.734445369969E+00
   64     6 C    -3.610907638887E+00 -1.157896651617E+00 -1.765554559968E+00
   65     6 C     5.111161770752E+00  3.752788606806E+00  1.733587939969E+00
   66     6 C    -6.400371669980E+00 -1.162036931714E+00 -1.766412059968E+00
   67     6 C     5.806799572430E+00  2.547717573651E+00  1.736159879968E+00
   68     6 C    -5.704733868302E+00 -2.367107964869E+00 -1.763840119968E+00
   69     6 C    -5.806413736220E+00 -2.551149310766E+00  1.729546349969E+00
   70     6 C    -4.306589283894E+00  4.705217149748E-02 -1.770453649968E+00
   71     6 C     5.802541214958E+00  4.973056227932E+00  1.736282589968E+00
   72     6 C    -5.708992225774E+00  5.823068941269E-02 -1.763717479968E+00
   73     8 O     7.295941912750E+00  6.239929581478E-04  1.747428059968E+00
   74     8 O    -4.215591527982E+00 -4.914201545562E+00 -1.752571939968E+00
   75     8 O    -3.647325484808E+00  6.317810137859E+00  1.768616709968E+00
   76     8 O    -2.147501032483E+00 -6.107904379877E+00 -1.731383219969E+00
   77     8 O    -3.647355082753E+00 -6.318110275376E+00  1.736650089968E+00
   78     8 O    -2.147530630428E+00 -3.719908793112E+00 -1.763349909968E+00
   79     8 O     3.647398811311E+00 -6.317434297791E+00  1.747428129968E+00
   80     8 O     5.147223263636E+00 -3.719232815528E+00 -1.752571869968E+00
   81     8 O     3.647651967295E+00  6.318201341122E+00  1.768616709968E+00
   82     8 O     5.147476419620E+00 -6.107513176614E+00 -1.731383289969E+00
   83     8 O    -7.295942552922E+00 -5.566451173632E-04  1.736650019968E+00
   84     8 O    -5.796118100597E+00  2.597644837146E+00 -1.763349979968E+00

 *******************************************************************************
 STARTING BASIS SET HANDLING 
 *******************************************************************************

 Loading internal basis set: SOLDEF2MSVP         

 Please cite in your publication:
 L. Dona', J. G. Brandenburg and B. Civalleri, J. Chem. Phys., 151, 121101 (2019
 )                                                                              
                                                                                
                    

 *******************************************************************************
 LOCAL ATOMIC FUNCTIONS BASIS SET
 *******************************************************************************
   ATOM   X(AU)   Y(AU)   Z(AU)  N. TYPE  EXPONENT  S COEF   P COEF   D/F/G COEF
 *******************************************************************************
   1 B   -9.499  11.937   3.316
                                  1 S  
                                         2.410E+03 1.755E-03 0.000E+00 0.000E+00
                                         3.619E+02 1.344E-02 0.000E+00 0.000E+00
                                         8.231E+01 6.637E-02 0.000E+00 0.000E+00
                                         2.311E+01 2.303E-01 0.000E+00 0.000E+00
                                         7.252E+00 5.150E-01 0.000E+00 0.000E+00
                                  2 S  
                                         2.367E+00 1.000E+00 0.000E+00 0.000E+00
                                  3 S  
                                         5.533E-01 1.000E+00 0.000E+00 0.000E+00
                                  4 S  
                                         1.716E-01 1.000E+00 0.000E+00 0.000E+00
                           5-     7 P  
                                         6.002E+00 0.000E+00-3.555E-02 0.000E+00
                                         1.240E+00 0.000E+00-1.983E-01 0.000E+00
                                         3.367E-01 0.000E+00-5.048E-01 0.000E+00
                           8-    10 P  
                                         1.256E-01 0.000E+00 1.000E+00 0.000E+00
                          11-    15 D  
                                         8.880E-01 0.000E+00 0.000E+00 1.000E+00
   2 B   -6.665 -11.544  -3.298
   3 B   -5.588  14.195   3.316
   4 B   -2.754  -9.286  -3.298
   5 B   -9.499 -11.939   3.297
   6 B   -6.665  -7.029  -3.317
   7 B    5.588 -14.195   3.316
   8 B    8.422  -9.285  -3.298
   9 B    9.500  11.937   3.316
  10 B  -12.254   2.650  -3.298
  11 B    9.499 -11.935   3.297
  12 B   12.334  -7.026  -3.317
  13 H   -2.384  10.147   3.277
                                181 S  
                                         1.874E+01 1.968E-02 0.000E+00 0.000E+00
                                         2.826E+00 1.380E-01 0.000E+00 0.000E+00
                                         6.401E-01 4.783E-01 0.000E+00 0.000E+00
                                182 S  
                                         1.756E-01 1.000E+00 0.000E+00 0.000E+00
  14 H    0.450 -13.334  -3.337
  15 H    2.376 -10.143   3.271
  16 H    5.210  -5.233  -3.343
  17 H   -2.386 -10.148   3.270
  18 H    0.449  -5.238  -3.344
  19 H    2.379  10.145   3.270
  20 H    5.213 -13.336  -3.344
  21 H   -7.597   7.139   3.337
  22 H   -4.763  12.049  -3.277
  23 H    7.596  -7.126   3.343
  24 H   10.430  -2.216  -3.271
  25 H    9.979  -3.005   3.344
  26 H   12.814   1.904  -3.270
  27 H   -9.975   3.014   3.344
  28 H   -7.141   7.924  -3.270
  29 H   -7.596  -7.140   3.277
  30 H   -4.762  -2.231  -3.337
  31 H    7.597   7.130   3.271
  32 H  -14.157  -2.157  -3.343
  33 H    9.979   3.008   3.270
  34 H  -11.775  -6.280  -3.344
  35 H   -9.976  -3.016   3.270
  36 H   -7.141   1.894  -3.344
  37 C   -2.658  14.195   3.296
                                229 S  
                                         3.624E+03 1.634E-03 0.000E+00 0.000E+00
                                         5.440E+02 1.252E-02 0.000E+00 0.000E+00
                                         1.237E+02 6.211E-02 0.000E+00 0.000E+00
                                         3.476E+01 2.182E-01 0.000E+00 0.000E+00
                                         1.093E+01 4.980E-01 0.000E+00 0.000E+00
                                230 S  
                                         3.574E+00 1.000E+00 0.000E+00 0.000E+00
                                231 S  
                                         7.742E-01 1.000E+00 0.000E+00 0.000E+00
                                232 S  
                                         2.330E-01 1.000E+00 0.000E+00 0.000E+00
                         233-   235 P  
                                         9.443E+00 0.000E+00 3.790E-02 0.000E+00
                                         2.002E+00 0.000E+00 2.082E-01 0.000E+00
                                         5.463E-01 0.000E+00 5.047E-01 0.000E+00
                         236-   238 P  
                                         1.820E-01 0.000E+00 1.000E+00 0.000E+00
                         239-   243 D  
                                         8.880E-01 0.000E+00 0.000E+00 1.000E+00
  38 C    0.176  -9.286  -3.318
  39 C   -1.316  11.911   3.278
  40 C    1.519 -11.570  -3.336
  41 C    1.313 -11.910   3.276
  42 C    4.147  -7.000  -3.338
  43 C   -1.317 -11.911   3.281
  44 C    1.518  -7.001  -3.333
  45 C    1.314  11.911   3.268
  46 C    4.148 -11.570  -3.346
  47 C    2.656 -14.195   3.281
  48 C    5.491  -9.285  -3.333
  49 C   13.623  -4.793   3.318
  50 C   -8.131 -14.080  -3.296
  51 C   -9.659   7.096   3.336
  52 C   -6.824  12.006  -3.278
  53 C    9.658  -7.090   3.338
  54 C   12.492  -2.180  -3.276
  55 C   10.973  -4.813   3.333
  56 C   13.808   0.097  -3.281
  57 C  -10.973   4.819   3.346
  58 C   -8.139   9.729  -3.268
  59 C   10.964  -9.396   3.333
  60 C   13.799  -4.486  -3.281
  61 C   13.623   4.795   3.296
  62 C   -8.131  -4.493  -3.318
  63 C   -9.658  -7.098   3.278
  64 C   -6.824  -2.188  -3.336
  65 C    9.659   7.092   3.276
  66 C  -12.095  -2.196  -3.338
  67 C   10.973   4.814   3.281
  68 C  -10.780  -4.473  -3.333
  69 C  -10.973  -4.821   3.268
  70 C   -8.138   0.089  -3.346
  71 C   10.965   9.398   3.281
  72 C  -10.788   0.110  -3.333
  73 O   13.787   0.001   3.302
                                769 S  
                                         6.773E+03 1.727E-03 0.000E+00 0.000E+00
                                         1.017E+03 1.325E-02 0.000E+00 0.000E+00
                                         2.313E+02 6.603E-02 0.000E+00 0.000E+00
                                         6.501E+01 2.353E-01 0.000E+00 0.000E+00
                                         2.050E+01 5.498E-01 0.000E+00 0.000E+00
                                770 S  
                                         6.716E+00 1.000E+00 0.000E+00 0.000E+00
                                771 S  
                                         1.147E+00 1.000E+00 0.000E+00 0.000E+00
                                772 S  
                                         3.342E-01 1.000E+00 0.000E+00 0.000E+00
                         773-   775 P  
                                         1.769E+01 0.000E+00 4.359E-02 0.000E+00
                                         3.854E+00 0.000E+00 2.318E-01 0.000E+00
                                         1.047E+00 0.000E+00 5.146E-01 0.000E+00
                         776-   778 P  
                                         2.759E-01 0.000E+00 1.000E+00 0.000E+00
                         779-   783 D  
                                         8.000E-01 0.000E+00 0.000E+00 1.000E+00
  74 O   -7.966  -9.286  -3.312
  75 O   -6.892  11.939   3.342
  76 O   -4.058 -11.542  -3.272
  77 O   -6.893 -11.939   3.282
  78 O   -4.058  -7.030  -3.332
  79 O    6.893 -11.938   3.302
  80 O    9.727  -7.028  -3.312
  81 O    6.893  11.940   3.342
  82 O    9.727 -11.542  -3.272
  83 O  -13.787  -0.001   3.282
  84 O  -10.953   4.909  -3.332

 *******************************************************************************
 FINISHED BASIS SET HANDLING 
 *******************************************************************************

 INFORMATION **** SET_MPP **** PCRYSTAL CALCULATION
 INFORMATION **** READM2 **** NEW DEFAULT: FOCK/KS MATRIX MIXING SET TO 30 %
 INFORMATION **** READM2 **** NEW DEFAULT: FULL DIRECT SCF MODE
 INFORMATION **** READM2 **** NEW DEFAULT: COULOMB BIPOLAR BUFFER SET TO 32 Mb
 INFORMATION **** READM2 **** NEW DEFAULT: EXCHANGE BIPOLAR BUFFER SET TO 32 Mb

 *******************************************************************************
 NEW DEFAULT: DFT INTEGRATION GRID INCREASED TO XLGRID
 NEW DEFAULT: DIIS ACCELERATOR ACTIVE
 USE KEYWORD NODIIS TO TURN IT OFF
 *******************************************************************************

 WARNING **** RDDFTP **** HSEsol-HJS ACTIVE
 RANGE SEPARATION - OMEGA:   0.110000000000000     
 WARNING **** RDDFTP **** HSEsol-3c has to be combined with sol-def2-mSVP basis set
 *******************************************************************************
 N. OF ATOMS PER CELL        84  COULOMB OVERLAP TOL         (T1) 10**   -6
 NUMBER OF SHELLS           468  COULOMB PENETRATION TOL     (T2) 10**   -6
 NUMBER OF AO               948  EXCHANGE OVERLAP TOL        (T3) 10**   -6
 N. OF ELECTRONS PER CELL   396  EXCHANGE PSEUDO OVP (F(G))  (T4) 10**   -6
 CORE ELECTRONS PER CELL    120  EXCHANGE PSEUDO OVP (P(G))  (T5) 10**  -12
 N. OF SYMMETRY OPERATORS     1  POLE ORDER IN MONO ZONE                  4
 *******************************************************************************
 TYPE OF CALCULATION :  RESTRICTED CLOSED SHELL
 KOHN-SHAM HAMILTONIAN

 (EXCHANGE)[CORRELATION] FUNCTIONAL:(HSEsol GGA)[PBEsol]

 RANGE-SEPARATED HYBRID FUNCTIONAL 
 OMEGA (SHORT-RANGE)[LONG-RANGE]:(    0.1100)[    0.0000]

 HYBRID EXCHANGE - PERCENTAGE OF FOCK EXCHANGE    25.0000

 CAPPA:IS1  2;IS2  2;IS3  8; K PTS MONK NET  20; SYMMOPS:K SPACE   2;G SPACE   1

 *******************************************************************************
 MAX NUMBER OF SCF CYCLES      50  CONVERGENCE ON DELTAP        10**-16
 WEIGHT OF F(I) IN F(I+1)      30% CONVERGENCE ON ENERGY        10**- 6
 SHRINK. FACT.(MONKH.)    2  2  8  NUMBER OF K POINTS IN THE IBZ     20
 SHRINKING FACTOR(GILAT NET)    8  NUMBER OF K POINTS(GILAT NET)   1028
 *******************************************************************************
 *** K POINTS COORDINATES (OBLIQUE COORDINATES IN UNITS OF IS =  2)
   1-R(  0  0  0)   2-R(  1  0  0)   3-R(  0  1  0)   4-R(  1  1  0)
   5-C(  0  0  1)   6-C(  1  0  1)   7-C(  0  1  1)   8-C(  1  1  1)
   9-C(  0  0  2)  10-C(  1  0  2)  11-C(  0  1  2)  12-C(  1  1  2)
  13-C(  0  0  3)  14-C(  1  0  3)  15-C(  0  1  3)  16-C(  1  1  3)
  17-R(  0  0  4)  18-R(  1  0  4)  19-R(  0  1  4)  20-R(  1  1  4)

 DIRECT LATTICE VECTORS COMPON. (A.U.)     RECIP. LATTICE VECTORS COMPON. (A.U.) 
        X            Y            Z              X            Y            Z
   24.5879030  -14.1935232    0.0000000      0.2555397    0.0000000    0.0000005
    0.0000000   28.3910867    0.0000000      0.1277517    0.2213084    0.0000015
   -0.0000281   -0.0000746   13.2280829      0.0000000    0.0000000    0.4749884

 DISK SPACE FOR EIGENVECTORS (FTN 10)    28758528 REALS

 SYMMETRY ADAPTION OF THE BLOCH FUNCTIONS DISABLED
 TTTTTTTTTTTTTTTTTTTTTTTTTTTTTT gordsh1     TELAPSE        0.05 TCPU        0.05

 MATRIX SIZE: P(G)  749998, F(G)  148588, P(G) IRR  377045, F(G) IRR  149620
 MAX G-VECTOR INDEX FOR 1- AND 2-ELECTRON INTEGRALS  65

 TTTTTTTTTTTTTTTTTTTTTTTTTTTTTT INPUT       TELAPSE        2.86 TCPU        2.86

 NEIGHBORS OF THE NON-EQUIVALENT ATOMS

 N = NUMBER OF NEIGHBORS AT DISTANCE R
    ATOM  N     R/ANG      R/AU   NEIGHBORS (ATOM LABELS AND CELL INDICES)
   1 B    1     1.3791     2.6061   73 O   -1 0 0
   1 B    1     1.3793     2.6065   75 O    0 0 0
   1 B    1     1.5503     2.9297   49 C   -1 0 0
   1 B    1     2.3895     4.5155    5 B    0 1 0
   1 B    1     2.3898     4.5160    3 B    0 0 0
   1 B    1     2.5632     4.8437   51 C    0 0 0

   2 B    1     1.3791     2.6061   74 O    0 0 0
   2 B    1     1.3793     2.6065   76 O    0 0 0
   2 B    1     1.5503     2.9297   50 C    0 0 0
   2 B    1     2.3895     4.5155    6 B    0 0 0
   2 B    1     2.3898     4.5160    4 B    0 0 0
   2 B    1     2.5632     4.8437   52 C    0-1 0

   3 B    1     1.3793     2.6065   77 O    0 1 0
   3 B    1     1.3793     2.6065   75 O    0 0 0
   3 B    1     1.5504     2.9298   37 C    0 0 0
   3 B    1     2.3895     4.5156    5 B    0 1 0
   3 B    1     2.3898     4.5160    1 B    0 0 0
   3 B    1     2.5634     4.8440   43 C    0 1 0

   4 B    1     1.3793     2.6065   78 O    0 0 0
   4 B    1     1.3793     2.6065   76 O    0 0 0
   4 B    1     1.5504     2.9298   38 C    0 0 0
   4 B    1     2.3895     4.5156    6 B    0 0 0
   4 B    1     2.3898     4.5160    2 B    0 0 0
   4 B    1     2.5634     4.8440   44 C    0 0 0

   5 B    1     1.3791     2.6061   73 O   -1-1 0
   5 B    1     1.3793     2.6064   77 O    0 0 0
   5 B    1     1.5502     2.9294   61 C   -1-1 0
   5 B    1     2.3895     4.5155    1 B    0-1 0
   5 B    1     2.3895     4.5156    3 B    0-1 0
   5 B    1     2.5629     4.8433   63 C    0 0 0

   6 B    1     1.3791     2.6061   74 O    0 0 0
   6 B    1     1.3793     2.6064   78 O    0 0 0
   6 B    1     1.5502     2.9294   62 C    0 0 0
   6 B    1     2.3895     4.5155    2 B    0 0 0
   6 B    1     2.3895     4.5156    4 B    0 0 0
   6 B    1     2.5629     4.8433   64 C    0 0 0

   7 B    1     1.3795     2.6068   79 O    0 0 0
   7 B    1     1.3795     2.6070   81 O    0-1 0
   7 B    1     1.5513     2.9316   47 C    0 0 0
   7 B    1     2.3905     4.5174   11 B    0 0 0
   7 B    1     2.3905     4.5175    9 B    0-1 0
   7 B    1     2.5648     4.8468   45 C    0-1 0

   8 B    1     1.3795     2.6068   80 O    0 0 0
   8 B    1     1.3795     2.6070   82 O    0 0 0
   8 B    1     1.5513     2.9316   48 C    0 0 0
   8 B    1     2.3905     4.5174   12 B    0 0 0
   8 B    1     2.3905     4.5175   10 B    1 0 0
   8 B    1     2.5648     4.8468   46 C    0 0 0

   9 B    1     1.3795     2.6069   81 O    0 0 0
   9 B    1     1.3797     2.6072   83 O    1 1 0
   9 B    1     1.5516     2.9322   71 C    0 0 0
   9 B    1     2.3905     4.5175    7 B    0 1 0
   9 B    1     2.3911     4.5185   11 B    0 1 0
   9 B    1     2.5651     4.8473   69 C    1 1 0

  10 B    1     1.3795     2.6069   82 O   -1 0 0
  10 B    1     1.3797     2.6072   84 O    0 0 0
  10 B    1     1.5516     2.9322   72 C    0 0 0
  10 B    1     2.3905     4.5175    8 B   -1 0 0
  10 B    1     2.3911     4.5185   12 B   -1 0 0
  10 B    1     2.5651     4.8473   70 C    0 0 0

  11 B    1     1.3795     2.6068   79 O    0 0 0
  11 B    1     1.3796     2.6071   83 O    1 0 0
  11 B    1     1.5516     2.9322   59 C    0 0 0
  11 B    1     2.3905     4.5174    7 B    0 0 0
  11 B    1     2.3911     4.5185    9 B    0-1 0
  11 B    1     2.5651     4.8473   57 C    1 0 0

  12 B    1     1.3795     2.6068   80 O    0 0 0
  12 B    1     1.3796     2.6071   84 O    1 0 0
  12 B    1     1.5516     2.9322   60 C    0 0 0
  12 B    1     2.3905     4.5174    8 B    0 0 0
  12 B    1     2.3911     4.5185   10 B    1 0 0
  12 B    1     2.5651     4.8473   58 C    1 0 0

  13 H    1     1.0913     2.0623   39 C    0 0 0
  13 H    1     2.1472     4.0576   37 C    0 0 0
  13 H    1     2.1680     4.0969   45 C    0 0 0
  13 H    1     2.5202     4.7625   19 H    0 0 0
  13 H    1     2.5676     4.8520   75 O    0 0 0
  13 H    1     2.7321     5.1630    3 B    0 0 0

  14 H    1     1.0913     2.0623   40 C    0 0 0
  14 H    1     2.1472     4.0576   38 C    0 0 0
  14 H    1     2.1680     4.0969   46 C    0 0 0
  14 H    1     2.5202     4.7625   20 H    0 0 0
  14 H    1     2.5676     4.8520   76 O    0 0 0
  14 H    1     2.7321     5.1630    4 B    0 0 0

  15 H    1     1.0914     2.0625   41 C    0 0 0
  15 H    1     2.1493     4.0616   47 C    0 0 0
  15 H    1     2.1666     4.0942   43 C    0 0 0
  15 H    1     2.5198     4.7618   17 H    0 0 0
  15 H    1     2.5720     4.8604   79 O    0 0 0
  15 H    1     2.7362     5.1707    7 B    0 0 0

  16 H    1     1.0914     2.0625   42 C    0 0 0
  16 H    1     2.1493     4.0616   48 C    0 0 0
  16 H    1     2.1666     4.0942   44 C    0 0 0
  16 H    1     2.5198     4.7618   18 H    0 0 0
  16 H    1     2.5720     4.8604   80 O    0 0 0
  16 H    1     2.7362     5.1707    8 B    0 0 0

  17 H    1     1.0914     2.0624   43 C    0 0 0
  17 H    1     2.1471     4.0575   37 C    0-1 0
  17 H    1     2.1680     4.0970   41 C    0 0 0
  17 H    1     2.5198     4.7618   15 H    0 0 0
  17 H    1     2.5665     4.8500   77 O    0 0 0
  17 H    1     2.7315     5.1618    3 B    0-1 0

  18 H    1     1.0914     2.0624   44 C    0 0 0
  18 H    1     2.1471     4.0575   38 C    0 0 0
  18 H    1     2.1680     4.0970   42 C    0 0 0
  18 H    1     2.5198     4.7618   16 H    0 0 0
  18 H    1     2.5665     4.8500   78 O    0 0 0
  18 H    1     2.7315     5.1618    4 B    0 0 0

  19 H    1     1.0915     2.0626   45 C    0 0 0
  19 H    1     2.1490     4.0610   47 C    0 1 0
  19 H    1     2.1669     4.0948   39 C    0 0 0
  19 H    1     2.5202     4.7625   13 H    0 0 0
  19 H    1     2.5712     4.8588   81 O    0 0 0
  19 H    1     2.7351     5.1686    7 B    0 1 0

  20 H    1     1.0915     2.0626   46 C    0 0 0
  20 H    1     2.1490     4.0610   48 C    0 0 0
  20 H    1     2.1669     4.0948   40 C    0 0 0
  20 H    1     2.5202     4.7625   14 H    0 0 0
  20 H    1     2.5712     4.8588   82 O    0 0 0
  20 H    1     2.7351     5.1686    8 B    0 0 0

  21 H    1     1.0913     2.0623   51 C    0 0 0
  21 H    1     2.1469     4.0571   49 C   -1 0 0
  21 H    1     2.1680     4.0968   57 C    0 0 0
  21 H    1     2.5198     4.7617   27 H    0 0 0
  21 H    1     2.5670     4.8510   75 O    0 0 0
  21 H    1     2.7310     5.1609    1 B    0 0 0

  22 H    1     1.0913     2.0623   52 C    0 0 0
  22 H    1     2.1469     4.0571   50 C    0 1 0
  22 H    1     2.1680     4.0968   58 C    0 0 0
  22 H    1     2.5198     4.7617   28 H    0 0 0
  22 H    1     2.5670     4.8510   76 O    0 1 0
  22 H    1     2.7310     5.1609    2 B    0 1 0

  23 H    1     1.0914     2.0625   53 C    0 0 0
  23 H    1     2.1493     4.0617   59 C    0 0 0
  23 H    1     2.1664     4.0939   55 C    0 0 0
  23 H    1     2.5192     4.7606   25 H    0 0 0
  23 H    1     2.5735     4.8632   79 O    0 0 0
  23 H    1     2.7371     5.1723   11 B    0 0 0

  24 H    1     1.0914     2.0625   54 C    0 0 0
  24 H    1     2.1493     4.0617   60 C    0 0 0
  24 H    1     2.1664     4.0939   56 C    0 0 0
  24 H    1     2.5192     4.7606   26 H    0 0 0
  24 H    1     2.5735     4.8632   80 O    0 0 0
  24 H    1     2.7371     5.1723   12 B    0 0 0

  25 H    1     1.0914     2.0624   55 C    0 0 0
  25 H    1     2.1475     4.0581   49 C    0 0 0
  25 H    1     2.1679     4.0967   53 C    0 0 0
  25 H    1     2.5192     4.7606   23 H    0 0 0
  25 H    1     2.5675     4.8519   73 O    0 0 0
  25 H    1     2.7328     5.1643    1 B    1 0 0

  26 H    1     1.0914     2.0624   56 C    0 0 0
  26 H    1     2.1475     4.0581   50 C    1 1 0
  26 H    1     2.1679     4.0967   54 C    0 0 0
  26 H    1     2.5192     4.7606   24 H    0 0 0
  26 H    1     2.5675     4.8519   74 O    1 1 0
  26 H    1     2.7328     5.1643    2 B    1 1 0

  27 H    1     1.0914     2.0625   57 C    0 0 0
  27 H    1     2.1491     4.0612   59 C   -1 0 0
  27 H    1     2.1666     4.0942   51 C    0 0 0
  27 H    1     2.5198     4.7617   21 H    0 0 0
  27 H    1     2.5723     4.8609   83 O    0 0 0
  27 H    1     2.7355     5.1693   11 B   -1 0 0

  28 H    1     1.0914     2.0625   58 C    0 0 0
  28 H    1     2.1491     4.0612   60 C   -1 0 0
  28 H    1     2.1666     4.0942   52 C    0 0 0
  28 H    1     2.5198     4.7617   22 H    0 0 0
  28 H    1     2.5723     4.8609   84 O    0 0 0
  28 H    1     2.7355     5.1693   12 B   -1 0 0

  29 H    1     1.0914     2.0624   63 C    0 0 0
  29 H    1     2.1475     4.0582   61 C   -1-1 0
  29 H    1     2.1678     4.0966   69 C    0 0 0
  29 H    1     2.5200     4.7621   35 H    0 0 0
  29 H    1     2.5667     4.8503   77 O    0 0 0
  29 H    1     2.7315     5.1618    5 B    0 0 0

  30 H    1     1.0914     2.0624   64 C    0 0 0
  30 H    1     2.1475     4.0582   62 C    0 0 0
  30 H    1     2.1678     4.0966   70 C    0 0 0
  30 H    1     2.5200     4.7621   36 H    0 0 0
  30 H    1     2.5667     4.8503   78 O    0 0 0
  30 H    1     2.7315     5.1618    6 B    0 0 0

  31 H    1     1.0913     2.0623   65 C    0 0 0
  31 H    1     2.1487     4.0605   71 C    0 0 0
  31 H    1     2.1667     4.0945   67 C    0 0 0
  31 H    1     2.5197     4.7616   33 H    0 0 0
  31 H    1     2.5723     4.8610   81 O    0 0 0
  31 H    1     2.7359     5.1701    9 B    0 0 0

  32 H    1     1.0913     2.0623   66 C    0 0 0
  32 H    1     2.1487     4.0605   72 C    0 0 0
  32 H    1     2.1667     4.0945   68 C    0 0 0
  32 H    1     2.5197     4.7616   34 H    0 0 0
  32 H    1     2.5723     4.8610   82 O   -1 0 0
  32 H    1     2.7359     5.1701   10 B    0 0 0

  33 H    1     1.0915     2.0626   67 C    0 0 0
  33 H    1     2.1479     4.0589   61 C    0 0 0
  33 H    1     2.1679     4.0968   65 C    0 0 0
  33 H    1     2.5197     4.7616   31 H    0 0 0
  33 H    1     2.5677     4.8522   73 O    0 0 0
  33 H    1     2.7331     5.1648    5 B    1 1 0

  34 H    1     1.0915     2.0626   68 C    0 0 0
  34 H    1     2.1479     4.0589   62 C    0 0 0
  34 H    1     2.1679     4.0968   66 C    0 0 0
  34 H    1     2.5197     4.7616   32 H    0 0 0
  34 H    1     2.5677     4.8522   74 O    0 0 0
  34 H    1     2.7331     5.1648    6 B    0 0 0

  35 H    1     1.0914     2.0624   69 C    0 0 0
  35 H    1     2.1486     4.0602   71 C   -1-1 0
  35 H    1     2.1668     4.0947   63 C    0 0 0
  35 H    1     2.5200     4.7621   29 H    0 0 0
  35 H    1     2.5717     4.8598   83 O    0 0 0
  35 H    1     2.7349     5.1682    9 B   -1-1 0

  36 H    1     1.0914     2.0624   70 C    0 0 0
  36 H    1     2.1486     4.0602   72 C    0 0 0
  36 H    1     2.1668     4.0947   64 C    0 0 0
  36 H    1     2.5200     4.7621   30 H    0 0 0
  36 H    1     2.5717     4.8598   84 O    0 0 0
  36 H    1     2.7349     5.1682   10 B    0 0 0

  37 C    1     1.4020     2.6495   43 C    0 1 0
  37 C    1     1.4021     2.6495   39 C    0 0 0
  37 C    1     1.5504     2.9298    3 B    0 0 0
  37 C    1     2.1471     4.0575   17 H    0 1 0
  37 C    1     2.1472     4.0576   13 H    0 0 0
  37 C    1     2.4246     4.5817   41 C    0 1 0

  38 C    1     1.4020     2.6495   44 C    0 0 0
  38 C    1     1.4021     2.6495   40 C    0 0 0
  38 C    1     1.5504     2.9298    4 B    0 0 0
  38 C    1     2.1471     4.0575   18 H    0 0 0
  38 C    1     2.1472     4.0576   14 H    0 0 0
  38 C    1     2.4246     4.5817   42 C    0 0 0

  39 C    1     1.0913     2.0623   13 H    0 0 0
  39 C    1     1.3914     2.6294   45 C    0 0 0
  39 C    1     1.4021     2.6495   37 C    0 0 0
  39 C    1     2.1669     4.0948   19 H    0 0 0
  39 C    1     2.4177     4.5688   43 C    0 1 0
  39 C    1     2.4250     4.5825   47 C    0 1 0

  40 C    1     1.0913     2.0623   14 H    0 0 0
  40 C    1     1.3914     2.6294   46 C    0 0 0
  40 C    1     1.4021     2.6495   38 C    0 0 0
  40 C    1     2.1669     4.0948   20 H    0 0 0
  40 C    1     2.4177     4.5688   44 C    0 0 0
  40 C    1     2.4250     4.5825   48 C    0 0 0

  41 C    1     1.0914     2.0625   15 H    0 0 0
  41 C    1     1.3914     2.6293   43 C    0 0 0
  41 C    1     1.4026     2.6505   47 C    0 0 0
  41 C    1     2.1680     4.0970   17 H    0 0 0
  41 C    1     2.4182     4.5697   45 C    0-1 0
  41 C    1     2.4246     4.5817   37 C    0-1 0

  42 C    1     1.0914     2.0625   16 H    0 0 0
  42 C    1     1.3914     2.6293   44 C    0 0 0
  42 C    1     1.4026     2.6505   48 C    0 0 0
  42 C    1     2.1680     4.0970   18 H    0 0 0
  42 C    1     2.4182     4.5697   46 C    0 0 0
  42 C    1     2.4246     4.5817   38 C    0 0 0

  43 C    1     1.0914     2.0624   17 H    0 0 0
  43 C    1     1.3914     2.6293   41 C    0 0 0
  43 C    1     1.4020     2.6495   37 C    0-1 0
  43 C    1     2.1666     4.0942   15 H    0 0 0
  43 C    1     2.4177     4.5688   39 C    0-1 0
  43 C    1     2.4250     4.5826   47 C    0 0 0

  44 C    1     1.0914     2.0624   18 H    0 0 0
  44 C    1     1.3914     2.6293   42 C    0 0 0
  44 C    1     1.4020     2.6495   38 C    0 0 0
  44 C    1     2.1666     4.0942   16 H    0 0 0
  44 C    1     2.4177     4.5688   40 C    0 0 0
  44 C    1     2.4250     4.5826   48 C    0 0 0

  45 C    1     1.0915     2.0626   19 H    0 0 0
  45 C    1     1.3914     2.6294   39 C    0 0 0
  45 C    1     1.4025     2.6504   47 C    0 1 0
  45 C    1     2.1680     4.0969   13 H    0 0 0
  45 C    1     2.4182     4.5697   41 C    0 1 0
  45 C    1     2.4246     4.5818   37 C    0 0 0

  46 C    1     1.0915     2.0626   20 H    0 0 0
  46 C    1     1.3914     2.6294   40 C    0 0 0
  46 C    1     1.4025     2.6504   48 C    0 0 0
  46 C    1     2.1680     4.0969   14 H    0 0 0
  46 C    1     2.4182     4.5697   42 C    0 0 0
  46 C    1     2.4246     4.5818   38 C    0 0 0

  47 C    1     1.4025     2.6504   45 C    0-1 0
  47 C    1     1.4026     2.6505   41 C    0 0 0
  47 C    1     1.5513     2.9316    7 B    0 0 0
  47 C    1     2.1490     4.0610   19 H    0-1 0
  47 C    1     2.1493     4.0616   15 H    0 0 0
  47 C    1     2.4250     4.5825   39 C    0-1 0

  48 C    1     1.4025     2.6504   46 C    0 0 0
  48 C    1     1.4026     2.6505   42 C    0 0 0
  48 C    1     1.5513     2.9316    8 B    0 0 0
  48 C    1     2.1490     4.0610   20 H    0 0 0
  48 C    1     2.1493     4.0616   16 H    0 0 0
  48 C    1     2.4250     4.5825   40 C    0 0 0

  49 C    1     1.4020     2.6494   51 C    1 0 0
  49 C    1     1.4021     2.6495   55 C    0 0 0
  49 C    1     1.5503     2.9297    1 B    1 0 0
  49 C    1     2.1469     4.0571   21 H    1 0 0
  49 C    1     2.1475     4.0581   25 H    0 0 0
  49 C    1     2.4246     4.5818   53 C    0 0 0

  50 C    1     1.4020     2.6494   52 C    0-1 0
  50 C    1     1.4021     2.6495   56 C   -1-1 0
  50 C    1     1.5503     2.9297    2 B    0 0 0
  50 C    1     2.1469     4.0571   22 H    0-1 0
  50 C    1     2.1475     4.0581   26 H   -1-1 0
  50 C    1     2.4246     4.5818   54 C   -1-1 0

  51 C    1     1.0913     2.0623   21 H    0 0 0
  51 C    1     1.3914     2.6293   57 C    0 0 0
  51 C    1     1.4020     2.6494   49 C   -1 0 0
  51 C    1     2.1666     4.0942   27 H    0 0 0
  51 C    1     2.4175     4.5684   55 C   -1 0 0
  51 C    1     2.4251     4.5828   59 C   -1 0 0

  52 C    1     1.0913     2.0623   22 H    0 0 0
  52 C    1     1.3914     2.6293   58 C    0 0 0
  52 C    1     1.4020     2.6494   50 C    0 1 0
  52 C    1     2.1666     4.0942   28 H    0 0 0
  52 C    1     2.4175     4.5684   56 C   -1 0 0
  52 C    1     2.4251     4.5828   60 C   -1 0 0

  53 C    1     1.0914     2.0625   23 H    0 0 0
  53 C    1     1.3915     2.6295   55 C    0 0 0
  53 C    1     1.4026     2.6505   59 C    0 0 0
  53 C    1     2.1679     4.0967   25 H    0 0 0
  53 C    1     2.4179     4.5691   57 C    1 0 0
  53 C    1     2.4246     4.5818   49 C    0 0 0

  54 C    1     1.0914     2.0625   24 H    0 0 0
  54 C    1     1.3915     2.6295   56 C    0 0 0
  54 C    1     1.4026     2.6505   60 C    0 0 0
  54 C    1     2.1679     4.0967   26 H    0 0 0
  54 C    1     2.4179     4.5691   58 C    1 0 0
  54 C    1     2.4246     4.5818   50 C    1 1 0

  55 C    1     1.0914     2.0624   25 H    0 0 0
  55 C    1     1.3915     2.6295   53 C    0 0 0
  55 C    1     1.4021     2.6495   49 C    0 0 0
  55 C    1     2.1664     4.0939   23 H    0 0 0
  55 C    1     2.4175     4.5684   51 C    1 0 0
  55 C    1     2.4253     4.5832   59 C    0 0 0

  56 C    1     1.0914     2.0624   26 H    0 0 0
  56 C    1     1.3915     2.6295   54 C    0 0 0
  56 C    1     1.4021     2.6495   50 C    1 1 0
  56 C    1     2.1664     4.0939   24 H    0 0 0
  56 C    1     2.4175     4.5684   52 C    1 0 0
  56 C    1     2.4253     4.5832   60 C    0 0 0

  57 C    1     1.0914     2.0625   27 H    0 0 0
  57 C    1     1.3914     2.6293   51 C    0 0 0
  57 C    1     1.4025     2.6504   59 C   -1 0 0
  57 C    1     2.1680     4.0968   21 H    0 0 0
  57 C    1     2.4179     4.5691   53 C   -1 0 0
  57 C    1     2.4247     4.5819   49 C   -1 0 0

  58 C    1     1.0914     2.0625   28 H    0 0 0
  58 C    1     1.3914     2.6293   52 C    0 0 0
  58 C    1     1.4025     2.6504   60 C   -1 0 0
  58 C    1     2.1680     4.0968   22 H    0 0 0
  58 C    1     2.4179     4.5691   54 C   -1 0 0
  58 C    1     2.4247     4.5819   50 C    0 1 0

  59 C    1     1.4025     2.6504   57 C    1 0 0
  59 C    1     1.4026     2.6505   53 C    0 0 0
  59 C    1     1.5516     2.9322   11 B    0 0 0
  59 C    1     2.1491     4.0612   27 H    1 0 0
  59 C    1     2.1493     4.0617   23 H    0 0 0
  59 C    1     2.4251     4.5828   51 C    1 0 0

  60 C    1     1.4025     2.6504   58 C    1 0 0
  60 C    1     1.4026     2.6505   54 C    0 0 0
  60 C    1     1.5516     2.9322   12 B    0 0 0
  60 C    1     2.1491     4.0612   28 H    1 0 0
  60 C    1     2.1493     4.0617   24 H    0 0 0
  60 C    1     2.4251     4.5828   52 C    1 0 0

  61 C    1     1.4021     2.6496   63 C    1 1 0
  61 C    1     1.4021     2.6497   67 C    0 0 0
  61 C    1     1.5502     2.9294    5 B    1 1 0
  61 C    1     2.1475     4.0582   29 H    1 1 0
  61 C    1     2.1479     4.0589   33 H    0 0 0
  61 C    1     2.4244     4.5814   65 C    0 0 0

  62 C    1     1.4021     2.6496   64 C    0 0 0
  62 C    1     1.4021     2.6497   68 C    0 0 0
  62 C    1     1.5502     2.9294    6 B    0 0 0
  62 C    1     2.1475     4.0582   30 H    0 0 0
  62 C    1     2.1479     4.0589   34 H    0 0 0
  62 C    1     2.4244     4.5814   66 C    0 0 0

  63 C    1     1.0914     2.0624   29 H    0 0 0
  63 C    1     1.3914     2.6293   69 C    0 0 0
  63 C    1     1.4021     2.6496   61 C   -1-1 0
  63 C    1     2.1668     4.0947   35 H    0 0 0
  63 C    1     2.4179     4.5692   67 C   -1-1 0
  63 C    1     2.4251     4.5827   71 C   -1-1 0

  64 C    1     1.0914     2.0624   30 H    0 0 0
  64 C    1     1.3914     2.6293   70 C    0 0 0
  64 C    1     1.4021     2.6496   62 C    0 0 0
  64 C    1     2.1668     4.0947   36 H    0 0 0
  64 C    1     2.4179     4.5692   68 C    0 0 0
  64 C    1     2.4251     4.5827   72 C    0 0 0

  65 C    1     1.0913     2.0623   31 H    0 0 0
  65 C    1     1.3914     2.6294   67 C    0 0 0
  65 C    1     1.4025     2.6504   71 C    0 0 0
  65 C    1     2.1679     4.0968   33 H    0 0 0
  65 C    1     2.4178     4.5690   69 C    1 1 0
  65 C    1     2.4244     4.5814   61 C    0 0 0

  66 C    1     1.0913     2.0623   32 H    0 0 0
  66 C    1     1.3914     2.6294   68 C    0 0 0
  66 C    1     1.4025     2.6504   72 C    0 0 0
  66 C    1     2.1679     4.0968   34 H    0 0 0
  66 C    1     2.4178     4.5690   70 C    0 0 0
  66 C    1     2.4244     4.5814   62 C    0 0 0

  67 C    1     1.0915     2.0626   33 H    0 0 0
  67 C    1     1.3914     2.6294   65 C    0 0 0
  67 C    1     1.4021     2.6497   61 C    0 0 0
  67 C    1     2.1667     4.0945   31 H    0 0 0
  67 C    1     2.4179     4.5692   63 C    1 1 0
  67 C    1     2.4253     4.5832   71 C    0 0 0

  68 C    1     1.0915     2.0626   34 H    0 0 0
  68 C    1     1.3914     2.6294   66 C    0 0 0
  68 C    1     1.4021     2.6497   62 C    0 0 0
  68 C    1     2.1667     4.0945   32 H    0 0 0
  68 C    1     2.4179     4.5692   64 C    0 0 0
  68 C    1     2.4253     4.5832   72 C    0 0 0

  69 C    1     1.0914     2.0624   35 H    0 0 0
  69 C    1     1.3914     2.6293   63 C    0 0 0
  69 C    1     1.4025     2.6503   71 C   -1-1 0
  69 C    1     2.1678     4.0966   29 H    0 0 0
  69 C    1     2.4178     4.5690   65 C   -1-1 0
  69 C    1     2.4245     4.5817   61 C   -1-1 0

  70 C    1     1.0914     2.0624   36 H    0 0 0
  70 C    1     1.3914     2.6293   64 C    0 0 0
  70 C    1     1.4025     2.6503   72 C    0 0 0
  70 C    1     2.1678     4.0966   30 H    0 0 0
  70 C    1     2.4178     4.5690   66 C    0 0 0
  70 C    1     2.4245     4.5817   62 C    0 0 0

  71 C    1     1.4025     2.6503   69 C    1 1 0
  71 C    1     1.4025     2.6504   65 C    0 0 0
  71 C    1     1.5516     2.9322    9 B    0 0 0
  71 C    1     2.1486     4.0602   35 H    1 1 0
  71 C    1     2.1487     4.0605   31 H    0 0 0
  71 C    1     2.4251     4.5827   63 C    1 1 0

  72 C    1     1.4025     2.6503   70 C    0 0 0
  72 C    1     1.4025     2.6504   66 C    0 0 0
  72 C    1     1.5516     2.9322   10 B    0 0 0
  72 C    1     2.1486     4.0602   36 H    0 0 0
  72 C    1     2.1487     4.0605   32 H    0 0 0
  72 C    1     2.4251     4.5827   64 C    0 0 0

  73 O    1     1.3791     2.6061    1 B    1 0 0
  73 O    1     1.3791     2.6061    5 B    1 1 0
  73 O    1     2.3880     4.5126   75 O    1 0 0
  73 O    1     2.3882     4.5130   77 O    1 1 0
  73 O    1     2.5383     4.7966   61 C    0 0 0
  73 O    1     2.5384     4.7968   49 C    0 0 0

  74 O    1     1.3791     2.6061    2 B    0 0 0
  74 O    1     1.3791     2.6061    6 B    0 0 0
  74 O    1     2.3880     4.5126   76 O    0 0 0
  74 O    1     2.3882     4.5130   78 O    0 0 0
  74 O    1     2.5383     4.7966   62 C    0 0 0
  74 O    1     2.5384     4.7968   50 C    0 0 0

  75 O    1     1.3793     2.6065    1 B    0 0 0
  75 O    1     1.3793     2.6065    3 B    0 0 0
  75 O    1     2.3880     4.5126   73 O   -1 0 0
  75 O    1     2.3882     4.5131   77 O    0 1 0
  75 O    1     2.5391     4.7981   37 C    0 0 0
  75 O    1     2.5395     4.7990   49 C   -1 0 0

  76 O    1     1.3793     2.6065    2 B    0 0 0
  76 O    1     1.3793     2.6065    4 B    0 0 0
  76 O    1     2.3880     4.5126   74 O    0 0 0
  76 O    1     2.3882     4.5131   78 O    0 0 0
  76 O    1     2.5391     4.7981   38 C    0 0 0
  76 O    1     2.5395     4.7990   50 C    0 0 0

  77 O    1     1.3793     2.6064    5 B    0 0 0
  77 O    1     1.3793     2.6065    3 B    0-1 0
  77 O    1     2.3882     4.5130   73 O   -1-1 0
  77 O    1     2.3882     4.5131   75 O    0-1 0
  77 O    1     2.5390     4.7980   37 C    0-1 0
  77 O    1     2.5391     4.7982   61 C   -1-1 0

  78 O    1     1.3793     2.6064    6 B    0 0 0
  78 O    1     1.3793     2.6065    4 B    0 0 0
  78 O    1     2.3882     4.5130   74 O    0 0 0
  78 O    1     2.3882     4.5131   76 O    0 0 0
  78 O    1     2.5390     4.7980   38 C    0 0 0
  78 O    1     2.5391     4.7982   62 C    0 0 0

  79 O    1     1.3795     2.6068   11 B    0 0 0
  79 O    1     1.3795     2.6068    7 B    0 0 0
  79 O    1     2.3880     4.5126   83 O    1 0 0
  79 O    1     2.3884     4.5134   81 O    0-1 0
  79 O    1     2.5400     4.7998   47 C    0 0 0
  79 O    1     2.5403     4.8005   59 C    0 0 0

  80 O    1     1.3795     2.6068   12 B    0 0 0
  80 O    1     1.3795     2.6068    8 B    0 0 0
  80 O    1     2.3880     4.5126   84 O    1 0 0
  80 O    1     2.3884     4.5134   82 O    0 0 0
  80 O    1     2.5400     4.7998   48 C    0 0 0
  80 O    1     2.5403     4.8005   60 C    0 0 0

  81 O    1     1.3795     2.6069    9 B    0 0 0
  81 O    1     1.3795     2.6070    7 B    0 1 0
  81 O    1     2.3881     4.5128   83 O    1 1 0
  81 O    1     2.3884     4.5134   79 O    0 1 0
  81 O    1     2.5404     4.8006   47 C    0 1 0
  81 O    1     2.5405     4.8008   71 C    0 0 0

  82 O    1     1.3795     2.6069   10 B    1 0 0
  82 O    1     1.3795     2.6070    8 B    0 0 0
  82 O    1     2.3881     4.5128   84 O    1 0 0
  82 O    1     2.3884     4.5134   80 O    0 0 0
  82 O    1     2.5404     4.8006   48 C    0 0 0
  82 O    1     2.5405     4.8008   72 C    1 0 0

  83 O    1     1.3796     2.6071   11 B   -1 0 0
  83 O    1     1.3797     2.6072    9 B   -1-1 0
  83 O    1     2.3880     4.5126   79 O   -1 0 0
  83 O    1     2.3881     4.5128   81 O   -1-1 0
  83 O    1     2.5409     4.8016   71 C   -1-1 0
  83 O    1     2.5410     4.8019   59 C   -1 0 0

  84 O    1     1.3796     2.6071   12 B   -1 0 0
  84 O    1     1.3797     2.6072   10 B    0 0 0
  84 O    1     2.3880     4.5126   80 O   -1 0 0
  84 O    1     2.3881     4.5128   82 O   -1 0 0
  84 O    1     2.5409     4.8016   72 C    0 0 0
  84 O    1     2.5410     4.8019   60 C   -1 0 0


 SYMMETRY ALLOWED INTERNAL DEGREE(S) OF FREEDOM: 249
 TTTTTTTTTTTTTTTTTTTTTTTTTTTTTT SYMM        TELAPSE        2.87 TCPU        2.86
 TTTTTTTTTTTTTTTTTTTTTTTTTTTTTT INT_SCREEN  TELAPSE        3.08 TCPU        3.07

 DFT PARAMETERS

     ATOM       ELECTRONS   NET CHARGE   R(ANGSTROM)
   1   5  B       5.0000      0.0000     0.89000000
  13   1  H       1.0000      0.0000     1.11000000
  37   6  C       6.0000      0.0000     0.77000000
  73   8  O       8.0000      0.0000     0.74000000

 SIZE OF GRID=    2536922
 TTTTTTTTTTTTTTTTTTTTTTTTTTTTTT MAKE_GRID2  TELAPSE       25.68 TCPU       25.65
 BECKE WEIGHT FUNCTION
 RADSAFE =     2.00
 TOLERANCES - DENSITY:10**- 6; POTENTIAL:10**- 9; GRID WGT:10**-14

 RADIAL INTEGRATION  - INTERVALS (POINTS,UPPER LIMIT):            1( 75,  4.0*R)

 ANGULAR INTEGRATION - INTERVALS (ACCURACY LEVEL [N. POINTS] UPPER LIMIT):
  1(  4[  86]   0.2)  2(  8[ 194]   0.5)  3( 12[ 350]   0.9)  4( 16[ 974]   3.5)
  5( 12[ 350]9999.0)
 TTTTTTTTTTTTTTTTTTTTTTTTTTTTTT INT_CALC    TELAPSE       25.96 TCPU       25.94
 EEEEEEEEEE INT_CALC TERMINATION  DATE 19 02 2026 TIME 20:10:38.1

 *******************************************************************************
 cof-1_z35_L030_serr                                                             
 CRYSTAL - SCF - TYPE OF CALCULATION :  RESTRICTED CLOSED SHELL
 *******************************************************************************

 CAPPA:IS1  2;IS2  2;IS3  8; K PTS MONK NET  20; SYMMOPS:K SPACE   2;G SPACE   1

 TTTTTTTTTTTTTTTTTTTTTTTTTTTTTT SDIK        TELAPSE       27.85 TCPU       52.75

 AAAAAAAAAAAAAAAAAAAAAAAAAAAAAAAAAAAAAAAAAAAAAAAAAAAAAAAAAAAAAAAAAAAAAAAAAAAAAAA
         ATOMIC WAVEFUNCTION(S)


 NUCLEAR CHARGE  5.0  SYMMETRY SPECIES            S    P
 N. ELECTRONS    5.0  NUMBER OF PRIMITIVE GTOS    8    4
                      NUMBER OF CONTRACTED GTOS   4    2
                      NUMBER OF CLOSED SHELLS     2    0
                      OPEN SHELL OCCUPATION       0    1

  ZNUC  SCFIT    TOTAL HF ENERGY   KINETIC ENERGY   VIRIAL THEOREM ACCURACY
   5.0    11    -2.451164084E+01  2.462155050E+01 -1.995536038E+00  1.5E-06

 NUCLEAR CHARGE  1.0  SYMMETRY SPECIES            S
 N. ELECTRONS    1.0  NUMBER OF PRIMITIVE GTOS    4
                      NUMBER OF CONTRACTED GTOS   2
                      NUMBER OF CLOSED SHELLS     0
                      OPEN SHELL OCCUPATION       1

  ZNUC  SCFIT    TOTAL HF ENERGY   KINETIC ENERGY   VIRIAL THEOREM ACCURACY
   1.0     1    -4.977266687E-01  5.190767460E-01 -1.958869132E+00  0.0E+00

 NUCLEAR CHARGE  6.0  SYMMETRY SPECIES            S    P
 N. ELECTRONS    6.0  NUMBER OF PRIMITIVE GTOS    8    4
                      NUMBER OF CONTRACTED GTOS   4    2
                      NUMBER OF CLOSED SHELLS     2    0
                      OPEN SHELL OCCUPATION       0    2

  ZNUC  SCFIT    TOTAL HF ENERGY   KINETIC ENERGY   VIRIAL THEOREM ACCURACY
   6.0     9    -3.766704647E+01  3.775180683E+01 -1.997754800E+00  1.1E-06

 NUCLEAR CHARGE  8.0  SYMMETRY SPECIES            S    P
 N. ELECTRONS    8.0  NUMBER OF PRIMITIVE GTOS    8    4
                      NUMBER OF CONTRACTED GTOS   4    2
                      NUMBER OF CLOSED SHELLS     2    0
                      OPEN SHELL OCCUPATION       0    4

  ZNUC  SCFIT    TOTAL HF ENERGY   KINETIC ENERGY   VIRIAL THEOREM ACCURACY
   8.0    12    -7.477373220E+01  7.477365593E+01 -2.000001020E+00  3.8E-06

 AAAAAAAAAAAAAAAAAAAAAAAAAAAAAAAAAAAAAAAAAAAAAAAAAAAAAAAAAAAAAAAAAAAAAAAAAAAAAAA

 CHARGE NORMALIZATION FACTOR   1.00000000
 TOTAL ATOMIC CHARGES:
   5.0000000   5.0000000   5.0000000   5.0000000   5.0000000   5.0000000
   5.0000000   5.0000000   5.0000000   5.0000000   5.0000000   5.0000000
   1.0000000   1.0000000   1.0000000   1.0000000   1.0000000   1.0000000
   1.0000000   1.0000000   1.0000000   1.0000000   1.0000000   1.0000000
   1.0000000   1.0000000   1.0000000   1.0000000   1.0000000   1.0000000
   1.0000000   1.0000000   1.0000000   1.0000000   1.0000000   1.0000000
   6.0000000   6.0000000   6.0000000   6.0000000   6.0000000   6.0000000
   6.0000000   6.0000000   6.0000000   6.0000000   6.0000000   6.0000000
   6.0000000   6.0000000   6.0000000   6.0000000   6.0000000   6.0000000
   6.0000000   6.0000000   6.0000000   6.0000000   6.0000000   6.0000000
   6.0000000   6.0000000   6.0000000   6.0000000   6.0000000   6.0000000
   6.0000000   6.0000000   6.0000000   6.0000000   6.0000000   6.0000000
   8.0000000   8.0000000   8.0000000   8.0000000   8.0000000   8.0000000
   8.0000000   8.0000000   8.0000000   8.0000000   8.0000000   8.0000000
 TTTTTTTTTTTTTTTTTTTTTTTTTTTTTT MOQGAD      TELAPSE       27.95 TCPU       55.98
 TTTTTTTTTTTTTTTTTTTTTTTTTTTTTT SHELLXN     TELAPSE       49.38 TCPU      740.93
 TTTTTTTTTTTTTTTTTTTTTTTTTTTTTT MONMO3      TELAPSE       50.01 TCPU      761.20
 NUMERICALLY INTEGRATED DENSITY    396.0000776618
 TTTTTTTTTTTTTTTTTTTTTTTTTTTTTT NUMDFT      TELAPSE       51.56 TCPU      810.69
 CYC   0 ETOT(AU) -2.591945921955E+03 DETOT -2.59E+03 tst  0.00E+00 PX  1.00E+00
 TTTTTTTTTTTTTTTTTTTTTTTTTTTTTT DIIS        TELAPSE       51.67 TCPU      814.03
 TTTTTTTTTTTTTTTTTTTTTTTTTTTTTT FDIK        TELAPSE       53.43 TCPU      870.31
 INSULATING STATE
 TOP OF VALENCE BANDS -    BAND    198; K    1; EIG -3.0590936E-01 AU
 BOTTOM OF VIRTUAL BANDS - BAND    199; K    1; EIG -1.6328387E-01 AU
 DIRECT ENERGY BAND GAP:   3.8810 eV
 TTTTTTTTTTTTTTTTTTTTTTTTTTTTTT PDIG        TELAPSE       55.01 TCPU      877.27
 CHARGE NORMALIZATION FACTOR   1.00000000
 TOTAL ATOMIC CHARGES:
   4.1497340   4.1222620   4.1480143   4.1612532   4.1482331   4.1615008
   4.1611151   4.1479062   4.1608983   4.1477240   4.1219953   4.1493216
   0.7857143   0.7857501   0.7858661   0.7858287   0.7837386   0.7854049
   0.7855222   0.7838739   0.7861845   0.7864788   0.7866422   0.7863497
   0.7861732   0.7864671   0.7866028   0.7863096   0.7837448   0.7854070
   0.7855877   0.7839393   0.7856647   0.7857023   0.7858586   0.7858214
   6.0444625   6.0467499   6.2691781   6.2676122   6.2675712   6.2691470
   6.2665725   6.2652606   6.2652026   6.2665111   6.0460120   6.0437152
   6.0471038   6.0573843   6.2670381   6.2635558   6.2636196   6.2671037
   6.2669530   6.2634740   6.2636270   6.2670930   6.0561272   6.0458400
   6.0448194   6.0471198   6.2663549   6.2650155   6.2655836   6.2668879
   6.2688101   6.2672366   6.2678532   6.2694265   6.0455360   6.0432388
   8.7009435   8.7001209   8.7010547   8.7002500   8.7048720   8.6917866
   8.7005423   8.7013693   8.6921965   8.7052277   8.7007139   8.7015353
 TTTTTTTTTTTTTTTTTTTTTTTTTTTTTT MOQGAD      TELAPSE       55.11 TCPU      877.38
 TTTTTTTTTTTTTTTTTTTTTTTTTTTTTT SHELLXN     TELAPSE       77.41 TCPU     1588.99
 TTTTTTTTTTTTTTTTTTTTTTTTTTTTTT MONMO3      TELAPSE       78.04 TCPU     1609.23
 NUMERICALLY INTEGRATED DENSITY    396.0000512773
 TTTTTTTTTTTTTTTTTTTTTTTTTTTTTT NUMDFT      TELAPSE       79.62 TCPU     1659.51
 CYC   1 ETOT(AU) -2.577654979805E+03 DETOT  1.43E+01 tst  0.00E+00 PX  1.00E+00
 TTTTTTTTTTTTTTTTTTTTTTTTTTTTTT DIIS        TELAPSE       79.75 TCPU     1663.81
 DIIS TEST: 0.21960E+01 AT SCF   CYCLE   1 - MIX   30 %
 TTTTTTTTTTTTTTTTTTTTTTTTTTTTTT FDIK        TELAPSE       81.54 TCPU     1720.86
 INSULATING STATE
 TOP OF VALENCE BANDS -    BAND    198; K    1; EIG -2.1220940E-01 AU
 BOTTOM OF VIRTUAL BANDS - BAND    199; K    1; EIG -8.5265812E-02 AU
 DIRECT ENERGY BAND GAP:   3.4543 eV
 TTTTTTTTTTTTTTTTTTTTTTTTTTTTTT PDIG        TELAPSE       83.12 TCPU     1727.83
 CHARGE NORMALIZATION FACTOR   1.00000000
 TOTAL ATOMIC CHARGES:
   4.6407410   4.6694812   4.6865362   4.7005993   4.6864331   4.7006161
   4.7008701   4.6869513   4.7008406   4.6870100   4.6699567   4.6408261
   0.9132532   0.9051934   0.9053087   0.9132745   0.9206825   0.9166437
   0.9166938   0.9207180   0.9133426   0.8986876   0.8987049   0.9135059
   0.9133269   0.8986643   0.8986963   0.9134503   0.9206735   0.9166355
   0.9167632   0.9207915   0.9131936   0.9051230   0.9053215   0.9132589
   5.8674779   5.8676133   6.1552262   6.0868881   6.0873044   6.1557173
   6.1404417   6.1538214   6.1545203   6.1413449   5.8704031   5.8702134
   5.8421509   5.9497653   6.1323882   6.1516559   6.1524080   6.1330178
   6.1325662   6.1517855   6.1523166   6.1329565   5.9530559   5.8451991
   5.8674322   5.8675568   6.1405075   6.1538907   6.1543710   6.1412758
   6.1554857   6.0871110   6.0870290   6.1554438   5.8706289   5.8703588
   8.3357714   8.3355429   8.3361486   8.3359113   8.3761238   8.3439490
   8.3354447   8.3355667   8.3436688   8.3760034   8.3358489   8.3359222
 TTTTTTTTTTTTTTTTTTTTTTTTTTTTTT MOQGAD      TELAPSE       83.23 TCPU     1727.93
 TTTTTTTTTTTTTTTTTTTTTTTTTTTTTT SHELLXN     TELAPSE      105.52 TCPU     2439.46
 TTTTTTTTTTTTTTTTTTTTTTTTTTTTTT MONMO3      TELAPSE      106.16 TCPU     2459.71
 NUMERICALLY INTEGRATED DENSITY    396.0000524972
 TTTTTTTTTTTTTTTTTTTTTTTTTTTTTT NUMDFT      TELAPSE      107.73 TCPU     2510.00
 CYC   2 ETOT(AU) -2.578037460655E+03 DETOT -3.82E-01 tst  4.02E-03 PX  1.59E-01
 TTTTTTTTTTTTTTTTTTTTTTTTTTTTTT DIIS        TELAPSE      107.89 TCPU     2514.95
 DIIS TEST: 0.92483E+00 AT SCF   CYCLE   2 - DIIS ACTIVE - HISTORY:     2 CYCLES
 TTTTTTTTTTTTTTTTTTTTTTTTTTTTTT FDIK        TELAPSE      109.67 TCPU     2571.96
 INSULATING STATE
 TOP OF VALENCE BANDS -    BAND    198; K    1; EIG -2.2717896E-01 AU
 BOTTOM OF VIRTUAL BANDS - BAND    199; K    1; EIG -8.1103828E-02 AU
 DIRECT ENERGY BAND GAP:   3.9749 eV
 TTTTTTTTTTTTTTTTTTTTTTTTTTTTTT PDIG        TELAPSE      111.25 TCPU     2578.93
 CHARGE NORMALIZATION FACTOR   1.00000000
 TOTAL ATOMIC CHARGES:
   4.4674801   4.4462099   4.4771786   4.4987976   4.4772112   4.4989161
   4.4983195   4.4765927   4.4981656   4.4765007   4.4456509   4.4668890
   0.8960389   0.8765920   0.8765720   0.8963221   0.8919430   0.8949726
   0.8950797   0.8919760   0.8879155   0.8830476   0.8834559   0.8879495
   0.8879377   0.8830706   0.8834006   0.8878621   0.8919413   0.8949818
   0.8951275   0.8920556   0.8960453   0.8765904   0.8765246   0.8962638
   5.8834395   5.9012219   6.1568414   6.1771064   6.1765942   6.1564993
   6.1660969   6.1524091   6.1516561   6.1648864   5.8998511   5.8819169
   5.9351630   5.9075495   6.1728561   6.1512737   6.1505093   6.1724197
   6.1729665   6.1513753   6.1503800   6.1723360   5.9055689   5.9338103
   5.8837971   5.9015462   6.1660812   6.1523676   6.1517821   6.1650152
   6.1567700   6.1770316   6.1765736   6.1565449   5.8995399   5.8814412
   8.5226918   8.5198464   8.5228333   8.5200297   8.5250349   8.5067983
   8.5199297   8.5229947   8.5070231   8.5247465   8.5200936   8.5231814
 TTTTTTTTTTTTTTTTTTTTTTTTTTTTTT MOQGAD      TELAPSE      111.35 TCPU     2579.03
 TTTTTTTTTTTTTTTTTTTTTTTTTTTTTT SHELLXN     TELAPSE      133.66 TCPU     3290.80
 TTTTTTTTTTTTTTTTTTTTTTTTTTTTTT MONMO3      TELAPSE      134.29 TCPU     3311.05
 NUMERICALLY INTEGRATED DENSITY    396.0000546196
 TTTTTTTTTTTTTTTTTTTTTTTTTTTTTT NUMDFT      TELAPSE      135.86 TCPU     3361.37
 CYC   3 ETOT(AU) -2.578226301719E+03 DETOT -1.89E-01 tst  6.39E-04 PX  6.73E-02
 TTTTTTTTTTTTTTTTTTTTTTTTTTTTTT DIIS        TELAPSE      136.04 TCPU     3366.98
 DIIS TEST: 0.37848E-01 AT SCF   CYCLE   3 - DIIS ACTIVE - HISTORY:     3 CYCLES
 TTTTTTTTTTTTTTTTTTTTTTTTTTTTTT FDIK        TELAPSE      137.83 TCPU     3424.08
 INSULATING STATE
 TOP OF VALENCE BANDS -    BAND    198; K    1; EIG -2.3569646E-01 AU
 BOTTOM OF VIRTUAL BANDS - BAND    199; K    1; EIG -8.9947588E-02 AU
 DIRECT ENERGY BAND GAP:   3.9660 eV
 TTTTTTTTTTTTTTTTTTTTTTTTTTTTTT PDIG        TELAPSE      139.41 TCPU     3431.05
 CHARGE NORMALIZATION FACTOR   1.00000000
 TOTAL ATOMIC CHARGES:
   4.4652723   4.4613032   4.4875399   4.4974254   4.4875598   4.4975344
   4.4977419   4.4879364   4.4975881   4.4878748   4.4616665   4.4652640
   0.8728643   0.8697634   0.8699567   0.8728419   0.8792571   0.8747763
   0.8748164   0.8792715   0.8753943   0.8632453   0.8631529   0.8756797
   0.8754129   0.8632616   0.8631027   0.8755945   0.8792801   0.8747886
   0.8748690   0.8793235   0.8728529   0.8697298   0.8699328   0.8727953
   5.9411062   5.9309332   6.1832186   6.1344612   6.1350841   6.1836974
   6.1700257   6.1774048   6.1787859   6.1721239   5.9346092   5.9447267
   5.9020510   6.0177630   6.1549494   6.1840537   6.1852338   6.1558034
   6.1548791   6.1839944   6.1852837   6.1558893   6.0214721   5.9051541
   5.9411354   5.9309477   6.1699183   6.1773260   6.1788654   6.1723218
   6.1831353   6.1343769   6.1351186   6.1837529   5.9346532   5.9446184
   8.4818998   8.4869429   8.4821999   8.4872403   8.5167853   8.4867918
   8.4871598   8.4817809   8.4867200   8.5173418   8.4875028   8.4820910
 TTTTTTTTTTTTTTTTTTTTTTTTTTTTTT MOQGAD      TELAPSE      139.52 TCPU     3431.16
 TTTTTTTTTTTTTTTTTTTTTTTTTTTTTT SHELLXN     TELAPSE      161.82 TCPU     4142.83
 TTTTTTTTTTTTTTTTTTTTTTTTTTTTTT MONMO3      TELAPSE      162.45 TCPU     4163.07
 NUMERICALLY INTEGRATED DENSITY    396.0000530849
 TTTTTTTTTTTTTTTTTTTTTTTTTTTTTT NUMDFT      TELAPSE      164.02 TCPU     4213.37
 CYC   4 ETOT(AU) -2.578232921641E+03 DETOT -6.62E-03 tst  1.34E-04 PX  2.71E-02
 TTTTTTTTTTTTTTTTTTTTTTTTTTTTTT DIIS        TELAPSE      164.22 TCPU     4219.67
 DIIS TEST: 0.15097E-01 AT SCF   CYCLE   4 - DIIS ACTIVE - HISTORY:     4 CYCLES
 TTTTTTTTTTTTTTTTTTTTTTTTTTTTTT FDIK        TELAPSE      166.01 TCPU     4276.76
 INSULATING STATE
 TOP OF VALENCE BANDS -    BAND    198; K    1; EIG -2.3526011E-01 AU
 BOTTOM OF VIRTUAL BANDS - BAND    199; K    1; EIG -8.9489861E-02 AU
 DIRECT ENERGY BAND GAP:   3.9666 eV
 TTTTTTTTTTTTTTTTTTTTTTTTTTTTTT PDIG        TELAPSE      167.59 TCPU     4283.72
 CHARGE NORMALIZATION FACTOR   1.00000000
 TOTAL ATOMIC CHARGES:
   4.4659471   4.4613525   4.4870080   4.5036121   4.4870201   4.5037241
   4.5033491   4.4867240   4.5032028   4.4866665   4.4610799   4.4655825
   0.8781043   0.8663724   0.8663976   0.8783437   0.8798533   0.8779578
   0.8781224   0.8799515   0.8729027   0.8662113   0.8665752   0.8729801
   0.8729051   0.8662177   0.8665373   0.8729058   0.8798546   0.8779652
   0.8781772   0.8800302   0.8780876   0.8663459   0.8663699   0.8783028
   5.9188691   5.9320738   6.1741218   6.1562601   6.1558461   6.1739555
   6.1738519   6.1727220   6.1718004   6.1723991   5.9306122   5.9173519
   5.9427396   5.9634662   6.1773527   6.1667565   6.1661143   6.1769603
   6.1775014   6.1668534   6.1659826   6.1768566   5.9619674   5.9417137
   5.9191117   5.9322940   6.1738262   6.1726919   6.1718600   6.1725121
   6.1741378   6.1562562   6.1557765   6.1739273   5.9304426   5.9170086
   8.4928915   8.4913560   8.4930826   8.4915787   8.5094975   8.4882574
   8.4913205   8.4931107   8.4883126   8.5090012   8.4915507   8.4933271
 TTTTTTTTTTTTTTTTTTTTTTTTTTTTTT MOQGAD      TELAPSE      167.69 TCPU     4283.82
 TTTTTTTTTTTTTTTTTTTTTTTTTTTTTT SHELLXN     TELAPSE      189.99 TCPU     4995.43
 TTTTTTTTTTTTTTTTTTTTTTTTTTTTTT MONMO3      TELAPSE      190.63 TCPU     5015.67
 NUMERICALLY INTEGRATED DENSITY    396.0000532437
 TTTTTTTTTTTTTTTTTTTTTTTTTTTTTT NUMDFT      TELAPSE      192.20 TCPU     5065.95
 CYC   5 ETOT(AU) -2.578236273156E+03 DETOT -3.35E-03 tst  6.36E-05 PX  1.38E-02
 TTTTTTTTTTTTTTTTTTTTTTTTTTTTTT DIIS        TELAPSE      192.42 TCPU     5072.78
 DIIS TEST: 0.14979E-02 AT SCF   CYCLE   5 - DIIS ACTIVE - HISTORY:     5 CYCLES
 TTTTTTTTTTTTTTTTTTTTTTTTTTTTTT FDIK        TELAPSE      194.21 TCPU     5129.60
 INSULATING STATE
 TOP OF VALENCE BANDS -    BAND    198; K    1; EIG -2.3459098E-01 AU
 BOTTOM OF VIRTUAL BANDS - BAND    199; K    1; EIG -8.9308960E-02 AU
 DIRECT ENERGY BAND GAP:   3.9533 eV
 TTTTTTTTTTTTTTTTTTTTTTTTTTTTTT PDIG        TELAPSE      195.79 TCPU     5136.57
 CHARGE NORMALIZATION FACTOR   1.00000000
 TOTAL ATOMIC CHARGES:
   4.4659845   4.4614587   4.4878206   4.5030446   4.4878349   4.5031553
   4.5031494   4.4879142   4.5030031   4.4878570   4.4615693   4.4658111
   0.8790198   0.8679194   0.8680548   0.8790985   0.8811832   0.8798061
   0.8798466   0.8811996   0.8767093   0.8674707   0.8675399   0.8769187
   0.8767261   0.8674859   0.8674902   0.8768346   0.8811937   0.8798139
   0.8799013   0.8812666   0.8790107   0.8678927   0.8680277   0.8790515
   5.9178186   5.9217343   6.1745747   6.1546018   6.1548430   6.1747670
   6.1715578   6.1693153   6.1702228   6.1728809   5.9240650   5.9200126
   5.9193243   5.9717440   6.1668853   6.1725271   6.1731070   6.1673564
   6.1668794   6.1725265   6.1730929   6.1673833   5.9736820   5.9210394
   5.9179799   5.9218769   6.1715026   6.1692636   6.1703043   6.1730350
   6.1745055   6.1545302   6.1548427   6.1748150   5.9239692   5.9197501
   8.4948697   8.4955014   8.4951127   8.4957575   8.5148830   8.4902647
   8.4956855   8.4948680   8.4903236   8.5152643   8.4959562   8.4951331
 TTTTTTTTTTTTTTTTTTTTTTTTTTTTTT MOQGAD      TELAPSE      195.90 TCPU     5136.68
 TTTTTTTTTTTTTTTTTTTTTTTTTTTTTT SHELLXN     TELAPSE      218.20 TCPU     5848.34
 TTTTTTTTTTTTTTTTTTTTTTTTTTTTTT MONMO3      TELAPSE      218.83 TCPU     5868.58
 NUMERICALLY INTEGRATED DENSITY    396.0000532650
 TTTTTTTTTTTTTTTTTTTTTTTTTTTTTT NUMDFT      TELAPSE      220.40 TCPU     5918.87
 CYC   6 ETOT(AU) -2.578236586832E+03 DETOT -3.14E-04 tst  9.51E-06 PX  5.32E-03
 TTTTTTTTTTTTTTTTTTTTTTTTTTTTTT DIIS        TELAPSE      220.65 TCPU     5925.72
 DIIS TEST: 0.28474E-03 AT SCF   CYCLE   6 - DIIS ACTIVE - HISTORY:     6 CYCLES
 TTTTTTTTTTTTTTTTTTTTTTTTTTTTTT FDIK        TELAPSE      222.43 TCPU     5982.49
 INSULATING STATE
 TOP OF VALENCE BANDS -    BAND    198; K    1; EIG -2.3453866E-01 AU
 BOTTOM OF VIRTUAL BANDS - BAND    199; K    1; EIG -8.9030267E-02 AU
 DIRECT ENERGY BAND GAP:   3.9595 eV
 TTTTTTTTTTTTTTTTTTTTTTTTTTTTTT PDIG        TELAPSE      224.01 TCPU     5989.45
 CHARGE NORMALIZATION FACTOR   1.00000000
 TOTAL ATOMIC CHARGES:
   4.4670811   4.4611765   4.4874601   4.5029453   4.4874762   4.5030563
   4.5027548   4.4872675   4.5026079   4.4872082   4.4609729   4.4667535
   0.8792161   0.8684572   0.8685084   0.8793984   0.8814005   0.8797278
   0.8798674   0.8814767   0.8763621   0.8675749   0.8678451   0.8764762
   0.8763718   0.8675853   0.8678020   0.8763972   0.8814082   0.8797381
   0.8799197   0.8815470   0.8792050   0.8684328   0.8684786   0.8793534
   5.9193711   5.9246304   6.1753266   6.1531770   6.1530069   6.1753093
   6.1713045   6.1715374   6.1710444   6.1705207   5.9241951   5.9189044
   5.9263760   5.9704995   6.1692418   6.1707648   6.1705071   6.1691142
   6.1693241   6.1708237   6.1704231   6.1690638   5.9701063   5.9262260
   5.9195687   5.9248027   6.1712489   6.1714855   6.1711244   6.1706732
   6.1752985   6.1531371   6.1529767   6.1753175   5.9240701   5.9186051
   8.4938920   8.4940448   8.4941057   8.4942832   8.5138653   8.4904786
   8.4940928   8.4940699   8.4905062   8.5135911   8.4943468   8.4943067
 TTTTTTTTTTTTTTTTTTTTTTTTTTTTTT MOQGAD      TELAPSE      224.11 TCPU     5989.56
 TTTTTTTTTTTTTTTTTTTTTTTTTTTTTT SHELLXN     TELAPSE      246.42 TCPU     6701.33
 TTTTTTTTTTTTTTTTTTTTTTTTTTTTTT MONMO3      TELAPSE      247.05 TCPU     6721.59
 NUMERICALLY INTEGRATED DENSITY    396.0000533105
 TTTTTTTTTTTTTTTTTTTTTTTTTTTTTT NUMDFT      TELAPSE      248.63 TCPU     6771.91
 CYC   7 ETOT(AU) -2.578236654010E+03 DETOT -6.72E-05 tst  8.73E-07 PX  1.53E-03
 TTTTTTTTTTTTTTTTTTTTTTTTTTTTTT DIIS        TELAPSE      248.89 TCPU     6778.78
 DIIS TEST: 0.20541E-04 AT SCF   CYCLE   7 - DIIS ACTIVE - HISTORY:     7 CYCLES
 TTTTTTTTTTTTTTTTTTTTTTTTTTTTTT FDIK        TELAPSE      250.68 TCPU     6835.55
 INSULATING STATE
 TOP OF VALENCE BANDS -    BAND    198; K    1; EIG -2.3463122E-01 AU
 BOTTOM OF VIRTUAL BANDS - BAND    199; K    1; EIG -8.9098852E-02 AU
 DIRECT ENERGY BAND GAP:   3.9601 eV
 TTTTTTTTTTTTTTTTTTTTTTTTTTTTTT PDIG        TELAPSE      252.26 TCPU     6842.52
 CHARGE NORMALIZATION FACTOR   1.00000000
 TOTAL ATOMIC CHARGES:
   4.4668045   4.4611855   4.4875286   4.5030508   4.4875436   4.5031619
   4.5030331   4.4874991   4.5028862   4.4874406   4.4611683   4.4665669
   0.8792769   0.8681714   0.8682711   0.8794051   0.8812609   0.8797651
   0.8798440   0.8813003   0.8762432   0.8676124   0.8677706   0.8764101
   0.8762557   0.8676257   0.8677244   0.8763288   0.8812691   0.8797736
   0.8798982   0.8813703   0.8792666   0.8681460   0.8682427   0.8793594
   5.9183956   5.9244543   6.1743020   6.1540593   6.1540972   6.1743851
   6.1715340   6.1703308   6.1706599   6.1719787   5.9256058   5.9194385
   5.9256778   5.9700197   6.1691352   6.1705119   6.1707155   6.1693436
   6.1691817   6.1705426   6.1706620   6.1693264   5.9709129   5.9265566
   5.9185806   5.9246187   6.1714845   6.1702836   6.1707358   6.1721239
   6.1742594   6.1540079   6.1540767   6.1744088   5.9254892   5.9191523
   8.4938942   8.4941153   8.4941210   8.4943613   8.5135584   8.4899161
   8.4942287   8.4939615   8.4899725   8.5136622   8.4944886   8.4942111
 TTTTTTTTTTTTTTTTTTTTTTTTTTTTTT MOQGAD      TELAPSE      252.37 TCPU     6842.62
 TTTTTTTTTTTTTTTTTTTTTTTTTTTTTT SHELLXN     TELAPSE      274.66 TCPU     7554.12
 TTTTTTTTTTTTTTTTTTTTTTTTTTTTTT MONMO3      TELAPSE      275.29 TCPU     7574.37
 NUMERICALLY INTEGRATED DENSITY    396.0000532975
 TTTTTTTTTTTTTTTTTTTTTTTTTTTTTT NUMDFT      TELAPSE      276.87 TCPU     7624.69
 CYC   8 ETOT(AU) -2.578236658694E+03 DETOT -4.68E-06 tst  4.47E-08 PX  3.47E-04
 TTTTTTTTTTTTTTTTTTTTTTTTTTTTTT DIIS        TELAPSE      277.15 TCPU     7631.56
 DIIS TEST: 0.18935E-05 AT SCF   CYCLE   8 - DIIS ACTIVE - HISTORY:     8 CYCLES
 TTTTTTTTTTTTTTTTTTTTTTTTTTTTTT FDIK        TELAPSE      278.94 TCPU     7688.38
 INSULATING STATE
 TOP OF VALENCE BANDS -    BAND    198; K    1; EIG -2.3462654E-01 AU
 BOTTOM OF VIRTUAL BANDS - BAND    199; K    1; EIG -8.9113812E-02 AU
 DIRECT ENERGY BAND GAP:   3.9596 eV
 TTTTTTTTTTTTTTTTTTTTTTTTTTTTTT PDIG        TELAPSE      280.52 TCPU     7695.34
 CHARGE NORMALIZATION FACTOR   1.00000000
 TOTAL ATOMIC CHARGES:
   4.4666665   4.4613352   4.4876342   4.5031326   4.4876489   4.5032435
   4.5030489   4.4875424   4.5029022   4.4874842   4.4612469   4.4663940
   0.8792169   0.8681932   0.8682736   0.8793661   0.8812721   0.8797188
   0.8798225   0.8813268   0.8762134   0.8675566   0.8677602   0.8763603
   0.8762252   0.8675690   0.8677147   0.8762797   0.8812800   0.8797276
   0.8798762   0.8813969   0.8792061   0.8681678   0.8682450   0.8793206
   5.9187226   5.9246498   6.1744767   6.1539697   6.1539273   6.1745205
   6.1717154   6.1705238   6.1705239   6.1716713   5.9251644   5.9191601
   5.9258149   5.9701983   6.1692397   6.1706677   6.1706837   6.1693080
   6.1692940   6.1707061   6.1706233   6.1692831   5.9705722   5.9262789
   5.9189111   5.9248167   6.1716651   6.1704758   6.1706005   6.1718173
   6.1744382   6.1539220   6.1539038   6.1745402   5.9250453   5.9188703
   8.4939763   8.4941665   8.4941998   8.4944105   8.5135790   8.4899153
   8.4942559   8.4940882   8.4899578   8.5135317   8.4945138   8.4943346
 TTTTTTTTTTTTTTTTTTTTTTTTTTTTTT MOQGAD      TELAPSE      280.62 TCPU     7695.45
 TTTTTTTTTTTTTTTTTTTTTTTTTTTTTT SHELLXN     TELAPSE      302.92 TCPU     8407.06
 TTTTTTTTTTTTTTTTTTTTTTTTTTTTTT MONMO3      TELAPSE      303.56 TCPU     8427.32
 NUMERICALLY INTEGRATED DENSITY    396.0000532967
 TTTTTTTTTTTTTTTTTTTTTTTTTTTTTT NUMDFT      TELAPSE      305.13 TCPU     8477.66
 CYC   9 ETOT(AU) -2.578236658773E+03 DETOT -7.94E-08 tst  5.66E-09 PX  1.12E-04
 TTTTTTTTTTTTTTTTTTTTTTTTTTTTTT DIIS        TELAPSE      305.44 TCPU     8484.59
 DIIS TEST: 0.32153E-06 AT SCF   CYCLE   9 - DIIS ACTIVE - HISTORY:     9 CYCLES
 TTTTTTTTTTTTTTTTTTTTTTTTTTTTTT FDIK        TELAPSE      307.23 TCPU     8541.47
 INSULATING STATE
 TOP OF VALENCE BANDS -    BAND    198; K    1; EIG -2.3462049E-01 AU
 BOTTOM OF VIRTUAL BANDS - BAND    199; K    1; EIG -8.9108319E-02 AU
 DIRECT ENERGY BAND GAP:   3.9596 eV
 TTTTTTTTTTTTTTTTTTTTTTTTTTTTTT PDIG        TELAPSE      308.82 TCPU     8548.45
 CHARGE NORMALIZATION FACTOR   1.00000000
 TOTAL ATOMIC CHARGES:
   4.4667005   4.4613130   4.4875968   4.5030979   4.4876115   4.5032088
   4.5030392   4.4875286   4.5028924   4.4874703   4.4612519   4.4664414
   0.8792116   0.8682035   0.8682913   0.8793530   0.8812902   0.8797116
   0.8798061   0.8813393   0.8762100   0.8675638   0.8677500   0.8763641
   0.8762217   0.8675762   0.8677046   0.8762834   0.8812983   0.8797205
   0.8798599   0.8814094   0.8792009   0.8681782   0.8682627   0.8793075
   5.9185988   5.9244925   6.1745547   6.1538848   6.1538728   6.1746142
   6.1715323   6.1705721   6.1706958   6.1716708   5.9252459   5.9192637
   5.9258245   5.9700566   6.1692137   6.1706215   6.1707109   6.1693380
   6.1692684   6.1706594   6.1706503   6.1693132   5.9706257   5.9264448
   5.9187870   5.9246589   6.1714815   6.1705239   6.1707726   6.1718175
   6.1745158   6.1538366   6.1538496   6.1746341   5.9251273   5.9189743
   8.4939716   8.4941374   8.4941952   8.4943815   8.5135913   8.4899955
   8.4942352   8.4940667   8.4900437   8.5136006   8.4944935   8.4943131
 TTTTTTTTTTTTTTTTTTTTTTTTTTTTTT MOQGAD      TELAPSE      308.92 TCPU     8548.55
 TTTTTTTTTTTTTTTTTTTTTTTTTTTTTT SHELLXN     TELAPSE      331.22 TCPU     9260.20
 +++ ENERGIES IN A.U. +++
 ::: EXT EL-POLE                                  -2.8567818426703E+03
 ::: EXT EL-SPHEROPOLE                             3.2778813920541E+01
 ::: BIELET ZONE E-E                               4.5844999268639E+03
 ::: TOTAL E-E                                     1.7604968981141E+03
 ::: TOTAL E-N + N-E                              -7.1716128276428E+03
 ::: TOTAL N-N                                     5.4046712810094E+02
 ::: KINETIC ENERGY                                2.5598448026182E+03
 ::: PSEUDO TOTAL   ENERGY                        -2.3108039988095E+03
 ::: VIRIAL COEFFICIENT                            1.0511309301824E+00
 TTTTTTTTTTTTTTTTTTTTTTTTTTTTTT MONMO3      TELAPSE      331.85 TCPU     9280.44
 NUMERICALLY INTEGRATED DENSITY    396.0000532982
 EXCHANGE ENERGY: -0.252036336733E+03  CORRELATION ENERGY: -0.153963233459E+02
 TTTTTTTTTTTTTTTTTTTTTTTTTTTTTT NUMDFT      TELAPSE      333.43 TCPU     9330.72
 CYC  10 ETOT(AU) -2.578236658889E+03 DETOT -1.15E-07 tst  8.01E-10 PX  1.12E-04

 == SCF ENDED - CONVERGENCE ON ENERGY      E(AU) -2.5782366588887E+03 CYCLES  10


 ENERGY EXPRESSION=HARTREE+FOCK EXCH*0.00000+(HSESOL     EXCH)*1.00000+PBESOL     CORR


 TOTAL ENERGY(DFT)(AU)( 10) -2.5782366588887E+03 DE-1.2E-07 tester 8.0E-10
 TTTTTTTTTTTTTTTTTTTTTTTTTTTTTT EDFT        TELAPSE      333.43 TCPU     9330.73
 
 INFORMATION **** DFTD3 ENERGY **** CALCULATE DFTD3 ENERGY

           DFT-D V3(BJ)
 DF                                         hsesol3c  
 parameters
 s6       :    1.0000
 s8       :    0.0000
 a1       :    0.5196
 a2       :    4.9385
 k1 k3    :   16.0000   -4.0000
 Cutoff   :   50.2022
 CN-Cutoff:   21.1671
 ABC-Cutoff:   21.1671
 
 Edisp /kcal,au:   -57.8962 -0.09226350

 E6    /kcal :   -62.0867
 E8    /kcal :     0.0000
 E6(ABC) "   :   4.190495
 
 INFORMATION **** DFTD3 ENERGY **** NORMAL TERMINATION OF DFTD3 MODULE

 GCP ENERGY CALCULATION
  level        hsesol3c            basis:hsesol3c
  Nbf            948
  Atoms           84

  Parameters: 
  sigma     1.0000
  eta       1.4281
  alpha     0.2936
  beta      1.9467

  dmp_scal      4.0000
  dmp_exp       6.0000
 cutoffs: 
   distance [bohr] 60.0
   noise    [a.u.] 2.2E-16
 SR-damping   T
 ** gCP correction **
  Egcp:        0.1669269114 / (a.u.) ||     104.7482 / (kcal/mol)
 INFORMATION **** GCP **** NORMAL TERMINATION OF GCP MODULE

 *******************************************************************************

 DFT-D3-GCP DISPERSION AND COUNTERPOISE CORRECTION

 D3 DISPERSION ENERGY (AU)      -9.2263499224966E-02
 GCP ENERGY (AU)                 1.6692691141324E-01
 TOTAL ENERGY + DISP + GCP (AU) -2.5781619954765E+03

 *******************************************************************************

 EIGENVECTORS IN FORTRAN UNIT  8
 TTTTTTTTTTTTTTTTTTTTTTTTTTTTTT END         TELAPSE      336.75 TCPU     9339.96
 EEEEEEEEEE TERMINATION  DATE 19 02 2026 TIME 20:15:48.9
