 Default number of threads is:           32

         
 *******************************************************************************
 *                                                                             *
 *                               CRYSTAL23                                     *
 *                      public : 1.0.1 - October 2022                          *
 *                       HTTP://WWW.CRYSTAL.UNITO.IT                           *
 *                                                                             *
 *                              MAIN AUTHORS                                   *
 *                                                                             *
 *  R. DOVESI(1,11), V.R. SAUNDERS(2), C. ROETTI(1,11), R. ORLANDO(1,11),      *
 *  C.M. ZICOVICH-WILSON(1,3), F. PASCALE(4), B. CIVALLERI(1,11),              *
 *  K. DOLL(5), N.M. HARRISON(6), I.J. BUSH(7), Ph. D'ARCO(8),                 *
 *  M. LLUNELL(9), M. CAUSA'(10), Y. NOEL(8), L. MASCHIO(1,11), A. ERBA(1,11)  *
 *  M. RE'RAT(14), S. CASASSA(1,11), B.G. SEARLE(2), J.K. DESMARAIS(1)         *
 *                                                                             *
 *        CONTRIBUTIONS TO THE CODE HAVE ALSO BEEN GIVEN BY                    *
 *                                                                             *
 *  M. FERRABONE(1,11), M. DE LA PIERRE(1,11), M. FERRERO(1,11),               *
 *  J. BAIMA(1,11), E. ALBANESE(1,11), M.F. PEINTINGER(12), R. BAST(13),       *
 *  B. KIRTMAN(15), V. LACIVITA(1,11), R. DEMICHELIS(1,16)                     *
 *  G. BRANDEBURG(17), S. SALUSTRO(1,11), G. SANSONE(1,11)                     *
 *  M.T. RUGGIERO(18), L.E. DAGA(1), L. DONA'(1), A. COSSARD(1)                *
 *                                                                             *
 * (1) THEORETICAL CHEMISTRY GROUP - UNIVERSITA' DI TORINO - TORINO (ITALY)    *
 * (2) SCIENTIFIC COMPUTING DEPARTMENT - STFC DARESBURY (UK)                   *
 * (3) UNIVERSIDAD AUTONOMA DEL ESTADO DE MORELOS - CUERNAVACA (MEXICO)        *
 * (4) UNIVERSITE' DE LORRAINE - NANCY (FRANCE)                                *
 * (5) UNIVERSITAET STUTTGART- STUTTGART (GERMANY)                             *
 * (6) IMPERIAL COLLEGE - LONDON (UK)                                          *
 * (7) SCIENTIFIC COMPUTING DEPARTMENT - STFC RAL (UK)                         *
 * (8) UPMC - SORBONNE UNIVERSITES - PARIS (FRANCE)                            *
 * (9) UNIVERSIDAD DE BARCELONA - BARCELONA (SPAIN)                            *
 *(10) UNIVERSITA' DI NAPOLI "FEDERICO II" - NAPOLI (ITALY)                    *
 *(11) NIS - NANOSTRUCTURED INTERFACES AND SURFACES - TORINO (ITALY)           *
 *(12) MPI FUER CHEMISCHE ENERGIEKONVERSION - MUELHEIM AN DER RUHR (GERMANY)   *
 *(13) UNIVERSITY OF TROMSO - TROMSO (NORWAY)                                  *
 *(14) UNIVERSITE' DE PAU ET DES PAYS DE L'ADOUR - PAU (FRANCE)                *
 *(15) UNIVERSITY OF CALIFORNIA SANTA BARBARA - SANTA BARBARA (USA)            *
 *(16) CURTIN UNIVERSITY - PERTH (AUSTRALIA)                                   *
 *(17) UNIVERSITY COLLEGE LONDON - LONDON (UK)                                 *
 *(18) UNIVERSITY OF VERMONT - BURLINGTON (USA)                                *
 *                                                                             *
 *******************************************************************************
 EEEEEEEEEE STARTING  DATE 19 02 2026 TIME 20:26:21.1
 cof-1_z41_L020_serr                                                             

 CRYSTAL CALCULATION
 (INPUT ACCORDING TO THE INTERNATIONAL TABLES FOR X-RAY CRYSTALLOGRAPHY)
 CRYSTAL FAMILY                       :  TRICLINIC   
 CRYSTAL CLASS  (GROTH - 1921)        :  TRICLINIC PEDIAL                     

 SPACE GROUP (NONCENTROSYMMETRIC)     :  P 1             

 LATTICE PARAMETERS  (ANGSTROMS AND DEGREES) - CONVENTIONAL CELL
        A           B           C        ALPHA        BETA       GAMMA
    15.02361    15.02392     8.20000    90.00032    89.99994   119.99596


 NUMBER OF IRREDUCIBLE ATOMS IN THE CONVENTIONAL CELL:   84

 INPUT COORDINATES

 ATOM AT. N.              COORDINATES
   1   5     6.136805400000E-01  2.273182200000E-01  2.505825300000E-01
   2   5     6.905271000000E-01  3.810269500000E-01  7.505825300000E-01
   3   5     7.727362000000E-01  3.863778800000E-01  2.505825300000E-01
   4   5     8.495827600000E-01  5.400866100000E-01  7.505825300000E-01
   5   5     6.136762700000E-01  3.863606700000E-01  2.493577500000E-01
   6   5     6.905228300000E-01  5.400694000000E-01  7.493577600000E-01
   7   5     2.272552500000E-01  6.136332200000E-01  2.505825300000E-01
   8   5     3.041018100000E-01  7.673419500000E-01  7.505825400000E-01
   9   5     3.863632200000E-01  6.136124500000E-01  2.505825300000E-01
  10   5     4.632097800000E-01  7.673211800000E-01  7.505825300000E-01
  11   5     3.863435000000E-01  7.727516500000E-01  2.493577500000E-01
  12   5     4.631900600000E-01  9.264603800000E-01  7.493577600000E-01
  13   1     9.030436200000E-01  3.089300500000E-01  2.480433200000E-01
  14   1     9.798901800000E-01  4.626387800000E-01  7.480433200000E-01
  15   1     9.663453000000E-02  6.910534400000E-01  2.476550300000E-01
  16   1     1.734810900000E-01  8.447621700000E-01  7.476550300000E-01
  17   1     9.029714200000E-01  5.940724300000E-01  2.475952700000E-01
  18   1     9.798179800000E-01  7.477811600000E-01  7.475952700000E-01
  19   1     9.673618000000E-02  4.056849400000E-01  2.476101700000E-01
  20   1     1.735827400000E-01  5.593936700000E-01  7.476101800000E-01
  21   1     6.910324000000E-01  9.700412000000E-02  2.519567000000E-01
  22   1     7.678789600000E-01  2.507128500000E-01  7.519567000000E-01
  23   1     3.089297200000E-01  9.034373100000E-01  2.523450200000E-01
  24   1     3.857762800000E-01  5.714604000000E-02  7.523450200000E-01
  25   1     4.058699900000E-01  9.704998000000E-02  2.524048100000E-01
  26   1     4.827165500000E-01  2.507587100000E-01  7.524048100000E-01
  27   1     5.943122100000E-01  9.033473200000E-01  2.523898100000E-01
  28   1     6.711587700000E-01  5.705605000000E-02  7.523898100000E-01
  29   1     6.910727400000E-01  5.940542100000E-01  2.480433400000E-01
  30   1     7.679193000000E-01  7.477629400000E-01  7.480433400000E-01
  31   1     3.089618300000E-01  4.056093300000E-01  2.476550100000E-01
  32   1     3.858083900000E-01  5.593180600000E-01  7.476550100000E-01
  33   1     4.058405700000E-01  3.088232500000E-01  2.475952200000E-01
  34   1     4.826871300000E-01  4.625319800000E-01  7.475952200000E-01
  35   1     5.942908800000E-01  6.909579300000E-01  2.476102200000E-01
  36   1     6.711374400000E-01  8.446666600000E-01  7.476102200000E-01
  37   6     8.918903100000E-01  4.459436900000E-01  2.493129400000E-01
  38   6     9.687368700000E-01  5.996524200000E-01  7.493129400000E-01
  39   6     9.464891100000E-01  3.927856300000E-01  2.481030700000E-01
  40   6     2.333567000000E-02  5.464943600000E-01  7.481030800000E-01
  41   6     5.338812000000E-02  6.071853000000E-01  2.479985600000E-01
  42   6     1.302346800000E-01  7.608940300000E-01  7.479985600000E-01
  43   6     9.464521100000E-01  5.536921900000E-01  2.483122200000E-01
  44   6     2.329867000000E-02  7.074009200000E-01  7.483122200000E-01
  45   6     5.342634000000E-02  4.462499700000E-01  2.475056200000E-01
  46   6     1.302729000000E-01  5.999587000000E-01  7.475056200000E-01
  47   6     1.080358900000E-01  5.540356300000E-01  2.483271400000E-01
  48   6     1.848824500000E-01  7.077443600000E-01  7.483271400000E-01
  49   6     5.540394200000E-01  1.081684600000E-01  2.506871000000E-01
  50   6     6.308859800000E-01  2.618771900000E-01  7.506871000000E-01
  51   6     6.071778500000E-01  5.355594000000E-02  2.518969300000E-01
  52   6     6.840244100000E-01  2.072646700000E-01  7.518969300000E-01
  53   6     3.927986700000E-01  9.466631600000E-01  2.520014900000E-01
  54   6     4.696452300000E-01  1.003718900000E-01  7.520014900000E-01
  55   6     4.462875800000E-01  5.360286000000E-02  2.516878400000E-01
  56   6     5.231341400000E-01  2.073115900000E-01  7.516878400000E-01
  57   6     5.537168500000E-01  9.466235600000E-01  2.524943800000E-01
  58   6     6.305634100000E-01  1.003322900000E-01  7.524943800000E-01
  59   6     4.459279100000E-01  8.919920600000E-01  2.516728900000E-01
  60   6     5.227744700000E-01  4.570079000000E-02  7.516728800000E-01
  61   6     5.540448700000E-01  4.458745500000E-01  2.493129400000E-01
  62   6     6.308914300000E-01  5.995832800000E-01  7.493129400000E-01
  63   6     6.072102200000E-01  5.536257800000E-01  2.481031000000E-01
  64   6     6.840567800000E-01  7.073345100000E-01  7.481031000000E-01
  65   6     3.928233700000E-01  4.461720300000E-01  2.479985400000E-01
  66   6     4.696699300000E-01  5.998807600000E-01  7.479985400000E-01
  67   6     4.462872600000E-01  3.926899900000E-01  2.483121800000E-01
  68   6     5.231338200000E-01  5.463987200000E-01  7.483121900000E-01
  69   6     5.537429600000E-01  6.070980000000E-01  2.475056500000E-01
  70   6     6.305895200000E-01  7.608067300000E-01  7.475056500000E-01
  71   6     4.459599800000E-01  5.539582300000E-01  2.483271400000E-01
  72   6     5.228065400000E-01  7.076669600000E-01  7.483271400000E-01
  73   8     5.607366800000E-01  2.803706300000E-01  2.496863500000E-01
  74   8     6.375832400000E-01  4.340793600000E-01  7.496863500000E-01
  75   8     7.196817000000E-01  2.803783300000E-01  2.522703400000E-01
  76   8     7.965282600000E-01  4.340870600000E-01  7.522703300000E-01
  77   8     7.196794200000E-01  4.393234600000E-01  2.483719600000E-01
  78   8     7.965259800000E-01  5.930321900000E-01  7.483719600000E-01
  79   8     2.803245100000E-01  7.196511100000E-01  2.496863600000E-01
  80   8     3.571710700000E-01  8.733598400000E-01  7.496863600000E-01
  81   8     2.803439700000E-01  5.606956100000E-01  2.522703400000E-01
  82   8     3.571905300000E-01  7.144043400000E-01  7.522703400000E-01
  83   8     4.392638400000E-01  7.196354200000E-01  2.483719500000E-01
  84   8     5.161104000000E-01  8.733441500000E-01  7.483719500000E-01

 *******************************************************************************

 << INFORMATION >>: FROM NOW ON, ALL COORDINATES REFER TO THE PRIMITIVE CELL

 *******************************************************************************

 LATTICE PARAMETERS  (ANGSTROMS AND DEGREES) - PRIMITIVE CELL
       A          B          C        ALPHA      BETA     GAMMA        VOLUME
   15.02361   15.02392    8.20000    90.00032  89.99994 119.99596   1602.948694

 COORDINATES OF THE EQUIVALENT ATOMS (FRACTIONAL UNITS)

 N. ATOM EQUIV AT. N.          X                  Y                  Z

   1   1   1    5 B    -3.86319460000E-01  2.27318220000E-01  2.50582530000E-01

   2   2   1    5 B    -3.09472900000E-01  3.81026950000E-01 -2.49417470000E-01

   3   3   1    5 B    -2.27263800000E-01  3.86377880000E-01  2.50582530000E-01

   4   4   1    5 B    -1.50417240000E-01 -4.59913390000E-01 -2.49417470000E-01

   5   5   1    5 B    -3.86323730000E-01  3.86360670000E-01  2.49357750000E-01

   6   6   1    5 B    -3.09477170000E-01 -4.59930600000E-01 -2.50642240000E-01

   7   7   1    5 B     2.27255250000E-01 -3.86366780000E-01  2.50582530000E-01

   8   8   1    5 B     3.04101810000E-01 -2.32658050000E-01 -2.49417460000E-01

   9   9   1    5 B     3.86363220000E-01 -3.86387550000E-01  2.50582530000E-01

  10  10   1    5 B     4.63209780000E-01 -2.32678820000E-01 -2.49417470000E-01

  11  11   1    5 B     3.86343500000E-01 -2.27248350000E-01  2.49357750000E-01

  12  12   1    5 B     4.63190060000E-01 -7.35396200000E-02 -2.50642240000E-01

  13  13   1    1 H    -9.69563800000E-02  3.08930050000E-01  2.48043320000E-01

  14  14   1    1 H    -2.01098200000E-02  4.62638780000E-01 -2.51956680000E-01

  15  15   1    1 H     9.66345300000E-02 -3.08946560000E-01  2.47655030000E-01

  16  16   1    1 H     1.73481090000E-01 -1.55237830000E-01 -2.52344970000E-01

  17  17   1    1 H    -9.70285800000E-02 -4.05927570000E-01  2.47595270000E-01

  18  18   1    1 H    -2.01820200000E-02 -2.52218840000E-01 -2.52404730000E-01

  19  19   1    1 H     9.67361800000E-02  4.05684940000E-01  2.47610170000E-01

  20  20   1    1 H     1.73582740000E-01 -4.40606330000E-01 -2.52389820000E-01

  21  21   1    1 H    -3.08967600000E-01  9.70041200000E-02  2.51956700000E-01

  22  22   1    1 H    -2.32121040000E-01  2.50712850000E-01 -2.48043300000E-01

  23  23   1    1 H     3.08929720000E-01 -9.65626900000E-02  2.52345020000E-01

  24  24   1    1 H     3.85776280000E-01  5.71460400000E-02 -2.47654980000E-01

  25  25   1    1 H     4.05869990000E-01  9.70499800000E-02  2.52404810000E-01

  26  26   1    1 H     4.82716550000E-01  2.50758710000E-01 -2.47595190000E-01

  27  27   1    1 H    -4.05687790000E-01 -9.66526800000E-02  2.52389810000E-01

  28  28   1    1 H    -3.28841230000E-01  5.70560500000E-02 -2.47610190000E-01

  29  29   1    1 H    -3.08927260000E-01 -4.05945790000E-01  2.48043340000E-01

  30  30   1    1 H    -2.32080700000E-01 -2.52237060000E-01 -2.51956660000E-01

  31  31   1    1 H     3.08961830000E-01  4.05609330000E-01  2.47655010000E-01

  32  32   1    1 H     3.85808390000E-01 -4.40681940000E-01 -2.52344990000E-01

  33  33   1    1 H     4.05840570000E-01  3.08823250000E-01  2.47595220000E-01

  34  34   1    1 H     4.82687130000E-01  4.62531980000E-01 -2.52404780000E-01

  35  35   1    1 H    -4.05709120000E-01 -3.09042070000E-01  2.47610220000E-01

  36  36   1    1 H    -3.28862560000E-01 -1.55333340000E-01 -2.52389780000E-01

  37  37   1    6 C    -1.08109690000E-01  4.45943690000E-01  2.49312940000E-01

  38  38   1    6 C    -3.12631300000E-02 -4.00347580000E-01 -2.50687060000E-01

  39  39   1    6 C    -5.35108900000E-02  3.92785630000E-01  2.48103070000E-01

  40  40   1    6 C     2.33356700000E-02 -4.53505640000E-01 -2.51896920000E-01

  41  41   1    6 C     5.33881200000E-02 -3.92814700000E-01  2.47998560000E-01

  42  42   1    6 C     1.30234680000E-01 -2.39105970000E-01 -2.52001440000E-01

  43  43   1    6 C    -5.35478900000E-02 -4.46307810000E-01  2.48312220000E-01

  44  44   1    6 C     2.32986700000E-02 -2.92599080000E-01 -2.51687780000E-01

  45  45   1    6 C     5.34263400000E-02  4.46249970000E-01  2.47505620000E-01

  46  46   1    6 C     1.30272900000E-01 -4.00041300000E-01 -2.52494380000E-01

  47  47   1    6 C     1.08035890000E-01 -4.45964370000E-01  2.48327140000E-01

  48  48   1    6 C     1.84882450000E-01 -2.92255640000E-01 -2.51672860000E-01

  49  49   1    6 C    -4.45960580000E-01  1.08168460000E-01  2.50687100000E-01

  50  50   1    6 C    -3.69114020000E-01  2.61877190000E-01 -2.49312900000E-01

  51  51   1    6 C    -3.92822150000E-01  5.35559400000E-02  2.51896930000E-01

  52  52   1    6 C    -3.15975590000E-01  2.07264670000E-01 -2.48103070000E-01

  53  53   1    6 C     3.92798670000E-01 -5.33368400000E-02  2.52001490000E-01

  54  54   1    6 C     4.69645230000E-01  1.00371890000E-01 -2.47998510000E-01

  55  55   1    6 C     4.46287580000E-01  5.36028600000E-02  2.51687840000E-01

  56  56   1    6 C    -4.76865860000E-01  2.07311590000E-01 -2.48312160000E-01

  57  57   1    6 C    -4.46283150000E-01 -5.33764400000E-02  2.52494380000E-01

  58  58   1    6 C    -3.69436590000E-01  1.00332290000E-01 -2.47505620000E-01

  59  59   1    6 C     4.45927910000E-01 -1.08007940000E-01  2.51672890000E-01

  60  60   1    6 C    -4.77225530000E-01  4.57007900000E-02 -2.48327120000E-01

  61  61   1    6 C    -4.45955130000E-01  4.45874550000E-01  2.49312940000E-01

  62  62   1    6 C    -3.69108570000E-01 -4.00416720000E-01 -2.50687060000E-01

  63  63   1    6 C    -3.92789780000E-01 -4.46374220000E-01  2.48103100000E-01

  64  64   1    6 C    -3.15943220000E-01 -2.92665490000E-01 -2.51896900000E-01

  65  65   1    6 C     3.92823370000E-01  4.46172030000E-01  2.47998540000E-01

  66  66   1    6 C     4.69669930000E-01 -4.00119240000E-01 -2.52001460000E-01

  67  67   1    6 C     4.46287260000E-01  3.92689990000E-01  2.48312180000E-01

  68  68   1    6 C    -4.76866180000E-01 -4.53601280000E-01 -2.51687810000E-01

  69  69   1    6 C    -4.46257040000E-01 -3.92902000000E-01  2.47505650000E-01

  70  70   1    6 C    -3.69410480000E-01 -2.39193270000E-01 -2.52494350000E-01

  71  71   1    6 C     4.45959980000E-01 -4.46041770000E-01  2.48327140000E-01

  72  72   1    6 C    -4.77193460000E-01 -2.92333040000E-01 -2.51672860000E-01

  73  73   1    8 O    -4.39263320000E-01  2.80370630000E-01  2.49686350000E-01

  74  74   1    8 O    -3.62416760000E-01  4.34079360000E-01 -2.50313650000E-01

  75  75   1    8 O    -2.80318300000E-01  2.80378330000E-01  2.52270340000E-01

  76  76   1    8 O    -2.03471740000E-01  4.34087060000E-01 -2.47729670000E-01

  77  77   1    8 O    -2.80320580000E-01  4.39323460000E-01  2.48371960000E-01

  78  78   1    8 O    -2.03474020000E-01 -4.06967810000E-01 -2.51628040000E-01

  79  79   1    8 O     2.80324510000E-01 -2.80348890000E-01  2.49686360000E-01

  80  80   1    8 O     3.57171070000E-01 -1.26640160000E-01 -2.50313640000E-01

  81  81   1    8 O     2.80343970000E-01 -4.39304390000E-01  2.52270340000E-01

  82  82   1    8 O     3.57190530000E-01 -2.85595660000E-01 -2.47729660000E-01

  83  83   1    8 O     4.39263840000E-01 -2.80364580000E-01  2.48371950000E-01

  84  84   1    8 O    -4.83889600000E-01 -1.26655850000E-01 -2.51628050000E-01

 NUMBER OF SYMMETRY OPERATORS         :    1
 *******************************************************************************
 * GEOMETRY EDITING - INPUT COORDINATES ARE GIVEN IN ANGSTROM         
 *******************************************************************************

 GCALCO - MAX INDICES DIRECT LATTICE VECTOR    12    12    20
 NO.OF VECTORS CREATED 6999 STARS 3500 RMAX   262.87005 BOHR

 GEOMETRY FOR WAVE FUNCTION - DIMENSIONALITY OF THE SYSTEM    3
 (NON PERIODIC DIRECTION: LATTICE PARAMETER FORMALLY SET TO 500)
 *******************************************************************************
 LATTICE PARAMETERS (ANGSTROMS AND DEGREES) - BOHR = 0.5291772083 ANGSTROM
 PRIMITIVE CELL - CENTRING CODE 1/0 VOLUME=  1602.948694 - DENSITY  0.808 g/cm^3
         A              B              C           ALPHA      BETA       GAMMA 
    15.02361100    15.02391600     8.20000000    90.000323  89.999944 119.995964
 *******************************************************************************
 ATOMS IN THE ASYMMETRIC UNIT   84 - ATOMS IN THE UNIT CELL:   84
     ATOM                 X/A                 Y/B                 Z/C    
 *******************************************************************************
      1 T   5 B    -3.863194600000E-01  2.273182200000E-01  2.505825300000E-01
      2 T   5 B    -3.094729000000E-01  3.810269500000E-01 -2.494174700000E-01
      3 T   5 B    -2.272638000000E-01  3.863778800000E-01  2.505825300000E-01
      4 T   5 B    -1.504172400000E-01 -4.599133900000E-01 -2.494174700000E-01
      5 T   5 B    -3.863237300000E-01  3.863606700000E-01  2.493577500000E-01
      6 T   5 B    -3.094771700000E-01 -4.599306000000E-01 -2.506422400000E-01
      7 T   5 B     2.272552500000E-01 -3.863667800000E-01  2.505825300000E-01
      8 T   5 B     3.041018100000E-01 -2.326580500000E-01 -2.494174600000E-01
      9 T   5 B     3.863632200000E-01 -3.863875500000E-01  2.505825300000E-01
     10 T   5 B     4.632097800000E-01 -2.326788200000E-01 -2.494174700000E-01
     11 T   5 B     3.863435000000E-01 -2.272483500000E-01  2.493577500000E-01
     12 T   5 B     4.631900600000E-01 -7.353962000000E-02 -2.506422400000E-01
     13 T   1 H    -9.695638000000E-02  3.089300500000E-01  2.480433200000E-01
     14 T   1 H    -2.010982000000E-02  4.626387800000E-01 -2.519566800000E-01
     15 T   1 H     9.663453000000E-02 -3.089465600000E-01  2.476550300000E-01
     16 T   1 H     1.734810900000E-01 -1.552378300000E-01 -2.523449700000E-01
     17 T   1 H    -9.702858000000E-02 -4.059275700000E-01  2.475952700000E-01
     18 T   1 H    -2.018202000000E-02 -2.522188400000E-01 -2.524047300000E-01
     19 T   1 H     9.673618000000E-02  4.056849400000E-01  2.476101700000E-01
     20 T   1 H     1.735827400000E-01 -4.406063300000E-01 -2.523898200000E-01
     21 T   1 H    -3.089676000000E-01  9.700412000000E-02  2.519567000000E-01
     22 T   1 H    -2.321210400000E-01  2.507128500000E-01 -2.480433000000E-01
     23 T   1 H     3.089297200000E-01 -9.656269000000E-02  2.523450200000E-01
     24 T   1 H     3.857762800000E-01  5.714604000000E-02 -2.476549800000E-01
     25 T   1 H     4.058699900000E-01  9.704998000000E-02  2.524048100000E-01
     26 T   1 H     4.827165500000E-01  2.507587100000E-01 -2.475951900000E-01
     27 T   1 H    -4.056877900000E-01 -9.665268000000E-02  2.523898100000E-01
     28 T   1 H    -3.288412300000E-01  5.705605000000E-02 -2.476101900000E-01
     29 T   1 H    -3.089272600000E-01 -4.059457900000E-01  2.480433400000E-01
     30 T   1 H    -2.320807000000E-01 -2.522370600000E-01 -2.519566600000E-01
     31 T   1 H     3.089618300000E-01  4.056093300000E-01  2.476550100000E-01
     32 T   1 H     3.858083900000E-01 -4.406819400000E-01 -2.523449900000E-01
     33 T   1 H     4.058405700000E-01  3.088232500000E-01  2.475952200000E-01
     34 T   1 H     4.826871300000E-01  4.625319800000E-01 -2.524047800000E-01
     35 T   1 H    -4.057091200000E-01 -3.090420700000E-01  2.476102200000E-01
     36 T   1 H    -3.288625600000E-01 -1.553333400000E-01 -2.523897800000E-01
     37 T   6 C    -1.081096900000E-01  4.459436900000E-01  2.493129400000E-01
     38 T   6 C    -3.126313000000E-02 -4.003475800000E-01 -2.506870600000E-01
     39 T   6 C    -5.351089000000E-02  3.927856300000E-01  2.481030700000E-01
     40 T   6 C     2.333567000000E-02 -4.535056400000E-01 -2.518969200000E-01
     41 T   6 C     5.338812000000E-02 -3.928147000000E-01  2.479985600000E-01
     42 T   6 C     1.302346800000E-01 -2.391059700000E-01 -2.520014400000E-01
     43 T   6 C    -5.354789000000E-02 -4.463078100000E-01  2.483122200000E-01
     44 T   6 C     2.329867000000E-02 -2.925990800000E-01 -2.516877800000E-01
     45 T   6 C     5.342634000000E-02  4.462499700000E-01  2.475056200000E-01
     46 T   6 C     1.302729000000E-01 -4.000413000000E-01 -2.524943800000E-01
     47 T   6 C     1.080358900000E-01 -4.459643700000E-01  2.483271400000E-01
     48 T   6 C     1.848824500000E-01 -2.922556400000E-01 -2.516728600000E-01
     49 T   6 C    -4.459605800000E-01  1.081684600000E-01  2.506871000000E-01
     50 T   6 C    -3.691140200000E-01  2.618771900000E-01 -2.493129000000E-01
     51 T   6 C    -3.928221500000E-01  5.355594000000E-02  2.518969300000E-01
     52 T   6 C    -3.159755900000E-01  2.072646700000E-01 -2.481030700000E-01
     53 T   6 C     3.927986700000E-01 -5.333684000000E-02  2.520014900000E-01
     54 T   6 C     4.696452300000E-01  1.003718900000E-01 -2.479985100000E-01
     55 T   6 C     4.462875800000E-01  5.360286000000E-02  2.516878400000E-01
     56 T   6 C    -4.768658600000E-01  2.073115900000E-01 -2.483121600000E-01
     57 T   6 C    -4.462831500000E-01 -5.337644000000E-02  2.524943800000E-01
     58 T   6 C    -3.694365900000E-01  1.003322900000E-01 -2.475056200000E-01
     59 T   6 C     4.459279100000E-01 -1.080079400000E-01  2.516728900000E-01
     60 T   6 C    -4.772255300000E-01  4.570079000000E-02 -2.483271200000E-01
     61 T   6 C    -4.459551300000E-01  4.458745500000E-01  2.493129400000E-01
     62 T   6 C    -3.691085700000E-01 -4.004167200000E-01 -2.506870600000E-01
     63 T   6 C    -3.927897800000E-01 -4.463742200000E-01  2.481031000000E-01
     64 T   6 C    -3.159432200000E-01 -2.926654900000E-01 -2.518969000000E-01
     65 T   6 C     3.928233700000E-01  4.461720300000E-01  2.479985400000E-01
     66 T   6 C     4.696699300000E-01 -4.001192400000E-01 -2.520014600000E-01
     67 T   6 C     4.462872600000E-01  3.926899900000E-01  2.483121800000E-01
     68 T   6 C    -4.768661800000E-01 -4.536012800000E-01 -2.516878100000E-01
     69 T   6 C    -4.462570400000E-01 -3.929020000000E-01  2.475056500000E-01
     70 T   6 C    -3.694104800000E-01 -2.391932700000E-01 -2.524943500000E-01
     71 T   6 C     4.459599800000E-01 -4.460417700000E-01  2.483271400000E-01
     72 T   6 C    -4.771934600000E-01 -2.923330400000E-01 -2.516728600000E-01
     73 T   8 O    -4.392633200000E-01  2.803706300000E-01  2.496863500000E-01
     74 T   8 O    -3.624167600000E-01  4.340793600000E-01 -2.503136500000E-01
     75 T   8 O    -2.803183000000E-01  2.803783300000E-01  2.522703400000E-01
     76 T   8 O    -2.034717400000E-01  4.340870600000E-01 -2.477296700000E-01
     77 T   8 O    -2.803205800000E-01  4.393234600000E-01  2.483719600000E-01
     78 T   8 O    -2.034740200000E-01 -4.069678100000E-01 -2.516280400000E-01
     79 T   8 O     2.803245100000E-01 -2.803488900000E-01  2.496863600000E-01
     80 T   8 O     3.571710700000E-01 -1.266401600000E-01 -2.503136400000E-01
     81 T   8 O     2.803439700000E-01 -4.393043900000E-01  2.522703400000E-01
     82 T   8 O     3.571905300000E-01 -2.855956600000E-01 -2.477296600000E-01
     83 T   8 O     4.392638400000E-01 -2.803645800000E-01  2.483719500000E-01
     84 T   8 O    -4.838896000000E-01 -1.266558500000E-01 -2.516280500000E-01

 T = ATOM BELONGING TO THE ASYMMETRIC UNIT

 ****    1 SYMMOPS - TRANSLATORS IN FRACTIONAL UNITS
 **** MATRICES AND TRANSLATORS IN THE CRYSTALLOGRAPHIC REFERENCE FRAME
   V INV                    ROTATION MATRICES                   TRANSLATORS
   1   1  1.00  0.00  0.00  0.00  1.00  0.00  0.00  0.00  1.00  0.00  0.00  0.00

 DIRECT LATTICE VECTORS CARTESIAN COMPONENTS (ANGSTROM)
          X                    Y                    Z
   0.130113578931E+02  -0.751088897922E+01   0.000000000000E+00
   0.000000000000E+00   0.150239160000E+02   0.000000000000E+00
  -0.174306773528E-04  -0.462267905665E-04   0.819999999985E+01


 CARTESIAN COORDINATES - PRIMITIVE CELL
 *******************************************************************************
 *      ATOM          X(ANGSTROM)         Y(ANGSTROM)         Z(ANGSTROM)
 *******************************************************************************
    1     5 B    -5.026545122936E+00  6.316800833494E+00  2.054776745963E+00
    2     5 B    -4.026658312587E+00 -6.974970985718E+00 -2.045223253963E+00
    3     5 B    -2.957015005759E+00  7.511850400547E+00  2.054776745963E+00
    4     5 B    -1.957128195410E+00 -5.779921418666E+00 -2.045223253963E+00
    5     5 B    -5.026600660085E+00 -6.317642629158E+00  2.044733549963E+00
    6     5 B    -4.026713849736E+00 -4.585498448371E+00 -2.055266367963E+00
    7     5 B     2.956895023003E+00 -7.511642584231E+00  2.054776745963E+00
    8     5 B     3.956781833352E+00 -5.779498403444E+00 -2.045223171963E+00
    9     5 B     5.027105764311E+00  6.316919070655E+00  2.054776745963E+00
   10     5 B    -6.984365318397E+00  5.360362306592E-01 -2.045223253963E+00
   11     5 B     5.026849201682E+00 -6.315954784889E+00  2.044733549963E+00
   12     5 B     6.026736012030E+00 -4.583810604102E+00 -2.055266367963E+00
   13     1 H    -1.261538483758E+00  5.369556260836E+00  2.033955223963E+00
   14     1 H    -2.616516734094E-01  7.101700441623E+00 -2.066044775963E+00
   15     1 H     1.257342137862E+00 -5.367409840615E+00  2.030771245963E+00
   16     1 H     2.257228948211E+00 -3.635265659828E+00 -2.069228753962E+00
   17     1 H    -1.262477895988E+00 -5.369862267108E+00  2.030281213963E+00
   18     1 H    -2.625910856394E-01 -3.637718086321E+00 -2.069718785962E+00
   19     1 H     1.258664743174E+00  5.368390306548E+00  2.030403393963E+00
   20     1 H     2.258551553523E+00  7.100534487335E+00 -2.069596523962E+00
   21     1 H    -4.020092412735E+00  3.777991445159E+00  2.066044939963E+00
   22     1 H    -3.020205602386E+00  5.510135625947E+00 -2.033955059963E+00
   23     1 H     4.019590752177E+00 -3.771098237695E+00  2.069229163962E+00
   24     1 H     5.019477562526E+00 -2.038954056908E+00 -2.030770835963E+00
   25     1 H     5.280915298354E+00 -1.590385355428E+00  2.069719441962E+00
   26     1 H     6.280802108703E+00  1.417588253590E-01 -2.030280557963E+00
   27     1 H    -5.278553427859E+00  1.594962538248E+00  2.069596441962E+00
   28     1 H    -4.278666617510E+00  3.327106719035E+00 -2.030403557963E+00
   29     1 H    -4.019567466345E+00 -3.778588563248E+00  2.033955387963E+00
   30     1 H    -3.019680655996E+00 -2.046444382460E+00 -2.066044611963E+00
   31     1 H     4.020008628629E+00  3.773251050494E+00  2.030771081963E+00
   32     1 H     5.019895438978E+00  5.505395231282E+00 -2.069228917962E+00
   33     1 H     5.280532588040E+00  1.591499656783E+00  2.030280803963E+00
   34     1 H     6.280419398389E+00  3.323643837570E+00 -2.069719195962E+00
   35     1 H    -5.278830876811E+00 -1.595797388196E+00  2.030403803963E+00
   36     1 H    -4.278944066462E+00  1.363467925910E-01 -2.069596195962E+00
   37     6 C    -1.406658213991E+00  7.511808893520E+00  2.044366107963E+00
   38     6 C    -4.067714036419E-01 -5.779962925692E+00 -2.055633891963E+00
   39     6 C    -6.962536655705E-01  6.303081196087E+00  2.034445173963E+00
   40     6 C     3.036331447782E-01 -6.988690623126E+00 -2.065554743963E+00
   41     6 C     6.946476137746E-01 -6.302618762672E+00  2.033588191963E+00
   42     6 C     1.694534424123E+00 -4.570474581885E+00 -2.066411807962E+00
   43     6 C    -6.967350894582E-01 -6.303110269400E+00  2.036160203963E+00
   44     6 C     3.031517208907E-01 -4.570966088612E+00 -2.063839795963E+00
   45     6 C     6.951449164655E-01  6.303131314586E+00  2.029546083963E+00
   46     6 C     1.695031726814E+00 -6.988640504627E+00 -2.070453915962E+00
   47     6 C     1.405689301575E+00 -7.511588288800E+00  2.036282547963E+00
   48     6 C     2.405576111924E+00 -5.779444108013E+00 -2.063717451963E+00
   49     6 C     7.208800810836E+00 -2.536226305300E+00  2.055634219963E+00
   50     6 C     8.208687621184E+00 -8.040821245129E-01 -2.044365779963E+00
   51     6 C    -5.111153972704E+00  3.755051856702E+00  2.065554825963E+00
   52     6 C    -4.111267162355E+00  5.487196037489E+00 -2.034445173963E+00
   53     6 C     5.110839682730E+00 -3.751607054639E+00  2.066412217962E+00
   54     6 C     6.110726493079E+00 -2.019462873852E+00 -2.033587781963E+00
   55     6 C     5.806803039517E+00 -2.546703234904E+00  2.063840287963E+00
   56     6 C     6.806689849866E+00 -8.145590541172E-01 -2.036159711963E+00
   57     6 C    -5.806754187439E+00  2.550048370001E+00  2.070453915962E+00
   58     6 C    -4.806867377090E+00  4.282192550788E+00 -2.029546083963E+00
   59     6 C     5.802123244684E+00 -4.972028876667E+00  2.063717697963E+00
   60     6 C     6.802010055033E+00 -3.239884695879E+00 -2.036282383963E+00
   61     6 C     7.208871746689E+00  2.537400752726E+00  2.044366107963E+00
   62     6 C    -4.802599336019E+00 -3.243482087270E+00 -2.055633891963E+00
   63     6 C    -5.110732728920E+00 -3.756099825105E+00  2.034445419963E+00
   64     6 C    -4.110845918571E+00 -2.023955644317E+00 -2.065554579963E+00
   65     6 C     5.111161133044E+00  3.752786915581E+00  2.033588027963E+00
   66     6 C    -6.900309949664E+00 -2.028095924415E+00 -2.066411971962E+00
   67     6 C     5.806798934722E+00  2.547715882427E+00  2.036159875963E+00
   68     6 C    -6.204672147986E+00 -3.233166957570E+00 -2.063840041963E+00
   69     6 C    -5.806414373927E+00 -2.551151001990E+00  2.029546329963E+00
   70     6 C    -4.806527563578E+00 -8.190068212028E-01 -2.070453669962E+00
   71     6 C     5.802540577250E+00  4.973054536708E+00  2.036282547963E+00
   72     6 C    -6.208930505458E+00 -8.078283032879E-01 -2.063717451963E+00
   73     8 O     7.295941275042E+00  6.223017340462E-04  2.047428069963E+00
   74     8 O    -4.715529807666E+00 -5.780260538262E+00 -2.052571929963E+00
   75     8 O    -3.647326122516E+00  6.317808446635E+00  2.068616787962E+00
   76     8 O    -2.647439312167E+00 -6.973963372577E+00 -2.031383293963E+00
   77     8 O    -3.647355720461E+00 -6.318111966600E+00  2.036650071963E+00
   78     8 O    -2.647468910112E+00 -4.585967785812E+00 -2.063349927963E+00
   79     8 O     3.647398173603E+00 -6.317435989016E+00  2.047428151963E+00
   80     8 O     4.647284983952E+00 -4.585291808228E+00 -2.052571847963E+00
   81     8 O     3.647651329587E+00  6.318199649898E+00  2.068616787962E+00
   82     8 O     4.647538139936E+00 -6.973572169315E+00 -2.031383211963E+00
   83     8 O    -7.295943190630E+00 -5.583363412392E-04  2.036649989963E+00
   84     8 O    -6.296056380281E+00  1.731585844446E+00 -2.063350009963E+00

 *******************************************************************************
 STARTING BASIS SET HANDLING 
 *******************************************************************************

 Loading internal basis set: SOLDEF2MSVP         

 Please cite in your publication:
 L. Dona', J. G. Brandenburg and B. Civalleri, J. Chem. Phys., 151, 121101 (2019
 )                                                                              
                                                                                
                    

 *******************************************************************************
 LOCAL ATOMIC FUNCTIONS BASIS SET
 *******************************************************************************
   ATOM   X(AU)   Y(AU)   Z(AU)  N. TYPE  EXPONENT  S COEF   P COEF   D/F/G COEF
 *******************************************************************************
   1 B   -9.499  11.937   3.883
                                  1 S  
                                         2.410E+03 1.755E-03 0.000E+00 0.000E+00
                                         3.619E+02 1.344E-02 0.000E+00 0.000E+00
                                         8.231E+01 6.637E-02 0.000E+00 0.000E+00
                                         2.311E+01 2.303E-01 0.000E+00 0.000E+00
                                         7.252E+00 5.150E-01 0.000E+00 0.000E+00
                                  2 S  
                                         2.367E+00 1.000E+00 0.000E+00 0.000E+00
                                  3 S  
                                         5.533E-01 1.000E+00 0.000E+00 0.000E+00
                                  4 S  
                                         1.716E-01 1.000E+00 0.000E+00 0.000E+00
                           5-     7 P  
                                         6.002E+00 0.000E+00-3.555E-02 0.000E+00
                                         1.240E+00 0.000E+00-1.983E-01 0.000E+00
                                         3.367E-01 0.000E+00-5.048E-01 0.000E+00
                           8-    10 P  
                                         1.256E-01 0.000E+00 1.000E+00 0.000E+00
                          11-    15 D  
                                         8.880E-01 0.000E+00 0.000E+00 1.000E+00
   2 B   -7.609 -13.181  -3.865
   3 B   -5.588  14.195   3.883
   4 B   -3.698 -10.922  -3.865
   5 B   -9.499 -11.939   3.864
   6 B   -7.609  -8.665  -3.884
   7 B    5.588 -14.195   3.883
   8 B    7.477 -10.922  -3.865
   9 B    9.500  11.937   3.883
  10 B  -13.199   1.013  -3.865
  11 B    9.499 -11.935   3.864
  12 B   11.389  -8.662  -3.884
  13 H   -2.384  10.147   3.844
                                181 S  
                                         1.874E+01 1.968E-02 0.000E+00 0.000E+00
                                         2.826E+00 1.380E-01 0.000E+00 0.000E+00
                                         6.401E-01 4.783E-01 0.000E+00 0.000E+00
                                182 S  
                                         1.756E-01 1.000E+00 0.000E+00 0.000E+00
  14 H   -0.494  13.420  -3.904
  15 H    2.376 -10.143   3.838
  16 H    4.266  -6.870  -3.910
  17 H   -2.386 -10.148   3.837
  18 H   -0.496  -6.874  -3.911
  19 H    2.379  10.145   3.837
  20 H    4.268  13.418  -3.911
  21 H   -7.597   7.139   3.904
  22 H   -5.707  10.413  -3.844
  23 H    7.596  -7.126   3.910
  24 H    9.485  -3.853  -3.838
  25 H    9.979  -3.005   3.911
  26 H   11.869   0.268  -3.837
  27 H   -9.975   3.014   3.911
  28 H   -8.086   6.287  -3.837
  29 H   -7.596  -7.140   3.844
  30 H   -5.706  -3.867  -3.904
  31 H    7.597   7.130   3.838
  32 H    9.486  10.404  -3.910
  33 H    9.979   3.007   3.837
  34 H   11.868   6.281  -3.911
  35 H   -9.976  -3.016   3.837
  36 H   -8.086   0.258  -3.911
  37 C   -2.658  14.195   3.863
                                229 S  
                                         3.624E+03 1.634E-03 0.000E+00 0.000E+00
                                         5.440E+02 1.252E-02 0.000E+00 0.000E+00
                                         1.237E+02 6.211E-02 0.000E+00 0.000E+00
                                         3.476E+01 2.182E-01 0.000E+00 0.000E+00
                                         1.093E+01 4.980E-01 0.000E+00 0.000E+00
                                230 S  
                                         3.574E+00 1.000E+00 0.000E+00 0.000E+00
                                231 S  
                                         7.742E-01 1.000E+00 0.000E+00 0.000E+00
                                232 S  
                                         2.330E-01 1.000E+00 0.000E+00 0.000E+00
                         233-   235 P  
                                         9.443E+00 0.000E+00 3.790E-02 0.000E+00
                                         2.002E+00 0.000E+00 2.082E-01 0.000E+00
                                         5.463E-01 0.000E+00 5.047E-01 0.000E+00
                         236-   238 P  
                                         1.820E-01 0.000E+00 1.000E+00 0.000E+00
                         239-   243 D  
                                         8.880E-01 0.000E+00 0.000E+00 1.000E+00
  38 C   -0.769 -10.923  -3.885
  39 C   -1.316  11.911   3.845
  40 C    0.574 -13.207  -3.903
  41 C    1.313 -11.910   3.843
  42 C    3.202  -8.637  -3.905
  43 C   -1.317 -11.911   3.848
  44 C    0.573  -8.638  -3.900
  45 C    1.314  11.911   3.835
  46 C    3.203 -13.207  -3.913
  47 C    2.656 -14.195   3.848
  48 C    4.546 -10.922  -3.900
  49 C   13.623  -4.793   3.885
  50 C   15.512  -1.519  -3.863
  51 C   -9.659   7.096   3.903
  52 C   -7.769  10.369  -3.845
  53 C    9.658  -7.090   3.905
  54 C   11.548  -3.816  -3.843
  55 C   10.973  -4.813   3.900
  56 C   12.863  -1.539  -3.848
  57 C  -10.973   4.819   3.913
  58 C   -9.084   8.092  -3.835
  59 C   10.964  -9.396   3.900
  60 C   12.854  -6.122  -3.848
  61 C   13.623   4.795   3.863
  62 C   -9.076  -6.129  -3.885
  63 C   -9.658  -7.098   3.845
  64 C   -7.768  -3.825  -3.903
  65 C    9.659   7.092   3.843
  66 C  -13.040  -3.833  -3.905
  67 C   10.973   4.814   3.848
  68 C  -11.725  -6.110  -3.900
  69 C  -10.973  -4.821   3.835
  70 C   -9.083  -1.548  -3.913
  71 C   10.965   9.398   3.848
  72 C  -11.733  -1.527  -3.900
  73 O   13.787   0.001   3.869
                                769 S  
                                         6.773E+03 1.727E-03 0.000E+00 0.000E+00
                                         1.017E+03 1.325E-02 0.000E+00 0.000E+00
                                         2.313E+02 6.603E-02 0.000E+00 0.000E+00
                                         6.501E+01 2.353E-01 0.000E+00 0.000E+00
                                         2.050E+01 5.498E-01 0.000E+00 0.000E+00
                                770 S  
                                         6.716E+00 1.000E+00 0.000E+00 0.000E+00
                                771 S  
                                         1.147E+00 1.000E+00 0.000E+00 0.000E+00
                                772 S  
                                         3.342E-01 1.000E+00 0.000E+00 0.000E+00
                         773-   775 P  
                                         1.769E+01 0.000E+00 4.359E-02 0.000E+00
                                         3.854E+00 0.000E+00 2.318E-01 0.000E+00
                                         1.047E+00 0.000E+00 5.146E-01 0.000E+00
                         776-   778 P  
                                         2.759E-01 0.000E+00 1.000E+00 0.000E+00
                         779-   783 D  
                                         8.000E-01 0.000E+00 0.000E+00 1.000E+00
  74 O   -8.911 -10.923  -3.879
  75 O   -6.892  11.939   3.909
  76 O   -5.003 -13.179  -3.839
  77 O   -6.893 -11.940   3.849
  78 O   -5.003  -8.666  -3.899
  79 O    6.893 -11.938   3.869
  80 O    8.782  -8.665  -3.879
  81 O    6.893  11.940   3.909
  82 O    8.783 -13.178  -3.839
  83 O  -13.787  -0.001   3.849
  84 O  -11.898   3.272  -3.899

 *******************************************************************************
 FINISHED BASIS SET HANDLING 
 *******************************************************************************

 INFORMATION **** SET_MPP **** PCRYSTAL CALCULATION
 INFORMATION **** READM2 **** NEW DEFAULT: FOCK/KS MATRIX MIXING SET TO 30 %
 INFORMATION **** READM2 **** NEW DEFAULT: FULL DIRECT SCF MODE
 INFORMATION **** READM2 **** NEW DEFAULT: COULOMB BIPOLAR BUFFER SET TO 32 Mb
 INFORMATION **** READM2 **** NEW DEFAULT: EXCHANGE BIPOLAR BUFFER SET TO 32 Mb

 *******************************************************************************
 NEW DEFAULT: DFT INTEGRATION GRID INCREASED TO XLGRID
 NEW DEFAULT: DIIS ACCELERATOR ACTIVE
 USE KEYWORD NODIIS TO TURN IT OFF
 *******************************************************************************

 WARNING **** RDDFTP **** HSEsol-HJS ACTIVE
 RANGE SEPARATION - OMEGA:   0.110000000000000     
 WARNING **** RDDFTP **** HSEsol-3c has to be combined with sol-def2-mSVP basis set
 *******************************************************************************
 N. OF ATOMS PER CELL        84  COULOMB OVERLAP TOL         (T1) 10**   -6
 NUMBER OF SHELLS           468  COULOMB PENETRATION TOL     (T2) 10**   -6
 NUMBER OF AO               948  EXCHANGE OVERLAP TOL        (T3) 10**   -6
 N. OF ELECTRONS PER CELL   396  EXCHANGE PSEUDO OVP (F(G))  (T4) 10**   -6
 CORE ELECTRONS PER CELL    120  EXCHANGE PSEUDO OVP (P(G))  (T5) 10**  -12
 N. OF SYMMETRY OPERATORS     1  POLE ORDER IN MONO ZONE                  4
 *******************************************************************************
 TYPE OF CALCULATION :  RESTRICTED CLOSED SHELL
 KOHN-SHAM HAMILTONIAN

 (EXCHANGE)[CORRELATION] FUNCTIONAL:(HSEsol GGA)[PBEsol]

 RANGE-SEPARATED HYBRID FUNCTIONAL 
 OMEGA (SHORT-RANGE)[LONG-RANGE]:(    0.1100)[    0.0000]

 HYBRID EXCHANGE - PERCENTAGE OF FOCK EXCHANGE    25.0000

 CAPPA:IS1  2;IS2  2;IS3  8; K PTS MONK NET  20; SYMMOPS:K SPACE   2;G SPACE   1

 *******************************************************************************
 MAX NUMBER OF SCF CYCLES      50  CONVERGENCE ON DELTAP        10**-16
 WEIGHT OF F(I) IN F(I+1)      30% CONVERGENCE ON ENERGY        10**- 6
 SHRINK. FACT.(MONKH.)    2  2  8  NUMBER OF K POINTS IN THE IBZ     20
 SHRINKING FACTOR(GILAT NET)    8  NUMBER OF K POINTS(GILAT NET)   1028
 *******************************************************************************
 *** K POINTS COORDINATES (OBLIQUE COORDINATES IN UNITS OF IS =  2)
   1-R(  0  0  0)   2-R(  1  0  0)   3-R(  0  1  0)   4-R(  1  1  0)
   5-C(  0  0  1)   6-C(  1  0  1)   7-C(  0  1  1)   8-C(  1  1  1)
   9-C(  0  0  2)  10-C(  1  0  2)  11-C(  0  1  2)  12-C(  1  1  2)
  13-C(  0  0  3)  14-C(  1  0  3)  15-C(  0  1  3)  16-C(  1  1  3)
  17-R(  0  0  4)  18-R(  1  0  4)  19-R(  0  1  4)  20-R(  1  1  4)

 DIRECT LATTICE VECTORS COMPON. (A.U.)     RECIP. LATTICE VECTORS COMPON. (A.U.) 
        X            Y            Z              X            Y            Z
   24.5879030  -14.1935232    0.0000000      0.2555397    0.0000000    0.0000005
    0.0000000   28.3910867    0.0000000      0.1277517    0.2213084    0.0000015
   -0.0000329   -0.0000874   15.4957543      0.0000000    0.0000000    0.4054779

 DISK SPACE FOR EIGENVECTORS (FTN 10)    28758528 REALS

 SYMMETRY ADAPTION OF THE BLOCH FUNCTIONS DISABLED
 TTTTTTTTTTTTTTTTTTTTTTTTTTTTTT gordsh1     TELAPSE        0.05 TCPU        0.05

 MATRIX SIZE: P(G)  645682, F(G)  133260, P(G) IRR  324743, F(G) IRR  134220
 MAX G-VECTOR INDEX FOR 1- AND 2-ELECTRON INTEGRALS  53

 TTTTTTTTTTTTTTTTTTTTTTTTTTTTTT INPUT       TELAPSE        2.61 TCPU        2.61

 NEIGHBORS OF THE NON-EQUIVALENT ATOMS

 N = NUMBER OF NEIGHBORS AT DISTANCE R
    ATOM  N     R/ANG      R/AU   NEIGHBORS (ATOM LABELS AND CELL INDICES)
   1 B    1     1.3791     2.6061   73 O   -1 0 0
   1 B    1     1.3793     2.6065   75 O    0 0 0
   1 B    1     1.5503     2.9297   49 C   -1 0 0
   1 B    1     2.3895     4.5155    5 B    0 1 0
   1 B    1     2.3898     4.5160    3 B    0 0 0
   1 B    1     2.5632     4.8437   51 C    0 0 0

   2 B    1     1.3791     2.6061   74 O    0 0 0
   2 B    1     1.3793     2.6065   76 O    0 0 0
   2 B    1     1.5503     2.9297   50 C   -1-1 0
   2 B    1     2.3895     4.5155    6 B    0 0 0
   2 B    1     2.3898     4.5160    4 B    0 0 0
   2 B    1     2.5632     4.8437   52 C    0-1 0

   3 B    1     1.3793     2.6065   77 O    0 1 0
   3 B    1     1.3793     2.6065   75 O    0 0 0
   3 B    1     1.5504     2.9298   37 C    0 0 0
   3 B    1     2.3895     4.5156    5 B    0 1 0
   3 B    1     2.3898     4.5160    1 B    0 0 0
   3 B    1     2.5634     4.8440   43 C    0 1 0

   4 B    1     1.3793     2.6065   78 O    0 0 0
   4 B    1     1.3793     2.6065   76 O    0 0 0
   4 B    1     1.5504     2.9298   38 C    0 0 0
   4 B    1     2.3895     4.5156    6 B    0 0 0
   4 B    1     2.3898     4.5160    2 B    0 0 0
   4 B    1     2.5634     4.8440   44 C    0 0 0

   5 B    1     1.3791     2.6061   73 O   -1-1 0
   5 B    1     1.3793     2.6064   77 O    0 0 0
   5 B    1     1.5502     2.9294   61 C   -1-1 0
   5 B    1     2.3895     4.5155    1 B    0-1 0
   5 B    1     2.3895     4.5156    3 B    0-1 0
   5 B    1     2.5629     4.8433   63 C    0 0 0

   6 B    1     1.3791     2.6061   74 O    0 0 0
   6 B    1     1.3793     2.6064   78 O    0 0 0
   6 B    1     1.5502     2.9294   62 C    0 0 0
   6 B    1     2.3895     4.5155    2 B    0 0 0
   6 B    1     2.3895     4.5156    4 B    0 0 0
   6 B    1     2.5629     4.8433   64 C    0 0 0

   7 B    1     1.3795     2.6068   79 O    0 0 0
   7 B    1     1.3795     2.6070   81 O    0-1 0
   7 B    1     1.5513     2.9316   47 C    0 0 0
   7 B    1     2.3905     4.5174   11 B    0 0 0
   7 B    1     2.3905     4.5175    9 B    0-1 0
   7 B    1     2.5648     4.8468   45 C    0-1 0

   8 B    1     1.3795     2.6068   80 O    0 0 0
   8 B    1     1.3795     2.6070   82 O    0 0 0
   8 B    1     1.5513     2.9316   48 C    0 0 0
   8 B    1     2.3905     4.5174   12 B    0 0 0
   8 B    1     2.3905     4.5175   10 B    1 0 0
   8 B    1     2.5648     4.8468   46 C    0 0 0

   9 B    1     1.3795     2.6069   81 O    0 0 0
   9 B    1     1.3797     2.6072   83 O    1 1 0
   9 B    1     1.5516     2.9322   71 C    0 0 0
   9 B    1     2.3905     4.5175    7 B    0 1 0
   9 B    1     2.3911     4.5185   11 B    0 1 0
   9 B    1     2.5651     4.8473   69 C    1 1 0

  10 B    1     1.3795     2.6069   82 O   -1 0 0
  10 B    1     1.3797     2.6072   84 O    0 0 0
  10 B    1     1.5516     2.9322   72 C    0 0 0
  10 B    1     2.3905     4.5175    8 B   -1 0 0
  10 B    1     2.3911     4.5185   12 B   -1 0 0
  10 B    1     2.5651     4.8473   70 C    0 0 0

  11 B    1     1.3795     2.6068   79 O    0 0 0
  11 B    1     1.3796     2.6071   83 O    1 0 0
  11 B    1     1.5516     2.9322   59 C    0 0 0
  11 B    1     2.3905     4.5174    7 B    0 0 0
  11 B    1     2.3911     4.5185    9 B    0-1 0
  11 B    1     2.5651     4.8473   57 C    1 0 0

  12 B    1     1.3795     2.6068   80 O    0 0 0
  12 B    1     1.3796     2.6071   84 O    1 0 0
  12 B    1     1.5516     2.9322   60 C    0 0 0
  12 B    1     2.3905     4.5174    8 B    0 0 0
  12 B    1     2.3911     4.5185   10 B    1 0 0
  12 B    1     2.5651     4.8473   58 C    1 0 0

  13 H    1     1.0913     2.0623   39 C    0 0 0
  13 H    1     2.1472     4.0576   37 C    0 0 0
  13 H    1     2.1680     4.0969   45 C    0 0 0
  13 H    1     2.5202     4.7625   19 H    0 0 0
  13 H    1     2.5676     4.8520   75 O    0 0 0
  13 H    1     2.7321     5.1630    3 B    0 0 0

  14 H    1     1.0913     2.0623   40 C    0 1 0
  14 H    1     2.1472     4.0576   38 C    0 1 0
  14 H    1     2.1680     4.0969   46 C    0 1 0
  14 H    1     2.5202     4.7625   20 H    0 0 0
  14 H    1     2.5676     4.8520   76 O    0 1 0
  14 H    1     2.7321     5.1630    4 B    0 1 0

  15 H    1     1.0914     2.0625   41 C    0 0 0
  15 H    1     2.1493     4.0616   47 C    0 0 0
  15 H    1     2.1666     4.0942   43 C    0 0 0
  15 H    1     2.5198     4.7618   17 H    0 0 0
  15 H    1     2.5720     4.8604   79 O    0 0 0
  15 H    1     2.7362     5.1707    7 B    0 0 0

  16 H    1     1.0914     2.0625   42 C    0 0 0
  16 H    1     2.1493     4.0616   48 C    0 0 0
  16 H    1     2.1666     4.0942   44 C    0 0 0
  16 H    1     2.5198     4.7618   18 H    0 0 0
  16 H    1     2.5720     4.8604   80 O    0 0 0
  16 H    1     2.7362     5.1707    8 B    0 0 0

  17 H    1     1.0914     2.0624   43 C    0 0 0
  17 H    1     2.1471     4.0575   37 C    0-1 0
  17 H    1     2.1680     4.0970   41 C    0 0 0
  17 H    1     2.5198     4.7618   15 H    0 0 0
  17 H    1     2.5665     4.8500   77 O    0 0 0
  17 H    1     2.7315     5.1618    3 B    0-1 0

  18 H    1     1.0914     2.0624   44 C    0 0 0
  18 H    1     2.1471     4.0575   38 C    0 0 0
  18 H    1     2.1680     4.0970   42 C    0 0 0
  18 H    1     2.5198     4.7618   16 H    0 0 0
  18 H    1     2.5665     4.8500   78 O    0 0 0
  18 H    1     2.7315     5.1618    4 B    0 0 0

  19 H    1     1.0915     2.0626   45 C    0 0 0
  19 H    1     2.1490     4.0610   47 C    0 1 0
  19 H    1     2.1669     4.0948   39 C    0 0 0
  19 H    1     2.5202     4.7625   13 H    0 0 0
  19 H    1     2.5712     4.8588   81 O    0 0 0
  19 H    1     2.7351     5.1686    7 B    0 1 0

  20 H    1     1.0915     2.0626   46 C    0 1 0
  20 H    1     2.1490     4.0610   48 C    0 1 0
  20 H    1     2.1669     4.0948   40 C    0 1 0
  20 H    1     2.5202     4.7625   14 H    0 0 0
  20 H    1     2.5712     4.8588   82 O    0 1 0
  20 H    1     2.7351     5.1686    8 B    0 1 0

  21 H    1     1.0913     2.0623   51 C    0 0 0
  21 H    1     2.1469     4.0571   49 C   -1 0 0
  21 H    1     2.1680     4.0968   57 C    0 0 0
  21 H    1     2.5198     4.7617   27 H    0 0 0
  21 H    1     2.5670     4.8510   75 O    0 0 0
  21 H    1     2.7310     5.1609    1 B    0 0 0

  22 H    1     1.0913     2.0623   52 C    0 0 0
  22 H    1     2.1469     4.0571   50 C   -1 0 0
  22 H    1     2.1680     4.0968   58 C    0 0 0
  22 H    1     2.5198     4.7617   28 H    0 0 0
  22 H    1     2.5670     4.8510   76 O    0 1 0
  22 H    1     2.7310     5.1609    2 B    0 1 0

  23 H    1     1.0914     2.0625   53 C    0 0 0
  23 H    1     2.1493     4.0617   59 C    0 0 0
  23 H    1     2.1664     4.0939   55 C    0 0 0
  23 H    1     2.5192     4.7606   25 H    0 0 0
  23 H    1     2.5735     4.8632   79 O    0 0 0
  23 H    1     2.7371     5.1723   11 B    0 0 0

  24 H    1     1.0914     2.0625   54 C    0 0 0
  24 H    1     2.1493     4.0617   60 C    0 0 0
  24 H    1     2.1664     4.0939   56 C    0 0 0
  24 H    1     2.5192     4.7606   26 H    0 0 0
  24 H    1     2.5735     4.8632   80 O    0 0 0
  24 H    1     2.7371     5.1723   12 B    0 0 0

  25 H    1     1.0914     2.0624   55 C    0 0 0
  25 H    1     2.1475     4.0581   49 C    0 0 0
  25 H    1     2.1679     4.0967   53 C    0 0 0
  25 H    1     2.5192     4.7606   23 H    0 0 0
  25 H    1     2.5675     4.8519   73 O    0 0 0
  25 H    1     2.7328     5.1643    1 B    1 0 0

  26 H    1     1.0914     2.0624   56 C    0 0 0
  26 H    1     2.1475     4.0581   50 C    0 0 0
  26 H    1     2.1679     4.0967   54 C    0 0 0
  26 H    1     2.5192     4.7606   24 H    0 0 0
  26 H    1     2.5675     4.8519   74 O    1 1 0
  26 H    1     2.7328     5.1643    2 B    1 1 0

  27 H    1     1.0914     2.0625   57 C    0 0 0
  27 H    1     2.1491     4.0612   59 C   -1 0 0
  27 H    1     2.1666     4.0942   51 C    0 0 0
  27 H    1     2.5198     4.7617   21 H    0 0 0
  27 H    1     2.5723     4.8609   83 O    0 0 0
  27 H    1     2.7355     5.1693   11 B   -1 0 0

  28 H    1     1.0914     2.0625   58 C    0 0 0
  28 H    1     2.1491     4.0612   60 C   -1 0 0
  28 H    1     2.1666     4.0942   52 C    0 0 0
  28 H    1     2.5198     4.7617   22 H    0 0 0
  28 H    1     2.5723     4.8609   84 O    0 0 0
  28 H    1     2.7355     5.1693   12 B   -1 0 0

  29 H    1     1.0914     2.0624   63 C    0 0 0
  29 H    1     2.1475     4.0582   61 C   -1-1 0
  29 H    1     2.1678     4.0966   69 C    0 0 0
  29 H    1     2.5200     4.7621   35 H    0 0 0
  29 H    1     2.5667     4.8503   77 O    0 0 0
  29 H    1     2.7315     5.1618    5 B    0 0 0

  30 H    1     1.0914     2.0624   64 C    0 0 0
  30 H    1     2.1475     4.0582   62 C    0 0 0
  30 H    1     2.1678     4.0966   70 C    0 0 0
  30 H    1     2.5200     4.7621   36 H    0 0 0
  30 H    1     2.5667     4.8503   78 O    0 0 0
  30 H    1     2.7315     5.1618    6 B    0 0 0

  31 H    1     1.0913     2.0623   65 C    0 0 0
  31 H    1     2.1487     4.0605   71 C    0 0 0
  31 H    1     2.1667     4.0945   67 C    0 0 0
  31 H    1     2.5197     4.7616   33 H    0 0 0
  31 H    1     2.5723     4.8610   81 O    0 0 0
  31 H    1     2.7359     5.1701    9 B    0 0 0

  32 H    1     1.0913     2.0623   66 C    1 1 0
  32 H    1     2.1487     4.0605   72 C    1 1 0
  32 H    1     2.1667     4.0945   68 C    1 1 0
  32 H    1     2.5197     4.7616   34 H    0 0 0
  32 H    1     2.5723     4.8610   82 O    0 1 0
  32 H    1     2.7359     5.1701   10 B    1 1 0

  33 H    1     1.0915     2.0626   67 C    0 0 0
  33 H    1     2.1479     4.0589   61 C    0 0 0
  33 H    1     2.1679     4.0968   65 C    0 0 0
  33 H    1     2.5197     4.7616   31 H    0 0 0
  33 H    1     2.5677     4.8522   73 O    0 0 0
  33 H    1     2.7331     5.1648    5 B    1 1 0

  34 H    1     1.0915     2.0626   68 C    1 1 0
  34 H    1     2.1479     4.0589   62 C    1 1 0
  34 H    1     2.1679     4.0968   66 C    1 1 0
  34 H    1     2.5197     4.7616   32 H    0 0 0
  34 H    1     2.5677     4.8522   74 O    1 1 0
  34 H    1     2.7331     5.1648    6 B    1 1 0

  35 H    1     1.0914     2.0624   69 C    0 0 0
  35 H    1     2.1486     4.0602   71 C   -1-1 0
  35 H    1     2.1668     4.0947   63 C    0 0 0
  35 H    1     2.5200     4.7621   29 H    0 0 0
  35 H    1     2.5717     4.8598   83 O    0 0 0
  35 H    1     2.7349     5.1682    9 B   -1-1 0

  36 H    1     1.0914     2.0624   70 C    0 0 0
  36 H    1     2.1486     4.0602   72 C    0 0 0
  36 H    1     2.1668     4.0947   64 C    0 0 0
  36 H    1     2.5200     4.7621   30 H    0 0 0
  36 H    1     2.5717     4.8598   84 O    0 0 0
  36 H    1     2.7349     5.1682   10 B    0 0 0

  37 C    1     1.4020     2.6495   43 C    0 1 0
  37 C    1     1.4021     2.6495   39 C    0 0 0
  37 C    1     1.5504     2.9298    3 B    0 0 0
  37 C    1     2.1471     4.0575   17 H    0 1 0
  37 C    1     2.1472     4.0576   13 H    0 0 0
  37 C    1     2.4246     4.5817   41 C    0 1 0

  38 C    1     1.4020     2.6495   44 C    0 0 0
  38 C    1     1.4021     2.6495   40 C    0 0 0
  38 C    1     1.5504     2.9298    4 B    0 0 0
  38 C    1     2.1471     4.0575   18 H    0 0 0
  38 C    1     2.1472     4.0576   14 H    0-1 0
  38 C    1     2.4246     4.5817   42 C    0 0 0

  39 C    1     1.0913     2.0623   13 H    0 0 0
  39 C    1     1.3914     2.6294   45 C    0 0 0
  39 C    1     1.4021     2.6495   37 C    0 0 0
  39 C    1     2.1669     4.0948   19 H    0 0 0
  39 C    1     2.4177     4.5688   43 C    0 1 0
  39 C    1     2.4250     4.5825   47 C    0 1 0

  40 C    1     1.0913     2.0623   14 H    0-1 0
  40 C    1     1.3914     2.6294   46 C    0 0 0
  40 C    1     1.4021     2.6495   38 C    0 0 0
  40 C    1     2.1669     4.0948   20 H    0-1 0
  40 C    1     2.4177     4.5688   44 C    0 0 0
  40 C    1     2.4250     4.5825   48 C    0 0 0

  41 C    1     1.0914     2.0625   15 H    0 0 0
  41 C    1     1.3914     2.6293   43 C    0 0 0
  41 C    1     1.4026     2.6505   47 C    0 0 0
  41 C    1     2.1680     4.0970   17 H    0 0 0
  41 C    1     2.4182     4.5697   45 C    0-1 0
  41 C    1     2.4246     4.5817   37 C    0-1 0

  42 C    1     1.0914     2.0625   16 H    0 0 0
  42 C    1     1.3914     2.6293   44 C    0 0 0
  42 C    1     1.4026     2.6505   48 C    0 0 0
  42 C    1     2.1680     4.0970   18 H    0 0 0
  42 C    1     2.4182     4.5697   46 C    0 0 0
  42 C    1     2.4246     4.5817   38 C    0 0 0

  43 C    1     1.0914     2.0624   17 H    0 0 0
  43 C    1     1.3914     2.6293   41 C    0 0 0
  43 C    1     1.4020     2.6495   37 C    0-1 0
  43 C    1     2.1666     4.0942   15 H    0 0 0
  43 C    1     2.4177     4.5688   39 C    0-1 0
  43 C    1     2.4250     4.5826   47 C    0 0 0

  44 C    1     1.0914     2.0624   18 H    0 0 0
  44 C    1     1.3914     2.6293   42 C    0 0 0
  44 C    1     1.4020     2.6495   38 C    0 0 0
  44 C    1     2.1666     4.0942   16 H    0 0 0
  44 C    1     2.4177     4.5688   40 C    0 0 0
  44 C    1     2.4250     4.5826   48 C    0 0 0

  45 C    1     1.0915     2.0626   19 H    0 0 0
  45 C    1     1.3914     2.6294   39 C    0 0 0
  45 C    1     1.4025     2.6504   47 C    0 1 0
  45 C    1     2.1680     4.0969   13 H    0 0 0
  45 C    1     2.4182     4.5697   41 C    0 1 0
  45 C    1     2.4246     4.5818   37 C    0 0 0

  46 C    1     1.0915     2.0626   20 H    0-1 0
  46 C    1     1.3914     2.6294   40 C    0 0 0
  46 C    1     1.4025     2.6504   48 C    0 0 0
  46 C    1     2.1680     4.0969   14 H    0-1 0
  46 C    1     2.4182     4.5697   42 C    0 0 0
  46 C    1     2.4246     4.5818   38 C    0 0 0

  47 C    1     1.4025     2.6504   45 C    0-1 0
  47 C    1     1.4026     2.6505   41 C    0 0 0
  47 C    1     1.5513     2.9316    7 B    0 0 0
  47 C    1     2.1490     4.0610   19 H    0-1 0
  47 C    1     2.1493     4.0616   15 H    0 0 0
  47 C    1     2.4250     4.5825   39 C    0-1 0

  48 C    1     1.4025     2.6504   46 C    0 0 0
  48 C    1     1.4026     2.6505   42 C    0 0 0
  48 C    1     1.5513     2.9316    8 B    0 0 0
  48 C    1     2.1490     4.0610   20 H    0-1 0
  48 C    1     2.1493     4.0616   16 H    0 0 0
  48 C    1     2.4250     4.5825   40 C    0 0 0

  49 C    1     1.4020     2.6494   51 C    1 0 0
  49 C    1     1.4021     2.6495   55 C    0 0 0
  49 C    1     1.5503     2.9297    1 B    1 0 0
  49 C    1     2.1469     4.0571   21 H    1 0 0
  49 C    1     2.1475     4.0581   25 H    0 0 0
  49 C    1     2.4246     4.5818   53 C    0 0 0

  50 C    1     1.4020     2.6494   52 C    1 0 0
  50 C    1     1.4021     2.6495   56 C    0 0 0
  50 C    1     1.5503     2.9297    2 B    1 1 0
  50 C    1     2.1469     4.0571   22 H    1 0 0
  50 C    1     2.1475     4.0581   26 H    0 0 0
  50 C    1     2.4246     4.5818   54 C    0 0 0

  51 C    1     1.0913     2.0623   21 H    0 0 0
  51 C    1     1.3914     2.6293   57 C    0 0 0
  51 C    1     1.4020     2.6494   49 C   -1 0 0
  51 C    1     2.1666     4.0942   27 H    0 0 0
  51 C    1     2.4175     4.5684   55 C   -1 0 0
  51 C    1     2.4251     4.5828   59 C   -1 0 0

  52 C    1     1.0913     2.0623   22 H    0 0 0
  52 C    1     1.3914     2.6293   58 C    0 0 0
  52 C    1     1.4020     2.6494   50 C   -1 0 0
  52 C    1     2.1666     4.0942   28 H    0 0 0
  52 C    1     2.4175     4.5684   56 C   -1 0 0
  52 C    1     2.4251     4.5828   60 C   -1 0 0

  53 C    1     1.0914     2.0625   23 H    0 0 0
  53 C    1     1.3915     2.6295   55 C    0 0 0
  53 C    1     1.4026     2.6505   59 C    0 0 0
  53 C    1     2.1679     4.0967   25 H    0 0 0
  53 C    1     2.4179     4.5691   57 C    1 0 0
  53 C    1     2.4246     4.5818   49 C    0 0 0

  54 C    1     1.0914     2.0625   24 H    0 0 0
  54 C    1     1.3915     2.6295   56 C    0 0 0
  54 C    1     1.4026     2.6505   60 C    0 0 0
  54 C    1     2.1679     4.0967   26 H    0 0 0
  54 C    1     2.4179     4.5691   58 C    1 0 0
  54 C    1     2.4246     4.5818   50 C    0 0 0

  55 C    1     1.0914     2.0624   25 H    0 0 0
  55 C    1     1.3915     2.6295   53 C    0 0 0
  55 C    1     1.4021     2.6495   49 C    0 0 0
  55 C    1     2.1664     4.0939   23 H    0 0 0
  55 C    1     2.4175     4.5684   51 C    1 0 0
  55 C    1     2.4253     4.5832   59 C    0 0 0

  56 C    1     1.0914     2.0624   26 H    0 0 0
  56 C    1     1.3915     2.6295   54 C    0 0 0
  56 C    1     1.4021     2.6495   50 C    0 0 0
  56 C    1     2.1664     4.0939   24 H    0 0 0
  56 C    1     2.4175     4.5684   52 C    1 0 0
  56 C    1     2.4253     4.5832   60 C    0 0 0

  57 C    1     1.0914     2.0625   27 H    0 0 0
  57 C    1     1.3914     2.6293   51 C    0 0 0
  57 C    1     1.4025     2.6504   59 C   -1 0 0
  57 C    1     2.1680     4.0968   21 H    0 0 0
  57 C    1     2.4179     4.5691   53 C   -1 0 0
  57 C    1     2.4247     4.5819   49 C   -1 0 0

  58 C    1     1.0914     2.0625   28 H    0 0 0
  58 C    1     1.3914     2.6293   52 C    0 0 0
  58 C    1     1.4025     2.6504   60 C   -1 0 0
  58 C    1     2.1680     4.0968   22 H    0 0 0
  58 C    1     2.4179     4.5691   54 C   -1 0 0
  58 C    1     2.4247     4.5819   50 C   -1 0 0

  59 C    1     1.4025     2.6504   57 C    1 0 0
  59 C    1     1.4026     2.6505   53 C    0 0 0
  59 C    1     1.5516     2.9322   11 B    0 0 0
  59 C    1     2.1491     4.0612   27 H    1 0 0
  59 C    1     2.1493     4.0617   23 H    0 0 0
  59 C    1     2.4251     4.5828   51 C    1 0 0

  60 C    1     1.4025     2.6504   58 C    1 0 0
  60 C    1     1.4026     2.6505   54 C    0 0 0
  60 C    1     1.5516     2.9322   12 B    0 0 0
  60 C    1     2.1491     4.0612   28 H    1 0 0
  60 C    1     2.1493     4.0617   24 H    0 0 0
  60 C    1     2.4251     4.5828   52 C    1 0 0

  61 C    1     1.4021     2.6496   63 C    1 1 0
  61 C    1     1.4021     2.6497   67 C    0 0 0
  61 C    1     1.5502     2.9294    5 B    1 1 0
  61 C    1     2.1475     4.0582   29 H    1 1 0
  61 C    1     2.1479     4.0589   33 H    0 0 0
  61 C    1     2.4244     4.5814   65 C    0 0 0

  62 C    1     1.4021     2.6496   64 C    0 0 0
  62 C    1     1.4021     2.6497   68 C    0 0 0
  62 C    1     1.5502     2.9294    6 B    0 0 0
  62 C    1     2.1475     4.0582   30 H    0 0 0
  62 C    1     2.1479     4.0589   34 H   -1-1 0
  62 C    1     2.4244     4.5814   66 C    0 0 0

  63 C    1     1.0914     2.0624   29 H    0 0 0
  63 C    1     1.3914     2.6293   69 C    0 0 0
  63 C    1     1.4021     2.6496   61 C   -1-1 0
  63 C    1     2.1668     4.0947   35 H    0 0 0
  63 C    1     2.4179     4.5692   67 C   -1-1 0
  63 C    1     2.4251     4.5827   71 C   -1-1 0

  64 C    1     1.0914     2.0624   30 H    0 0 0
  64 C    1     1.3914     2.6293   70 C    0 0 0
  64 C    1     1.4021     2.6496   62 C    0 0 0
  64 C    1     2.1668     4.0947   36 H    0 0 0
  64 C    1     2.4179     4.5692   68 C    0 0 0
  64 C    1     2.4251     4.5827   72 C    0 0 0

  65 C    1     1.0913     2.0623   31 H    0 0 0
  65 C    1     1.3914     2.6294   67 C    0 0 0
  65 C    1     1.4025     2.6504   71 C    0 0 0
  65 C    1     2.1679     4.0968   33 H    0 0 0
  65 C    1     2.4178     4.5690   69 C    1 1 0
  65 C    1     2.4244     4.5814   61 C    0 0 0

  66 C    1     1.0913     2.0623   32 H   -1-1 0
  66 C    1     1.3914     2.6294   68 C    0 0 0
  66 C    1     1.4025     2.6504   72 C    0 0 0
  66 C    1     2.1679     4.0968   34 H   -1-1 0
  66 C    1     2.4178     4.5690   70 C    0 0 0
  66 C    1     2.4244     4.5814   62 C    0 0 0

  67 C    1     1.0915     2.0626   33 H    0 0 0
  67 C    1     1.3914     2.6294   65 C    0 0 0
  67 C    1     1.4021     2.6497   61 C    0 0 0
  67 C    1     2.1667     4.0945   31 H    0 0 0
  67 C    1     2.4179     4.5692   63 C    1 1 0
  67 C    1     2.4253     4.5832   71 C    0 0 0

  68 C    1     1.0915     2.0626   34 H   -1-1 0
  68 C    1     1.3914     2.6294   66 C    0 0 0
  68 C    1     1.4021     2.6497   62 C    0 0 0
  68 C    1     2.1667     4.0945   32 H   -1-1 0
  68 C    1     2.4179     4.5692   64 C    0 0 0
  68 C    1     2.4253     4.5832   72 C    0 0 0

  69 C    1     1.0914     2.0624   35 H    0 0 0
  69 C    1     1.3914     2.6293   63 C    0 0 0
  69 C    1     1.4025     2.6503   71 C   -1-1 0
  69 C    1     2.1678     4.0966   29 H    0 0 0
  69 C    1     2.4178     4.5690   65 C   -1-1 0
  69 C    1     2.4245     4.5817   61 C   -1-1 0

  70 C    1     1.0914     2.0624   36 H    0 0 0
  70 C    1     1.3914     2.6293   64 C    0 0 0
  70 C    1     1.4025     2.6503   72 C    0 0 0
  70 C    1     2.1678     4.0966   30 H    0 0 0
  70 C    1     2.4178     4.5690   66 C    0 0 0
  70 C    1     2.4245     4.5817   62 C    0 0 0

  71 C    1     1.4025     2.6503   69 C    1 1 0
  71 C    1     1.4025     2.6504   65 C    0 0 0
  71 C    1     1.5516     2.9322    9 B    0 0 0
  71 C    1     2.1486     4.0602   35 H    1 1 0
  71 C    1     2.1487     4.0605   31 H    0 0 0
  71 C    1     2.4251     4.5827   63 C    1 1 0

  72 C    1     1.4025     2.6503   70 C    0 0 0
  72 C    1     1.4025     2.6504   66 C    0 0 0
  72 C    1     1.5516     2.9322   10 B    0 0 0
  72 C    1     2.1486     4.0602   36 H    0 0 0
  72 C    1     2.1487     4.0605   32 H   -1-1 0
  72 C    1     2.4251     4.5827   64 C    0 0 0

  73 O    1     1.3791     2.6061    1 B    1 0 0
  73 O    1     1.3791     2.6061    5 B    1 1 0
  73 O    1     2.3880     4.5126   75 O    1 0 0
  73 O    1     2.3882     4.5130   77 O    1 1 0
  73 O    1     2.5383     4.7966   61 C    0 0 0
  73 O    1     2.5384     4.7968   49 C    0 0 0

  74 O    1     1.3791     2.6061    2 B    0 0 0
  74 O    1     1.3791     2.6061    6 B    0 0 0
  74 O    1     2.3880     4.5126   76 O    0 0 0
  74 O    1     2.3882     4.5130   78 O    0 0 0
  74 O    1     2.5383     4.7966   62 C    0 0 0
  74 O    1     2.5384     4.7968   50 C   -1-1 0

  75 O    1     1.3793     2.6065    1 B    0 0 0
  75 O    1     1.3793     2.6065    3 B    0 0 0
  75 O    1     2.3880     4.5126   73 O   -1 0 0
  75 O    1     2.3882     4.5131   77 O    0 1 0
  75 O    1     2.5391     4.7981   37 C    0 0 0
  75 O    1     2.5395     4.7990   49 C   -1 0 0

  76 O    1     1.3793     2.6065    2 B    0 0 0
  76 O    1     1.3793     2.6065    4 B    0 0 0
  76 O    1     2.3880     4.5126   74 O    0 0 0
  76 O    1     2.3882     4.5131   78 O    0 0 0
  76 O    1     2.5391     4.7981   38 C    0 0 0
  76 O    1     2.5395     4.7990   50 C   -1-1 0

  77 O    1     1.3793     2.6064    5 B    0 0 0
  77 O    1     1.3793     2.6065    3 B    0-1 0
  77 O    1     2.3882     4.5130   73 O   -1-1 0
  77 O    1     2.3882     4.5131   75 O    0-1 0
  77 O    1     2.5390     4.7980   37 C    0-1 0
  77 O    1     2.5391     4.7982   61 C   -1-1 0

  78 O    1     1.3793     2.6064    6 B    0 0 0
  78 O    1     1.3793     2.6065    4 B    0 0 0
  78 O    1     2.3882     4.5130   74 O    0 0 0
  78 O    1     2.3882     4.5131   76 O    0 0 0
  78 O    1     2.5390     4.7980   38 C    0 0 0
  78 O    1     2.5391     4.7982   62 C    0 0 0

  79 O    1     1.3795     2.6068   11 B    0 0 0
  79 O    1     1.3795     2.6068    7 B    0 0 0
  79 O    1     2.3880     4.5126   83 O    1 0 0
  79 O    1     2.3884     4.5134   81 O    0-1 0
  79 O    1     2.5400     4.7998   47 C    0 0 0
  79 O    1     2.5403     4.8005   59 C    0 0 0

  80 O    1     1.3795     2.6068   12 B    0 0 0
  80 O    1     1.3795     2.6068    8 B    0 0 0
  80 O    1     2.3880     4.5126   84 O    1 0 0
  80 O    1     2.3884     4.5134   82 O    0 0 0
  80 O    1     2.5400     4.7998   48 C    0 0 0
  80 O    1     2.5403     4.8005   60 C    0 0 0

  81 O    1     1.3795     2.6069    9 B    0 0 0
  81 O    1     1.3795     2.6070    7 B    0 1 0
  81 O    1     2.3881     4.5128   83 O    1 1 0
  81 O    1     2.3884     4.5134   79 O    0 1 0
  81 O    1     2.5404     4.8006   47 C    0 1 0
  81 O    1     2.5405     4.8008   71 C    0 0 0

  82 O    1     1.3795     2.6069   10 B    1 0 0
  82 O    1     1.3795     2.6070    8 B    0 0 0
  82 O    1     2.3881     4.5128   84 O    1 0 0
  82 O    1     2.3884     4.5134   80 O    0 0 0
  82 O    1     2.5404     4.8006   48 C    0 0 0
  82 O    1     2.5405     4.8008   72 C    1 0 0

  83 O    1     1.3796     2.6071   11 B   -1 0 0
  83 O    1     1.3797     2.6072    9 B   -1-1 0
  83 O    1     2.3880     4.5126   79 O   -1 0 0
  83 O    1     2.3881     4.5128   81 O   -1-1 0
  83 O    1     2.5409     4.8016   71 C   -1-1 0
  83 O    1     2.5410     4.8019   59 C   -1 0 0

  84 O    1     1.3796     2.6071   12 B   -1 0 0
  84 O    1     1.3797     2.6072   10 B    0 0 0
  84 O    1     2.3880     4.5126   80 O   -1 0 0
  84 O    1     2.3881     4.5128   82 O   -1 0 0
  84 O    1     2.5409     4.8016   72 C    0 0 0
  84 O    1     2.5410     4.8019   60 C   -1 0 0


 SYMMETRY ALLOWED INTERNAL DEGREE(S) OF FREEDOM: 249
 TTTTTTTTTTTTTTTTTTTTTTTTTTTTTT SYMM        TELAPSE        2.62 TCPU        2.61
 TTTTTTTTTTTTTTTTTTTTTTTTTTTTTT INT_SCREEN  TELAPSE        2.81 TCPU        2.81

 DFT PARAMETERS

     ATOM       ELECTRONS   NET CHARGE   R(ANGSTROM)
   1   5  B       5.0000      0.0000     0.89000000
  13   1  H       1.0000      0.0000     1.11000000
  37   6  C       6.0000      0.0000     0.77000000
  73   8  O       8.0000      0.0000     0.74000000

 SIZE OF GRID=    2634885
 TTTTTTTTTTTTTTTTTTTTTTTTTTTTTT MAKE_GRID2  TELAPSE       21.89 TCPU       21.87
 BECKE WEIGHT FUNCTION
 RADSAFE =     2.00
 TOLERANCES - DENSITY:10**- 6; POTENTIAL:10**- 9; GRID WGT:10**-14

 RADIAL INTEGRATION  - INTERVALS (POINTS,UPPER LIMIT):            1( 75,  4.0*R)

 ANGULAR INTEGRATION - INTERVALS (ACCURACY LEVEL [N. POINTS] UPPER LIMIT):
  1(  4[  86]   0.2)  2(  8[ 194]   0.5)  3( 12[ 350]   0.9)  4( 16[ 974]   3.5)
  5( 12[ 350]9999.0)
 TTTTTTTTTTTTTTTTTTTTTTTTTTTTTT INT_CALC    TELAPSE       22.14 TCPU       22.12
 EEEEEEEEEE INT_CALC TERMINATION  DATE 19 02 2026 TIME 20:26:43.2

 *******************************************************************************
 cof-1_z41_L020_serr                                                             
 CRYSTAL - SCF - TYPE OF CALCULATION :  RESTRICTED CLOSED SHELL
 *******************************************************************************

 CAPPA:IS1  2;IS2  2;IS3  8; K PTS MONK NET  20; SYMMOPS:K SPACE   2;G SPACE   1

 TTTTTTTTTTTTTTTTTTTTTTTTTTTTTT SDIK        TELAPSE       24.09 TCPU       49.62

 AAAAAAAAAAAAAAAAAAAAAAAAAAAAAAAAAAAAAAAAAAAAAAAAAAAAAAAAAAAAAAAAAAAAAAAAAAAAAAA
         ATOMIC WAVEFUNCTION(S)


 NUCLEAR CHARGE  5.0  SYMMETRY SPECIES            S    P
 N. ELECTRONS    5.0  NUMBER OF PRIMITIVE GTOS    8    4
                      NUMBER OF CONTRACTED GTOS   4    2
                      NUMBER OF CLOSED SHELLS     2    0
                      OPEN SHELL OCCUPATION       0    1

  ZNUC  SCFIT    TOTAL HF ENERGY   KINETIC ENERGY   VIRIAL THEOREM ACCURACY
   5.0    11    -2.451164084E+01  2.462155050E+01 -1.995536038E+00  1.5E-06

 NUCLEAR CHARGE  1.0  SYMMETRY SPECIES            S
 N. ELECTRONS    1.0  NUMBER OF PRIMITIVE GTOS    4
                      NUMBER OF CONTRACTED GTOS   2
                      NUMBER OF CLOSED SHELLS     0
                      OPEN SHELL OCCUPATION       1

  ZNUC  SCFIT    TOTAL HF ENERGY   KINETIC ENERGY   VIRIAL THEOREM ACCURACY
   1.0     1    -4.977266687E-01  5.190767460E-01 -1.958869132E+00  0.0E+00

 NUCLEAR CHARGE  6.0  SYMMETRY SPECIES            S    P
 N. ELECTRONS    6.0  NUMBER OF PRIMITIVE GTOS    8    4
                      NUMBER OF CONTRACTED GTOS   4    2
                      NUMBER OF CLOSED SHELLS     2    0
                      OPEN SHELL OCCUPATION       0    2

  ZNUC  SCFIT    TOTAL HF ENERGY   KINETIC ENERGY   VIRIAL THEOREM ACCURACY
   6.0     9    -3.766704647E+01  3.775180683E+01 -1.997754800E+00  1.1E-06

 NUCLEAR CHARGE  8.0  SYMMETRY SPECIES            S    P
 N. ELECTRONS    8.0  NUMBER OF PRIMITIVE GTOS    8    4
                      NUMBER OF CONTRACTED GTOS   4    2
                      NUMBER OF CLOSED SHELLS     2    0
                      OPEN SHELL OCCUPATION       0    4

  ZNUC  SCFIT    TOTAL HF ENERGY   KINETIC ENERGY   VIRIAL THEOREM ACCURACY
   8.0    12    -7.477373220E+01  7.477365593E+01 -2.000001020E+00  3.8E-06

 AAAAAAAAAAAAAAAAAAAAAAAAAAAAAAAAAAAAAAAAAAAAAAAAAAAAAAAAAAAAAAAAAAAAAAAAAAAAAAA

 CHARGE NORMALIZATION FACTOR   1.00000000
 TOTAL ATOMIC CHARGES:
   5.0000000   5.0000000   5.0000000   5.0000000   5.0000000   5.0000000
   5.0000000   5.0000000   5.0000000   5.0000000   5.0000000   5.0000000
   1.0000000   1.0000000   1.0000000   1.0000000   1.0000000   1.0000000
   1.0000000   1.0000000   1.0000000   1.0000000   1.0000000   1.0000000
   1.0000000   1.0000000   1.0000000   1.0000000   1.0000000   1.0000000
   1.0000000   1.0000000   1.0000000   1.0000000   1.0000000   1.0000000
   6.0000000   6.0000000   6.0000000   6.0000000   6.0000000   6.0000000
   6.0000000   6.0000000   6.0000000   6.0000000   6.0000000   6.0000000
   6.0000000   6.0000000   6.0000000   6.0000000   6.0000000   6.0000000
   6.0000000   6.0000000   6.0000000   6.0000000   6.0000000   6.0000000
   6.0000000   6.0000000   6.0000000   6.0000000   6.0000000   6.0000000
   6.0000000   6.0000000   6.0000000   6.0000000   6.0000000   6.0000000
   8.0000000   8.0000000   8.0000000   8.0000000   8.0000000   8.0000000
   8.0000000   8.0000000   8.0000000   8.0000000   8.0000000   8.0000000
 TTTTTTTTTTTTTTTTTTTTTTTTTTTTTT MOQGAD      TELAPSE       24.18 TCPU       52.50
 TTTTTTTTTTTTTTTTTTTTTTTTTTTTTT SHELLXN     TELAPSE       39.80 TCPU      551.31
 TTTTTTTTTTTTTTTTTTTTTTTTTTTTTT MONMO3      TELAPSE       40.36 TCPU      569.18
 NUMERICALLY INTEGRATED DENSITY    395.9998873964
 TTTTTTTTTTTTTTTTTTTTTTTTTTTTTT NUMDFT      TELAPSE       41.73 TCPU      612.98
 CYC   0 ETOT(AU) -2.591912230508E+03 DETOT -2.59E+03 tst  0.00E+00 PX  1.00E+00
 TTTTTTTTTTTTTTTTTTTTTTTTTTTTTT DIIS        TELAPSE       41.84 TCPU      616.29
 TTTTTTTTTTTTTTTTTTTTTTTTTTTTTT FDIK        TELAPSE       43.62 TCPU      673.27
 INSULATING STATE
 TOP OF VALENCE BANDS -    BAND    198; K    1; EIG -3.1179628E-01 AU
 BOTTOM OF VIRTUAL BANDS - BAND    199; K    1; EIG -1.5693770E-01 AU
 DIRECT ENERGY BAND GAP:   4.2139 eV
 TTTTTTTTTTTTTTTTTTTTTTTTTTTTTT PDIG        TELAPSE       45.14 TCPU      680.17
 CHARGE NORMALIZATION FACTOR   1.00000000
 TOTAL ATOMIC CHARGES:
   4.1670664   4.1482936   4.1569823   4.1634841   4.1572237   4.1637410
   4.1633301   4.1568529   4.1631221   4.1566224   4.1479727   4.1666914
   0.7852746   0.7853588   0.7854726   0.7853892   0.7853751   0.7851306
   0.7852493   0.7854952   0.7852500   0.7855596   0.7857228   0.7854161
   0.7852391   0.7855487   0.7856858   0.7853786   0.7853793   0.7851333
   0.7853146   0.7855606   0.7852259   0.7853101   0.7854659   0.7853825
   6.0446121   6.0443092   6.2663319   6.2657775   6.2657458   6.2662914
   6.2653810   6.2653381   6.2652769   6.2653215   6.0435816   6.0438712
   6.0428372   6.0470806   6.2654607   6.2658981   6.2659764   6.2655410
   6.2653731   6.2658111   6.2659891   6.2655607   6.0458305   6.0416205
   6.0449747   6.0446696   6.2651406   6.2651026   6.2656525   6.2656865
   6.2659607   6.2654049   6.2660238   6.2665738   6.0431083   6.0434069
   8.6937841   8.6950069   8.6938856   8.6951120   8.6960598   8.6912247
   8.6954271   8.6942073   8.6916337   8.6964572   8.6955974   8.6943808
 TTTTTTTTTTTTTTTTTTTTTTTTTTTTTT MOQGAD      TELAPSE       45.23 TCPU      680.26
 TTTTTTTTTTTTTTTTTTTTTTTTTTTTTT SHELLXN     TELAPSE       61.21 TCPU     1189.75
 TTTTTTTTTTTTTTTTTTTTTTTTTTTTTT MONMO3      TELAPSE       61.76 TCPU     1207.61
 NUMERICALLY INTEGRATED DENSITY    395.9999208587
 TTTTTTTTTTTTTTTTTTTTTTTTTTTTTT NUMDFT      TELAPSE       63.17 TCPU     1252.44
 CYC   1 ETOT(AU) -2.577627966117E+03 DETOT  1.43E+01 tst  0.00E+00 PX  1.00E+00
 TTTTTTTTTTTTTTTTTTTTTTTTTTTTTT DIIS        TELAPSE       63.31 TCPU     1256.85
 DIIS TEST: 0.22404E+01 AT SCF   CYCLE   1 - MIX   30 %
 TTTTTTTTTTTTTTTTTTTTTTTTTTTTTT FDIK        TELAPSE       65.12 TCPU     1314.97
 INSULATING STATE
 TOP OF VALENCE BANDS -    BAND    198; K    1; EIG -2.2152980E-01 AU
 BOTTOM OF VIRTUAL BANDS - BAND    199; K    1; EIG -7.8535059E-02 AU
 DIRECT ENERGY BAND GAP:   3.8911 eV
 TTTTTTTTTTTTTTTTTTTTTTTTTTTTTT PDIG        TELAPSE       66.66 TCPU     1321.89
 CHARGE NORMALIZATION FACTOR   1.00000000
 TOTAL ATOMIC CHARGES:
   4.6864401   4.7183468   4.7110228   4.7014355   4.7110048   4.7014698
   4.7016994   4.7113373   4.7016864   4.7113015   4.7186626   4.6867077
   0.9139720   0.9137694   0.9138663   0.9140072   0.9165814   0.9169617
   0.9170082   0.9165922   0.9159666   0.9096914   0.9097073   0.9160903
   0.9159502   0.9096684   0.9096946   0.9160621   0.9165686   0.9169517
   0.9170840   0.9166625   0.9139006   0.9137108   0.9138802   0.9139986
   5.8726261   5.8552879   6.1431320   6.0988721   6.0993869   6.1436428
   6.1319202   6.1425815   6.1432809   6.1327132   5.8580116   5.8754085
   5.8348718   5.9016549   6.1215728   6.1420512   6.1428592   6.1222961
   6.1217849   6.1422307   6.1427475   6.1221588   5.9050248   5.8381217
   5.8725961   5.8552248   6.1319852   6.1426695   6.1430964   6.1325603
   6.1433681   6.0990792   6.0991260   6.1433899   5.8582171   5.8756433
   8.3334321   8.3366401   8.3338084   8.3370178   8.3516100   8.3376253
   8.3365548   8.3332664   8.3373225   8.3514517   8.3369670   8.3336485
 TTTTTTTTTTTTTTTTTTTTTTTTTTTTTT MOQGAD      TELAPSE       66.76 TCPU     1321.98
 TTTTTTTTTTTTTTTTTTTTTTTTTTTTTT SHELLXN     TELAPSE       82.68 TCPU     1829.96
 TTTTTTTTTTTTTTTTTTTTTTTTTTTTTT MONMO3      TELAPSE       83.24 TCPU     1847.80
 NUMERICALLY INTEGRATED DENSITY    395.9999097714
 TTTTTTTTTTTTTTTTTTTTTTTTTTTTTT NUMDFT      TELAPSE       84.64 TCPU     1892.46
 CYC   2 ETOT(AU) -2.578016460135E+03 DETOT -3.88E-01 tst  4.27E-03 PX  1.58E-01
 TTTTTTTTTTTTTTTTTTTTTTTTTTTTTT DIIS        TELAPSE       84.80 TCPU     1897.48
 DIIS TEST: 0.94288E+00 AT SCF   CYCLE   2 - DIIS ACTIVE - HISTORY:     2 CYCLES
 TTTTTTTTTTTTTTTTTTTTTTTTTTTTTT FDIK        TELAPSE       86.63 TCPU     1956.10
 INSULATING STATE
 TOP OF VALENCE BANDS -    BAND    198; K    1; EIG -2.3489196E-01 AU
 BOTTOM OF VIRTUAL BANDS - BAND    199; K    1; EIG -7.4091135E-02 AU
 DIRECT ENERGY BAND GAP:   4.3756 eV
 TTTTTTTTTTTTTTTTTTTTTTTTTTTTTT PDIG        TELAPSE       88.15 TCPU     1963.01
 CHARGE NORMALIZATION FACTOR   1.00000000
 TOTAL ATOMIC CHARGES:
   4.4925489   4.4978155   4.4972285   4.4982634   4.4973257   4.4983983
   4.4977939   4.4967315   4.4976502   4.4965399   4.4971729   4.4919247
   0.8937541   0.8842560   0.8842983   0.8939784   0.8896690   0.8936236
   0.8937446   0.8897516   0.8886326   0.8888842   0.8892104   0.8887469
   0.8886626   0.8889223   0.8891456   0.8886718   0.8896635   0.8936295
   0.8938009   0.8898142   0.8937345   0.8842650   0.8842577   0.8939262
   5.8827652   5.8974491   6.1535259   6.1673527   6.1667787   6.1530018
   6.1640915   6.1571249   6.1565315   6.1631492   5.8961256   5.8814247
   5.9104718   5.8831762   6.1660196   6.1539003   6.1531373   6.1655590
   6.1660745   6.1538967   6.1530562   6.1654897   5.8813797   5.9089373
   5.8831167   5.8977427   6.1640409   6.1570732   6.1566313   6.1632483
   6.1534341   6.1672577   6.1667867   6.1530479   5.8958370   5.8811126
   8.5132391   8.5118510   8.5134071   8.5120398   8.5120715   8.5088409
   8.5119958   8.5134606   8.5090145   8.5120629   8.5121708   8.5136606
 TTTTTTTTTTTTTTTTTTTTTTTTTTTTTT MOQGAD      TELAPSE       88.24 TCPU     1963.10
 TTTTTTTTTTTTTTTTTTTTTTTTTTTTTT SHELLXN     TELAPSE      104.15 TCPU     2470.71
 TTTTTTTTTTTTTTTTTTTTTTTTTTTTTT MONMO3      TELAPSE      104.71 TCPU     2488.56
 NUMERICALLY INTEGRATED DENSITY    395.9999107756
 TTTTTTTTTTTTTTTTTTTTTTTTTTTTTT NUMDFT      TELAPSE      106.10 TCPU     2532.97
 CYC   3 ETOT(AU) -2.578210856385E+03 DETOT -1.94E-01 tst  7.13E-04 PX  6.39E-02
 TTTTTTTTTTTTTTTTTTTTTTTTTTTTTT DIIS        TELAPSE      106.28 TCPU     2538.61
 DIIS TEST: 0.28741E-01 AT SCF   CYCLE   3 - DIIS ACTIVE - HISTORY:     3 CYCLES
 TTTTTTTTTTTTTTTTTTTTTTTTTTTTTT FDIK        TELAPSE      108.09 TCPU     2596.50
 INSULATING STATE
 TOP OF VALENCE BANDS -    BAND    198; K    1; EIG -2.4510477E-01 AU
 BOTTOM OF VIRTUAL BANDS - BAND    199; K    1; EIG -8.3195672E-02 AU
 DIRECT ENERGY BAND GAP:   4.4058 eV
 TTTTTTTTTTTTTTTTTTTTTTTTTTTTTT PDIG        TELAPSE      109.61 TCPU     2603.40
 CHARGE NORMALIZATION FACTOR   1.00000000
 TOTAL ATOMIC CHARGES:
   4.4962839   4.5086455   4.5048263   4.5009530   4.5049161   4.5010750
   4.5012019   4.5050583   4.5010629   4.5048813   4.5087258   4.4964220
   0.8724891   0.8740805   0.8742197   0.8724713   0.8749562   0.8747350
   0.8747745   0.8749348   0.8753547   0.8693699   0.8693096   0.8755487
   0.8753714   0.8693844   0.8692597   0.8754907   0.8749673   0.8747438
   0.8748363   0.8749846   0.8724538   0.8740684   0.8741972   0.8724271
   5.9472907   5.9259557   6.1748620   6.1413271   6.1422489   6.1756626
   6.1656900   6.1702381   6.1715103   6.1673322   5.9295251   5.9509712
   5.9065758   5.9750523   6.1520900   6.1757218   6.1770542   6.1531618
   6.1520807   6.1756973   6.1770551   6.1531435   5.9790016   5.9102441
   5.9473455   5.9259593   6.1655881   6.1701791   6.1715422   6.1674239
   6.1747747   6.1412148   6.1422973   6.1757258   5.9295616   5.9510189
   8.4777922   8.4822860   8.4780874   8.4825890   8.4938663   8.4797014
   8.4825037   8.4777862   8.4796004   8.4942199   8.4828502   8.4781133
 TTTTTTTTTTTTTTTTTTTTTTTTTTTTTT MOQGAD      TELAPSE      109.70 TCPU     2603.50
 TTTTTTTTTTTTTTTTTTTTTTTTTTTTTT SHELLXN     TELAPSE      125.70 TCPU     3113.94
 TTTTTTTTTTTTTTTTTTTTTTTTTTTTTT MONMO3      TELAPSE      126.26 TCPU     3131.79
 NUMERICALLY INTEGRATED DENSITY    395.9999118360
 TTTTTTTTTTTTTTTTTTTTTTTTTTTTTT NUMDFT      TELAPSE      127.66 TCPU     3176.60
 CYC   4 ETOT(AU) -2.578216247959E+03 DETOT -5.39E-03 tst  5.38E-05 PX  2.23E-02
 TTTTTTTTTTTTTTTTTTTTTTTTTTTTTT DIIS        TELAPSE      127.86 TCPU     3182.95
 DIIS TEST: 0.10697E-01 AT SCF   CYCLE   4 - DIIS ACTIVE - HISTORY:     4 CYCLES
 TTTTTTTTTTTTTTTTTTTTTTTTTTTTTT FDIK        TELAPSE      129.70 TCPU     3241.57
 INSULATING STATE
 TOP OF VALENCE BANDS -    BAND    198; K    1; EIG -2.4413455E-01 AU
 BOTTOM OF VIRTUAL BANDS - BAND    199; K    1; EIG -8.2624441E-02 AU
 DIRECT ENERGY BAND GAP:   4.3949 eV
 TTTTTTTTTTTTTTTTTTTTTTTTTTTTTT PDIG        TELAPSE      131.21 TCPU     3248.46
 CHARGE NORMALIZATION FACTOR   1.00000000
 TOTAL ATOMIC CHARGES:
   4.4952164   4.5106517   4.5069300   4.5038002   4.5070142   4.5039255
   4.5035243   4.5066694   4.5033917   4.5064994   4.5102738   4.4948278
   0.8776653   0.8730808   0.8731565   0.8778971   0.8769151   0.8781368
   0.8783019   0.8770495   0.8751421   0.8736338   0.8739555   0.8752783
   0.8751522   0.8736505   0.8739086   0.8752208   0.8769104   0.8781398
   0.8783659   0.8771156   0.8776221   0.8730662   0.8731361   0.8778623
   5.9200929   5.9238842   6.1662822   6.1576420   6.1569996   6.1657384
   6.1688731   6.1700400   6.1692513   6.1676518   5.9222237   5.9184608
   5.9246908   5.9293882   6.1679799   6.1655721   6.1647819   6.1674884
   6.1680870   6.1656108   6.1646800   6.1673778   5.9276591   5.9231459
   5.9203574   5.9240980   6.1688332   6.1700102   6.1692856   6.1676997
   6.1662716   6.1576200   6.1569502   6.1657169   5.9220453   5.9182695
   8.4887969   8.4887830   8.4890072   8.4890098   8.4943732   8.4880320
   8.4887983   8.4889269   8.4880620   8.4941659   8.4890317   8.4891660
 TTTTTTTTTTTTTTTTTTTTTTTTTTTTTT MOQGAD      TELAPSE      131.31 TCPU     3248.56
 TTTTTTTTTTTTTTTTTTTTTTTTTTTTTT SHELLXN     TELAPSE      147.25 TCPU     3756.90
 TTTTTTTTTTTTTTTTTTTTTTTTTTTTTT MONMO3      TELAPSE      147.81 TCPU     3774.76
 NUMERICALLY INTEGRATED DENSITY    395.9999118001
 TTTTTTTTTTTTTTTTTTTTTTTTTTTTTT NUMDFT      TELAPSE      149.21 TCPU     3819.70
 CYC   5 ETOT(AU) -2.578218718701E+03 DETOT -2.47E-03 tst  2.52E-05 PX  1.19E-02
 TTTTTTTTTTTTTTTTTTTTTTTTTTTTTT DIIS        TELAPSE      149.43 TCPU     3826.50
 DIIS TEST: 0.60395E-03 AT SCF   CYCLE   5 - DIIS ACTIVE - HISTORY:     5 CYCLES
 TTTTTTTTTTTTTTTTTTTTTTTTTTTTTT FDIK        TELAPSE      151.26 TCPU     3884.52
 INSULATING STATE
 TOP OF VALENCE BANDS -    BAND    198; K    1; EIG -2.4318963E-01 AU
 BOTTOM OF VIRTUAL BANDS - BAND    199; K    1; EIG -8.2068253E-02 AU
 DIRECT ENERGY BAND GAP:   4.3843 eV
 TTTTTTTTTTTTTTTTTTTTTTTTTTTTTT PDIG        TELAPSE      152.78 TCPU     3891.42
 CHARGE NORMALIZATION FACTOR   1.00000000
 TOTAL ATOMIC CHARGES:
   4.4965677   4.5096429   4.5063622   4.5035732   4.5064502   4.5036959
   4.5037101   4.5064490   4.5035767   4.5062753   4.5095869   4.4965744
   0.8783649   0.8750878   0.8752105   0.8783703   0.8781462   0.8798041
   0.8798267   0.8781159   0.8781187   0.8744699   0.8744628   0.8783027
   0.8781405   0.8744923   0.8744075   0.8782384   0.8781518   0.8798102
   0.8798883   0.8781708   0.8783331   0.8750803   0.8751852   0.8783248
   5.9203307   5.9136564   6.1685963   6.1535050   6.1543000   6.1692738
   6.1667084   6.1668180   6.1680882   6.1683334   5.9169806   5.9237116
   5.9069575   5.9370552   6.1593959   6.1692898   6.1704062   6.1603210
   6.1593816   6.1692510   6.1704007   6.1603099   5.9403231   5.9100324
   5.9204809   5.9137553   6.1666284   6.1667668   6.1681444   6.1684276
   6.1684908   6.1533845   6.1543431   6.1693447   5.9169101   5.9236398
   8.4894487   8.4911378   8.4897064   8.4914071   8.4978292   8.4885477
   8.4914046   8.4894949   8.4885611   8.4982764   8.4916928   8.4897821
 TTTTTTTTTTTTTTTTTTTTTTTTTTTTTT MOQGAD      TELAPSE      152.87 TCPU     3891.52
 TTTTTTTTTTTTTTTTTTTTTTTTTTTTTT SHELLXN     TELAPSE      168.93 TCPU     4403.57
 TTTTTTTTTTTTTTTTTTTTTTTTTTTTTT MONMO3      TELAPSE      169.49 TCPU     4421.42
 NUMERICALLY INTEGRATED DENSITY    395.9999118108
 TTTTTTTTTTTTTTTTTTTTTTTTTTTTTT NUMDFT      TELAPSE      170.88 TCPU     4466.04
 CYC   6 ETOT(AU) -2.578218802194E+03 DETOT -8.35E-05 tst  5.61E-06 PX  4.14E-03
 TTTTTTTTTTTTTTTTTTTTTTTTTTTTTT DIIS        TELAPSE      171.13 TCPU     4472.90
 DIIS TEST: 0.30430E-03 AT SCF   CYCLE   6 - DIIS ACTIVE - HISTORY:     6 CYCLES
 TTTTTTTTTTTTTTTTTTTTTTTTTTTTTT FDIK        TELAPSE      172.97 TCPU     4531.44
 INSULATING STATE
 TOP OF VALENCE BANDS -    BAND    198; K    1; EIG -2.4344802E-01 AU
 BOTTOM OF VIRTUAL BANDS - BAND    199; K    1; EIG -8.2007010E-02 AU
 DIRECT ENERGY BAND GAP:   4.3930 eV
 TTTTTTTTTTTTTTTTTTTTTTTTTTTTTT PDIG        TELAPSE      174.48 TCPU     4538.34
 CHARGE NORMALIZATION FACTOR   1.00000000
 TOTAL ATOMIC CHARGES:
   4.4965369   4.5098422   4.5064274   4.5037677   4.5065149   4.5038916
   4.5035657   4.5062321   4.5034318   4.5060589   4.5095098   4.4962270
   0.8785170   0.8749111   0.8749944   0.8786919   0.8781131   0.8795943
   0.8797320   0.8782118   0.8774813   0.8745439   0.8747792   0.8776238
   0.8774959   0.8745619   0.8747299   0.8775646   0.8781139   0.8796003
   0.8797934   0.8782717   0.8784796   0.8749013   0.8749704   0.8786518
   5.9216821   5.9186343   6.1677568   6.1545032   6.1542183   6.1675161
   6.1674965   6.1683705   6.1679909   6.1668446   5.9180824   5.9211921
   5.9148713   5.9355311   6.1625419   6.1677042   6.1673912   6.1624060
   6.1626111   6.1677258   6.1673166   6.1623227   5.9350841   5.9144965
   5.9218967   5.9187956   6.1674306   6.1683245   6.1680404   6.1669215
   6.1677097   6.1544409   6.1542074   6.1675301   5.9179525   5.9210538
   8.4886942   8.4898670   8.4889224   8.4901102   8.4965584   8.4881946
   8.4899499   8.4888190   8.4881963   8.4964731   8.4902091   8.4890776
 TTTTTTTTTTTTTTTTTTTTTTTTTTTTTT MOQGAD      TELAPSE      174.57 TCPU     4538.43
 TTTTTTTTTTTTTTTTTTTTTTTTTTTTTT SHELLXN     TELAPSE      190.52 TCPU     5046.57
 TTTTTTTTTTTTTTTTTTTTTTTTTTTTTT MONMO3      TELAPSE      191.07 TCPU     5064.42
 NUMERICALLY INTEGRATED DENSITY    395.9999117546
 TTTTTTTTTTTTTTTTTTTTTTTTTTTTTT NUMDFT      TELAPSE      192.47 TCPU     5109.04
 CYC   7 ETOT(AU) -2.578218880222E+03 DETOT -7.80E-05 tst  1.10E-06 PX  1.79E-03
 TTTTTTTTTTTTTTTTTTTTTTTTTTTTTT DIIS        TELAPSE      192.74 TCPU     5115.89
 DIIS TEST: 0.94926E-05 AT SCF   CYCLE   7 - DIIS ACTIVE - HISTORY:     7 CYCLES
 TTTTTTTTTTTTTTTTTTTTTTTTTTTTTT FDIK        TELAPSE      194.56 TCPU     5173.83
 INSULATING STATE
 TOP OF VALENCE BANDS -    BAND    198; K    1; EIG -2.4346296E-01 AU
 BOTTOM OF VIRTUAL BANDS - BAND    199; K    1; EIG -8.2039544E-02 AU
 DIRECT ENERGY BAND GAP:   4.3926 eV
 TTTTTTTTTTTTTTTTTTTTTTTTTTTTTT PDIG        TELAPSE      196.08 TCPU     5180.73
 CHARGE NORMALIZATION FACTOR   1.00000000
 TOTAL ATOMIC CHARGES:
   4.4963421   4.5099401   4.5065228   4.5037342   4.5066099   4.5038581
   4.5036935   4.5064586   4.5035598   4.5062857   4.5097434   4.4961774
   0.8785474   0.8748071   0.8749092   0.8786483   0.8780912   0.8795831
   0.8796629   0.8781270   0.8773893   0.8745725   0.8747023   0.8775518
   0.8774064   0.8745930   0.8746504   0.8774902   0.8780924   0.8795881
   0.8797254   0.8781867   0.8785112   0.8747974   0.8748854   0.8786070
   5.9206486   5.9179864   6.1672676   6.1545061   6.1546883   6.1674241
   6.1671120   6.1678320   6.1682474   6.1675504   5.9192306   5.9219371
   5.9143027   5.9344867   6.1624383   6.1673124   6.1676233   6.1627689
   6.1624791   6.1673083   6.1675744   6.1627125   5.9356634   5.9154381
   5.9208481   5.9181349   6.1670491   6.1677899   6.1682934   6.1676241
   6.1672046   6.1544291   6.1546909   6.1674538   5.9191139   5.9218142
   8.4887773   8.4898540   8.4890152   8.4901055   8.4962897   8.4880859
   8.4900101   8.4888545   8.4881092   8.4964646   8.4902760   8.4891218
 TTTTTTTTTTTTTTTTTTTTTTTTTTTTTT MOQGAD      TELAPSE      196.17 TCPU     5180.82
 TTTTTTTTTTTTTTTTTTTTTTTTTTTTTT SHELLXN     TELAPSE      212.08 TCPU     5688.41
 TTTTTTTTTTTTTTTTTTTTTTTTTTTTTT MONMO3      TELAPSE      212.64 TCPU     5706.24
 NUMERICALLY INTEGRATED DENSITY    395.9999117535
 TTTTTTTTTTTTTTTTTTTTTTTTTTTTTT NUMDFT      TELAPSE      214.03 TCPU     5750.75
 CYC   8 ETOT(AU) -2.578218881948E+03 DETOT -1.73E-06 tst  4.57E-08 PX  2.80E-04
 TTTTTTTTTTTTTTTTTTTTTTTTTTTTTT DIIS        TELAPSE      214.32 TCPU     5757.58
 DIIS TEST: 0.24147E-05 AT SCF   CYCLE   8 - DIIS ACTIVE - HISTORY:     8 CYCLES
 TTTTTTTTTTTTTTTTTTTTTTTTTTTTTT FDIK        TELAPSE      216.16 TCPU     5816.02
 INSULATING STATE
 TOP OF VALENCE BANDS -    BAND    198; K    1; EIG -2.4346220E-01 AU
 BOTTOM OF VIRTUAL BANDS - BAND    199; K    1; EIG -8.2055697E-02 AU
 DIRECT ENERGY BAND GAP:   4.3921 eV
 TTTTTTTTTTTTTTTTTTTTTTTTTTTTTT PDIG        TELAPSE      217.67 TCPU     5822.91
 CHARGE NORMALIZATION FACTOR   1.00000000
 TOTAL ATOMIC CHARGES:
   4.4963430   4.5100453   4.5066066   4.5037814   4.5066934   4.5039051
   4.5036836   4.5064979   4.5035502   4.5063252   4.5098017   4.4961280
   0.8784966   0.8748068   0.8749020   0.8786233   0.8780720   0.8795463
   0.8796493   0.8781323   0.8773871   0.8745272   0.8746951   0.8775431
   0.8774036   0.8745469   0.8746439   0.8774823   0.8780733   0.8795516
   0.8797114   0.8781918   0.8784600   0.8747969   0.8748781   0.8785823
   5.9209821   5.9182058   6.1674138   6.1545475   6.1545678   6.1674328
   6.1673173   6.1679775   6.1680905   6.1673452   5.9187839   5.9216136
   5.9143806   5.9348508   6.1624461   6.1675147   6.1676016   6.1626064
   6.1624933   6.1675172   6.1675470   6.1625438   5.9354412   5.9149728
   5.9211842   5.9183563   6.1672530   6.1679340   6.1681378   6.1674202
   6.1673544   6.1544739   6.1545674   6.1674592   5.9186651   5.9214880
   8.4888097   8.4899161   8.4890451   8.4901657   8.4963804   8.4881129
   8.4900488   8.4889070   8.4881227   8.4964550   8.4903131   8.4891721
 TTTTTTTTTTTTTTTTTTTTTTTTTTTTTT MOQGAD      TELAPSE      217.77 TCPU     5823.00
 TTTTTTTTTTTTTTTTTTTTTTTTTTTTTT SHELLXN     TELAPSE      233.85 TCPU     6336.00
 TTTTTTTTTTTTTTTTTTTTTTTTTTTTTT MONMO3      TELAPSE      234.41 TCPU     6353.85
 NUMERICALLY INTEGRATED DENSITY    395.9999117554
 TTTTTTTTTTTTTTTTTTTTTTTTTTTTTT NUMDFT      TELAPSE      235.80 TCPU     6398.33
 CYC   9 ETOT(AU) -2.578218882248E+03 DETOT -3.00E-07 tst  6.10E-09 PX  1.22E-04
 TTTTTTTTTTTTTTTTTTTTTTTTTTTTTT DIIS        TELAPSE      236.11 TCPU     6405.22
 DIIS TEST: 0.58749E-07 AT SCF   CYCLE   9 - DIIS ACTIVE - HISTORY:     9 CYCLES
 TTTTTTTTTTTTTTTTTTTTTTTTTTTTTT FDIK        TELAPSE      237.93 TCPU     6463.11
 INSULATING STATE
 TOP OF VALENCE BANDS -    BAND    198; K    1; EIG -2.4346458E-01 AU
 BOTTOM OF VIRTUAL BANDS - BAND    199; K    1; EIG -8.2051058E-02 AU
 DIRECT ENERGY BAND GAP:   4.3923 eV
 TTTTTTTTTTTTTTTTTTTTTTTTTTTTTT PDIG        TELAPSE      239.45 TCPU     6470.01
 CHARGE NORMALIZATION FACTOR   1.00000000
 TOTAL ATOMIC CHARGES:
   4.4963735   4.5100071   4.5065623   4.5037703   4.5066492   4.5038941
   4.5036773   4.5064559   4.5035437   4.5062831   4.5097674   4.4961619
   0.8784889   0.8748154   0.8749116   0.8786148   0.8780803   0.8795427
   0.8796421   0.8781375   0.8773862   0.8745281   0.8746930   0.8775421
   0.8774023   0.8745476   0.8746422   0.8774815   0.8780815   0.8795481
   0.8797041   0.8781972   0.8784522   0.8748056   0.8748878   0.8785739
   5.9209573   5.9181398   6.1674836   6.1545088   6.1545346   6.1675074
   6.1672522   6.1680204   6.1681717   6.1673279   5.9187831   5.9216504
   5.9144169   5.9348103   6.1624534   6.1675019   6.1676060   6.1626293
   6.1625043   6.1675074   6.1675478   6.1625631   5.9354426   5.9150463
   5.9211619   5.9182926   6.1671878   6.1679766   6.1682193   6.1674031
   6.1674261   6.1544370   6.1545325   6.1675316   5.9186620   5.9215223
   8.4887923   8.4898977   8.4890266   8.4901462   8.4964063   8.4881461
   8.4900290   8.4888851   8.4881626   8.4964947   8.4902924   8.4891491
 TTTTTTTTTTTTTTTTTTTTTTTTTTTTTT MOQGAD      TELAPSE      239.54 TCPU     6470.10
 TTTTTTTTTTTTTTTTTTTTTTTTTTTTTT SHELLXN     TELAPSE      255.48 TCPU     6978.34
 +++ ENERGIES IN A.U. +++
 ::: EXT EL-POLE                                  -2.4193339498690E+03
 ::: EXT EL-SPHEROPOLE                             2.7910030825649E+01
 ::: BIELET ZONE E-E                               4.1981314206265E+03
 ::: TOTAL E-E                                     1.8067075015831E+03
 ::: TOTAL E-N + N-E                              -7.2734985856983E+03
 ::: TOTAL N-N                                     5.9615182834996E+02
 ::: KINETIC ENERGY                                2.5598486976457E+03
 ::: PSEUDO TOTAL   ENERGY                        -2.3107905581196E+03
 ::: VIRIAL COEFFICIENT                            1.0511345896191E+00
 TTTTTTTTTTTTTTTTTTTTTTTTTTTTTT MONMO3      TELAPSE      256.04 TCPU     6996.19
 NUMERICALLY INTEGRATED DENSITY    395.9999117547
 EXCHANGE ENERGY: -0.252049129042E+03  CORRELATION ENERGY: -0.153791951456E+02
 TTTTTTTTTTTTTTTTTTTTTTTTTTTTTT NUMDFT      TELAPSE      257.43 TCPU     7040.79
 CYC  10 ETOT(AU) -2.578218882307E+03 DETOT -5.90E-08 tst  1.25E-10 PX  1.22E-04

 == SCF ENDED - CONVERGENCE ON ENERGY      E(AU) -2.5782188823069E+03 CYCLES  10


 ENERGY EXPRESSION=HARTREE+FOCK EXCH*0.00000+(HSESOL     EXCH)*1.00000+PBESOL     CORR


 TOTAL ENERGY(DFT)(AU)( 10) -2.5782188823069E+03 DE-5.9E-08 tester 1.3E-10
 TTTTTTTTTTTTTTTTTTTTTTTTTTTTTT EDFT        TELAPSE      257.43 TCPU     7040.80
 
 INFORMATION **** DFTD3 ENERGY **** CALCULATE DFTD3 ENERGY

           DFT-D V3(BJ)
 DF                                         hsesol3c  
 parameters
 s6       :    1.0000
 s8       :    0.0000
 a1       :    0.5196
 a2       :    4.9385
 k1 k3    :   16.0000   -4.0000
 Cutoff   :   50.2022
 CN-Cutoff:   21.1671
 ABC-Cutoff:   21.1671
 
 Edisp /kcal,au:   -49.7855 -0.07933817

 E6    /kcal :   -53.0446
 E8    /kcal :     0.0000
 E6(ABC) "   :   3.259096
 
 INFORMATION **** DFTD3 ENERGY **** NORMAL TERMINATION OF DFTD3 MODULE

 GCP ENERGY CALCULATION
  level        hsesol3c            basis:hsesol3c
  Nbf            948
  Atoms           84

  Parameters: 
  sigma     1.0000
  eta       1.4281
  alpha     0.2936
  beta      1.9467

  dmp_scal      4.0000
  dmp_exp       6.0000
 cutoffs: 
   distance [bohr] 60.0
   noise    [a.u.] 2.2E-16
 SR-damping   T
 ** gCP correction **
  Egcp:        0.1658923471 / (a.u.) ||     104.0990 / (kcal/mol)
 INFORMATION **** GCP **** NORMAL TERMINATION OF GCP MODULE

 *******************************************************************************

 DFT-D3-GCP DISPERSION AND COUNTERPOISE CORRECTION

 D3 DISPERSION ENERGY (AU)      -7.9338171207675E-02
 GCP ENERGY (AU)                 1.6589234712822E-01
 TOTAL ENERGY + DISP + GCP (AU) -2.5781323281310E+03

 *******************************************************************************

 EIGENVECTORS IN FORTRAN UNIT  8
 TTTTTTTTTTTTTTTTTTTTTTTTTTTTTT END         TELAPSE      260.19 TCPU     7049.47
 EEEEEEEEEE TERMINATION  DATE 19 02 2026 TIME 20:30:41.2
