 Default number of threads is:           32

         
 *******************************************************************************
 *                                                                             *
 *                               CRYSTAL23                                     *
 *                      public : 1.0.1 - October 2022                          *
 *                       HTTP://WWW.CRYSTAL.UNITO.IT                           *
 *                                                                             *
 *                              MAIN AUTHORS                                   *
 *                                                                             *
 *  R. DOVESI(1,11), V.R. SAUNDERS(2), C. ROETTI(1,11), R. ORLANDO(1,11),      *
 *  C.M. ZICOVICH-WILSON(1,3), F. PASCALE(4), B. CIVALLERI(1,11),              *
 *  K. DOLL(5), N.M. HARRISON(6), I.J. BUSH(7), Ph. D'ARCO(8),                 *
 *  M. LLUNELL(9), M. CAUSA'(10), Y. NOEL(8), L. MASCHIO(1,11), A. ERBA(1,11)  *
 *  M. RE'RAT(14), S. CASASSA(1,11), B.G. SEARLE(2), J.K. DESMARAIS(1)         *
 *                                                                             *
 *        CONTRIBUTIONS TO THE CODE HAVE ALSO BEEN GIVEN BY                    *
 *                                                                             *
 *  M. FERRABONE(1,11), M. DE LA PIERRE(1,11), M. FERRERO(1,11),               *
 *  J. BAIMA(1,11), E. ALBANESE(1,11), M.F. PEINTINGER(12), R. BAST(13),       *
 *  B. KIRTMAN(15), V. LACIVITA(1,11), R. DEMICHELIS(1,16)                     *
 *  G. BRANDEBURG(17), S. SALUSTRO(1,11), G. SANSONE(1,11)                     *
 *  M.T. RUGGIERO(18), L.E. DAGA(1), L. DONA'(1), A. COSSARD(1)                *
 *                                                                             *
 * (1) THEORETICAL CHEMISTRY GROUP - UNIVERSITA' DI TORINO - TORINO (ITALY)    *
 * (2) SCIENTIFIC COMPUTING DEPARTMENT - STFC DARESBURY (UK)                   *
 * (3) UNIVERSIDAD AUTONOMA DEL ESTADO DE MORELOS - CUERNAVACA (MEXICO)        *
 * (4) UNIVERSITE' DE LORRAINE - NANCY (FRANCE)                                *
 * (5) UNIVERSITAET STUTTGART- STUTTGART (GERMANY)                             *
 * (6) IMPERIAL COLLEGE - LONDON (UK)                                          *
 * (7) SCIENTIFIC COMPUTING DEPARTMENT - STFC RAL (UK)                         *
 * (8) UPMC - SORBONNE UNIVERSITES - PARIS (FRANCE)                            *
 * (9) UNIVERSIDAD DE BARCELONA - BARCELONA (SPAIN)                            *
 *(10) UNIVERSITA' DI NAPOLI "FEDERICO II" - NAPOLI (ITALY)                    *
 *(11) NIS - NANOSTRUCTURED INTERFACES AND SURFACES - TORINO (ITALY)           *
 *(12) MPI FUER CHEMISCHE ENERGIEKONVERSION - MUELHEIM AN DER RUHR (GERMANY)   *
 *(13) UNIVERSITY OF TROMSO - TROMSO (NORWAY)                                  *
 *(14) UNIVERSITE' DE PAU ET DES PAYS DE L'ADOUR - PAU (FRANCE)                *
 *(15) UNIVERSITY OF CALIFORNIA SANTA BARBARA - SANTA BARBARA (USA)            *
 *(16) CURTIN UNIVERSITY - PERTH (AUSTRALIA)                                   *
 *(17) UNIVERSITY COLLEGE LONDON - LONDON (UK)                                 *
 *(18) UNIVERSITY OF VERMONT - BURLINGTON (USA)                                *
 *                                                                             *
 *******************************************************************************
 EEEEEEEEEE STARTING  DATE 19 02 2026 TIME 20:26:36.2
 cof-1_z42_L000_serr                                                             

 CRYSTAL CALCULATION
 (INPUT ACCORDING TO THE INTERNATIONAL TABLES FOR X-RAY CRYSTALLOGRAPHY)
 CRYSTAL FAMILY                       :  TRICLINIC   
 CRYSTAL CLASS  (GROTH - 1921)        :  TRICLINIC PEDIAL                     

 SPACE GROUP (NONCENTROSYMMETRIC)     :  P 1             

 LATTICE PARAMETERS  (ANGSTROMS AND DEGREES) - CONVENTIONAL CELL
        A           B           C        ALPHA        BETA       GAMMA
    15.02361    15.02392     8.40000    90.00032    89.99994   119.99596


 NUMBER OF IRREDUCIBLE ATOMS IN THE CONVENTIONAL CELL:   84

 INPUT COORDINATES

 ATOM AT. N.              COORDINATES
   1   5     6.136805400000E-01  2.273182200000E-01  2.505686600000E-01
   2   5     6.136805400000E-01  2.273182200000E-01  7.505686600000E-01
   3   5     7.727362000000E-01  3.863778800000E-01  2.505686700000E-01
   4   5     7.727362000000E-01  3.863778800000E-01  7.505686600000E-01
   5   5     6.136762700000E-01  3.863606700000E-01  2.493730400000E-01
   6   5     6.136762700000E-01  3.863606700000E-01  7.493730400000E-01
   7   5     2.272552500000E-01  6.136332200000E-01  2.505686700000E-01
   8   5     2.272552500000E-01  6.136332200000E-01  7.505686600000E-01
   9   5     3.863632200000E-01  6.136124500000E-01  2.505686600000E-01
  10   5     3.863632200000E-01  6.136124500000E-01  7.505686600000E-01
  11   5     3.863435000000E-01  7.727516500000E-01  2.493730400000E-01
  12   5     3.863435000000E-01  7.727516500000E-01  7.493730500000E-01
  13   1     9.030436200000E-01  3.089300500000E-01  2.480899000000E-01
  14   1     9.030436200000E-01  3.089300500000E-01  7.480899100000E-01
  15   1     9.663453000000E-02  6.910534400000E-01  2.477108700000E-01
  16   1     9.663453000000E-02  6.910534400000E-01  7.477108600000E-01
  17   1     9.029714200000E-01  5.940724300000E-01  2.476525200000E-01
  18   1     9.029714200000E-01  5.940724300000E-01  7.476525300000E-01
  19   1     9.673618000000E-02  4.056849400000E-01  2.476670700000E-01
  20   1     9.673618000000E-02  4.056849400000E-01  7.476670700000E-01
  21   1     6.910324000000E-01  9.700412000000E-02  2.519101100000E-01
  22   1     6.910324000000E-01  9.700412000000E-02  7.519101100000E-01
  23   1     3.089297200000E-01  9.034373100000E-01  2.522891800000E-01
  24   1     3.089297200000E-01  9.034373100000E-01  7.522891800000E-01
  25   1     4.058699900000E-01  9.704998000000E-02  2.523475500000E-01
  26   1     4.058699900000E-01  9.704998000000E-02  7.523475500000E-01
  27   1     5.943122100000E-01  9.033473200000E-01  2.523329000000E-01
  28   1     5.943122100000E-01  9.033473200000E-01  7.523329000000E-01
  29   1     6.910727400000E-01  5.940542100000E-01  2.480899300000E-01
  30   1     6.910727400000E-01  5.940542100000E-01  7.480899300000E-01
  31   1     3.089618300000E-01  4.056093300000E-01  2.477108400000E-01
  32   1     3.089618300000E-01  4.056093300000E-01  7.477108400000E-01
  33   1     4.058405700000E-01  3.088232500000E-01  2.476524800000E-01
  34   1     4.058405700000E-01  3.088232500000E-01  7.476524800000E-01
  35   1     5.942908800000E-01  6.909579300000E-01  2.476671200000E-01
  36   1     5.942908800000E-01  6.909579300000E-01  7.476671200000E-01
  37   6     8.918903100000E-01  4.459436900000E-01  2.493293000000E-01
  38   6     8.918903100000E-01  4.459436900000E-01  7.493293000000E-01
  39   6     9.464891100000E-01  3.927856300000E-01  2.481482400000E-01
  40   6     9.464891100000E-01  3.927856300000E-01  7.481482400000E-01
  41   6     5.338812000000E-02  6.071853000000E-01  2.480462100000E-01
  42   6     5.338812000000E-02  6.071853000000E-01  7.480462100000E-01
  43   6     9.464521100000E-01  5.536921900000E-01  2.483524000000E-01
  44   6     9.464521100000E-01  5.536921900000E-01  7.483524000000E-01
  45   6     5.342634000000E-02  4.462499700000E-01  2.475650100000E-01
  46   6     5.342634000000E-02  4.462499700000E-01  7.475650100000E-01
  47   6     1.080358900000E-01  5.540356300000E-01  2.483669700000E-01
  48   6     1.080358900000E-01  5.540356300000E-01  7.483669700000E-01
  49   6     5.540394200000E-01  1.081684600000E-01  2.506707300000E-01
  50   6     5.540394200000E-01  1.081684600000E-01  7.506707300000E-01
  51   6     6.071778500000E-01  5.355594000000E-02  2.518517700000E-01
  52   6     6.071778500000E-01  5.355594000000E-02  7.518517700000E-01
  53   6     3.927986700000E-01  9.466631600000E-01  2.519538400000E-01
  54   6     3.927986700000E-01  9.466631600000E-01  7.519538400000E-01
  55   6     4.462875800000E-01  5.360286000000E-02  2.516476600000E-01
  56   6     4.462875800000E-01  5.360286000000E-02  7.516476500000E-01
  57   6     5.537168500000E-01  9.466235600000E-01  2.524349900000E-01
  58   6     5.537168500000E-01  9.466235600000E-01  7.524349900000E-01
  59   6     4.459279100000E-01  8.919920600000E-01  2.516330500000E-01
  60   6     4.459279100000E-01  8.919920600000E-01  7.516330500000E-01
  61   6     5.540448700000E-01  4.458745500000E-01  2.493293000000E-01
  62   6     5.540448700000E-01  4.458745500000E-01  7.493293000000E-01
  63   6     6.072102200000E-01  5.536257800000E-01  2.481482600000E-01
  64   6     6.072102200000E-01  5.536257800000E-01  7.481482600000E-01
  65   6     3.928233700000E-01  4.461720300000E-01  2.480461900000E-01
  66   6     3.928233700000E-01  4.461720300000E-01  7.480461900000E-01
  67   6     4.462872600000E-01  3.926899900000E-01  2.483523700000E-01
  68   6     4.462872600000E-01  3.926899900000E-01  7.483523700000E-01
  69   6     5.537429600000E-01  6.070980000000E-01  2.475650500000E-01
  70   6     5.537429600000E-01  6.070980000000E-01  7.475650400000E-01
  71   6     4.459599800000E-01  5.539582300000E-01  2.483669700000E-01
  72   6     4.459599800000E-01  5.539582300000E-01  7.483669700000E-01
  73   8     5.607366800000E-01  2.803706300000E-01  2.496938200000E-01
  74   8     5.607366800000E-01  2.803706300000E-01  7.496938100000E-01
  75   8     7.196817000000E-01  2.803783300000E-01  2.522162800000E-01
  76   8     7.196817000000E-01  2.803783300000E-01  7.522162800000E-01
  77   8     7.196794200000E-01  4.393234600000E-01  2.484107200000E-01
  78   8     7.196794200000E-01  4.393234600000E-01  7.484107200000E-01
  79   8     2.803245100000E-01  7.196511100000E-01  2.496938300000E-01
  80   8     2.803245100000E-01  7.196511100000E-01  7.496938300000E-01
  81   8     2.803439700000E-01  5.606956100000E-01  2.522162700000E-01
  82   8     2.803439700000E-01  5.606956100000E-01  7.522162700000E-01
  83   8     4.392638400000E-01  7.196354200000E-01  2.484107200000E-01
  84   8     4.392638400000E-01  7.196354200000E-01  7.484107200000E-01

 *******************************************************************************

 << INFORMATION >>: FROM NOW ON, ALL COORDINATES REFER TO THE PRIMITIVE CELL

 *******************************************************************************

 LATTICE PARAMETERS  (ANGSTROMS AND DEGREES) - PRIMITIVE CELL
       A          B          C        ALPHA      BETA     GAMMA        VOLUME
   15.02361   15.02392    8.40000    90.00032  89.99994 119.99596   1642.045003

 COORDINATES OF THE EQUIVALENT ATOMS (FRACTIONAL UNITS)

 N. ATOM EQUIV AT. N.          X                  Y                  Z

   1   1   1    5 B    -3.86319460000E-01  2.27318220000E-01  2.50568660000E-01

   2   2   1    5 B    -3.86319460000E-01  2.27318220000E-01 -2.49431340000E-01

   3   3   1    5 B    -2.27263800000E-01  3.86377880000E-01  2.50568670000E-01

   4   4   1    5 B    -2.27263800000E-01  3.86377880000E-01 -2.49431340000E-01

   5   5   1    5 B    -3.86323730000E-01  3.86360670000E-01  2.49373040000E-01

   6   6   1    5 B    -3.86323730000E-01  3.86360670000E-01 -2.50626960000E-01

   7   7   1    5 B     2.27255250000E-01 -3.86366780000E-01  2.50568670000E-01

   8   8   1    5 B     2.27255250000E-01 -3.86366780000E-01 -2.49431340000E-01

   9   9   1    5 B     3.86363220000E-01 -3.86387550000E-01  2.50568660000E-01

  10  10   1    5 B     3.86363220000E-01 -3.86387550000E-01 -2.49431340000E-01

  11  11   1    5 B     3.86343500000E-01 -2.27248350000E-01  2.49373040000E-01

  12  12   1    5 B     3.86343500000E-01 -2.27248350000E-01 -2.50626950000E-01

  13  13   1    1 H    -9.69563800000E-02  3.08930050000E-01  2.48089900000E-01

  14  14   1    1 H    -9.69563800000E-02  3.08930050000E-01 -2.51910090000E-01

  15  15   1    1 H     9.66345300000E-02 -3.08946560000E-01  2.47710870000E-01

  16  16   1    1 H     9.66345300000E-02 -3.08946560000E-01 -2.52289140000E-01

  17  17   1    1 H    -9.70285800000E-02 -4.05927570000E-01  2.47652520000E-01

  18  18   1    1 H    -9.70285800000E-02 -4.05927570000E-01 -2.52347470000E-01

  19  19   1    1 H     9.67361800000E-02  4.05684940000E-01  2.47667070000E-01

  20  20   1    1 H     9.67361800000E-02  4.05684940000E-01 -2.52332930000E-01

  21  21   1    1 H    -3.08967600000E-01  9.70041200000E-02  2.51910110000E-01

  22  22   1    1 H    -3.08967600000E-01  9.70041200000E-02 -2.48089890000E-01

  23  23   1    1 H     3.08929720000E-01 -9.65626900000E-02  2.52289180000E-01

  24  24   1    1 H     3.08929720000E-01 -9.65626900000E-02 -2.47710820000E-01

  25  25   1    1 H     4.05869990000E-01  9.70499800000E-02  2.52347550000E-01

  26  26   1    1 H     4.05869990000E-01  9.70499800000E-02 -2.47652450000E-01

  27  27   1    1 H    -4.05687790000E-01 -9.66526800000E-02  2.52332900000E-01

  28  28   1    1 H    -4.05687790000E-01 -9.66526800000E-02 -2.47667100000E-01

  29  29   1    1 H    -3.08927260000E-01 -4.05945790000E-01  2.48089930000E-01

  30  30   1    1 H    -3.08927260000E-01 -4.05945790000E-01 -2.51910070000E-01

  31  31   1    1 H     3.08961830000E-01  4.05609330000E-01  2.47710840000E-01

  32  32   1    1 H     3.08961830000E-01  4.05609330000E-01 -2.52289160000E-01

  33  33   1    1 H     4.05840570000E-01  3.08823250000E-01  2.47652480000E-01

  34  34   1    1 H     4.05840570000E-01  3.08823250000E-01 -2.52347520000E-01

  35  35   1    1 H    -4.05709120000E-01 -3.09042070000E-01  2.47667120000E-01

  36  36   1    1 H    -4.05709120000E-01 -3.09042070000E-01 -2.52332880000E-01

  37  37   1    6 C    -1.08109690000E-01  4.45943690000E-01  2.49329300000E-01

  38  38   1    6 C    -1.08109690000E-01  4.45943690000E-01 -2.50670700000E-01

  39  39   1    6 C    -5.35108900000E-02  3.92785630000E-01  2.48148240000E-01

  40  40   1    6 C    -5.35108900000E-02  3.92785630000E-01 -2.51851760000E-01

  41  41   1    6 C     5.33881200000E-02 -3.92814700000E-01  2.48046210000E-01

  42  42   1    6 C     5.33881200000E-02 -3.92814700000E-01 -2.51953790000E-01

  43  43   1    6 C    -5.35478900000E-02 -4.46307810000E-01  2.48352400000E-01

  44  44   1    6 C    -5.35478900000E-02 -4.46307810000E-01 -2.51647600000E-01

  45  45   1    6 C     5.34263400000E-02  4.46249970000E-01  2.47565010000E-01

  46  46   1    6 C     5.34263400000E-02  4.46249970000E-01 -2.52434990000E-01

  47  47   1    6 C     1.08035890000E-01 -4.45964370000E-01  2.48366970000E-01

  48  48   1    6 C     1.08035890000E-01 -4.45964370000E-01 -2.51633030000E-01

  49  49   1    6 C    -4.45960580000E-01  1.08168460000E-01  2.50670730000E-01

  50  50   1    6 C    -4.45960580000E-01  1.08168460000E-01 -2.49329270000E-01

  51  51   1    6 C    -3.92822150000E-01  5.35559400000E-02  2.51851770000E-01

  52  52   1    6 C    -3.92822150000E-01  5.35559400000E-02 -2.48148230000E-01

  53  53   1    6 C     3.92798670000E-01 -5.33368400000E-02  2.51953840000E-01

  54  54   1    6 C     3.92798670000E-01 -5.33368400000E-02 -2.48046160000E-01

  55  55   1    6 C     4.46287580000E-01  5.36028600000E-02  2.51647660000E-01

  56  56   1    6 C     4.46287580000E-01  5.36028600000E-02 -2.48352350000E-01

  57  57   1    6 C    -4.46283150000E-01 -5.33764400000E-02  2.52434990000E-01

  58  58   1    6 C    -4.46283150000E-01 -5.33764400000E-02 -2.47565010000E-01

  59  59   1    6 C     4.45927910000E-01 -1.08007940000E-01  2.51633050000E-01

  60  60   1    6 C     4.45927910000E-01 -1.08007940000E-01 -2.48366950000E-01

  61  61   1    6 C    -4.45955130000E-01  4.45874550000E-01  2.49329300000E-01

  62  62   1    6 C    -4.45955130000E-01  4.45874550000E-01 -2.50670700000E-01

  63  63   1    6 C    -3.92789780000E-01 -4.46374220000E-01  2.48148260000E-01

  64  64   1    6 C    -3.92789780000E-01 -4.46374220000E-01 -2.51851740000E-01

  65  65   1    6 C     3.92823370000E-01  4.46172030000E-01  2.48046190000E-01

  66  66   1    6 C     3.92823370000E-01  4.46172030000E-01 -2.51953810000E-01

  67  67   1    6 C     4.46287260000E-01  3.92689990000E-01  2.48352370000E-01

  68  68   1    6 C     4.46287260000E-01  3.92689990000E-01 -2.51647630000E-01

  69  69   1    6 C    -4.46257040000E-01 -3.92902000000E-01  2.47565050000E-01

  70  70   1    6 C    -4.46257040000E-01 -3.92902000000E-01 -2.52434960000E-01

  71  71   1    6 C     4.45959980000E-01 -4.46041770000E-01  2.48366970000E-01

  72  72   1    6 C     4.45959980000E-01 -4.46041770000E-01 -2.51633030000E-01

  73  73   1    8 O    -4.39263320000E-01  2.80370630000E-01  2.49693820000E-01

  74  74   1    8 O    -4.39263320000E-01  2.80370630000E-01 -2.50306190000E-01

  75  75   1    8 O    -2.80318300000E-01  2.80378330000E-01  2.52216280000E-01

  76  76   1    8 O    -2.80318300000E-01  2.80378330000E-01 -2.47783720000E-01

  77  77   1    8 O    -2.80320580000E-01  4.39323460000E-01  2.48410720000E-01

  78  78   1    8 O    -2.80320580000E-01  4.39323460000E-01 -2.51589280000E-01

  79  79   1    8 O     2.80324510000E-01 -2.80348890000E-01  2.49693830000E-01

  80  80   1    8 O     2.80324510000E-01 -2.80348890000E-01 -2.50306170000E-01

  81  81   1    8 O     2.80343970000E-01 -4.39304390000E-01  2.52216270000E-01

  82  82   1    8 O     2.80343970000E-01 -4.39304390000E-01 -2.47783730000E-01

  83  83   1    8 O     4.39263840000E-01 -2.80364580000E-01  2.48410720000E-01

  84  84   1    8 O     4.39263840000E-01 -2.80364580000E-01 -2.51589280000E-01

 NUMBER OF SYMMETRY OPERATORS         :    1
 *******************************************************************************
 * GEOMETRY EDITING - INPUT COORDINATES ARE GIVEN IN ANGSTROM         
 *******************************************************************************

 GCALCO - MAX INDICES DIRECT LATTICE VECTOR    12    12    20
 NO.OF VECTORS CREATED 6999 STARS 3500 RMAX   264.54886 BOHR

 GEOMETRY FOR WAVE FUNCTION - DIMENSIONALITY OF THE SYSTEM    3
 (NON PERIODIC DIRECTION: LATTICE PARAMETER FORMALLY SET TO 500)
 *******************************************************************************
 LATTICE PARAMETERS (ANGSTROMS AND DEGREES) - BOHR = 0.5291772083 ANGSTROM
 PRIMITIVE CELL - CENTRING CODE 1/0 VOLUME=  1642.045003 - DENSITY  0.789 g/cm^3
         A              B              C           ALPHA      BETA       GAMMA 
    15.02361100    15.02391600     8.40000000    90.000323  89.999944 119.995964
 *******************************************************************************
 ATOMS IN THE ASYMMETRIC UNIT   84 - ATOMS IN THE UNIT CELL:   84
     ATOM                 X/A                 Y/B                 Z/C    
 *******************************************************************************
      1 T   5 B    -3.863194600000E-01  2.273182200000E-01  2.505686600000E-01
      2 T   5 B    -3.863194600000E-01  2.273182200000E-01 -2.494313400000E-01
      3 T   5 B    -2.272638000000E-01  3.863778800000E-01  2.505686700000E-01
      4 T   5 B    -2.272638000000E-01  3.863778800000E-01 -2.494313400000E-01
      5 T   5 B    -3.863237300000E-01  3.863606700000E-01  2.493730400000E-01
      6 T   5 B    -3.863237300000E-01  3.863606700000E-01 -2.506269600000E-01
      7 T   5 B     2.272552500000E-01 -3.863667800000E-01  2.505686700000E-01
      8 T   5 B     2.272552500000E-01 -3.863667800000E-01 -2.494313400000E-01
      9 T   5 B     3.863632200000E-01 -3.863875500000E-01  2.505686600000E-01
     10 T   5 B     3.863632200000E-01 -3.863875500000E-01 -2.494313400000E-01
     11 T   5 B     3.863435000000E-01 -2.272483500000E-01  2.493730400000E-01
     12 T   5 B     3.863435000000E-01 -2.272483500000E-01 -2.506269500000E-01
     13 T   1 H    -9.695638000000E-02  3.089300500000E-01  2.480899000000E-01
     14 T   1 H    -9.695638000000E-02  3.089300500000E-01 -2.519100900000E-01
     15 T   1 H     9.663453000000E-02 -3.089465600000E-01  2.477108700000E-01
     16 T   1 H     9.663453000000E-02 -3.089465600000E-01 -2.522891400000E-01
     17 T   1 H    -9.702858000000E-02 -4.059275700000E-01  2.476525200000E-01
     18 T   1 H    -9.702858000000E-02 -4.059275700000E-01 -2.523474700000E-01
     19 T   1 H     9.673618000000E-02  4.056849400000E-01  2.476670700000E-01
     20 T   1 H     9.673618000000E-02  4.056849400000E-01 -2.523329300000E-01
     21 T   1 H    -3.089676000000E-01  9.700412000000E-02  2.519101100000E-01
     22 T   1 H    -3.089676000000E-01  9.700412000000E-02 -2.480898900000E-01
     23 T   1 H     3.089297200000E-01 -9.656269000000E-02  2.522891800000E-01
     24 T   1 H     3.089297200000E-01 -9.656269000000E-02 -2.477108200000E-01
     25 T   1 H     4.058699900000E-01  9.704998000000E-02  2.523475500000E-01
     26 T   1 H     4.058699900000E-01  9.704998000000E-02 -2.476524500000E-01
     27 T   1 H    -4.056877900000E-01 -9.665268000000E-02  2.523329000000E-01
     28 T   1 H    -4.056877900000E-01 -9.665268000000E-02 -2.476671000000E-01
     29 T   1 H    -3.089272600000E-01 -4.059457900000E-01  2.480899300000E-01
     30 T   1 H    -3.089272600000E-01 -4.059457900000E-01 -2.519100700000E-01
     31 T   1 H     3.089618300000E-01  4.056093300000E-01  2.477108400000E-01
     32 T   1 H     3.089618300000E-01  4.056093300000E-01 -2.522891600000E-01
     33 T   1 H     4.058405700000E-01  3.088232500000E-01  2.476524800000E-01
     34 T   1 H     4.058405700000E-01  3.088232500000E-01 -2.523475200000E-01
     35 T   1 H    -4.057091200000E-01 -3.090420700000E-01  2.476671200000E-01
     36 T   1 H    -4.057091200000E-01 -3.090420700000E-01 -2.523328800000E-01
     37 T   6 C    -1.081096900000E-01  4.459436900000E-01  2.493293000000E-01
     38 T   6 C    -1.081096900000E-01  4.459436900000E-01 -2.506707000000E-01
     39 T   6 C    -5.351089000000E-02  3.927856300000E-01  2.481482400000E-01
     40 T   6 C    -5.351089000000E-02  3.927856300000E-01 -2.518517600000E-01
     41 T   6 C     5.338812000000E-02 -3.928147000000E-01  2.480462100000E-01
     42 T   6 C     5.338812000000E-02 -3.928147000000E-01 -2.519537900000E-01
     43 T   6 C    -5.354789000000E-02 -4.463078100000E-01  2.483524000000E-01
     44 T   6 C    -5.354789000000E-02 -4.463078100000E-01 -2.516476000000E-01
     45 T   6 C     5.342634000000E-02  4.462499700000E-01  2.475650100000E-01
     46 T   6 C     5.342634000000E-02  4.462499700000E-01 -2.524349900000E-01
     47 T   6 C     1.080358900000E-01 -4.459643700000E-01  2.483669700000E-01
     48 T   6 C     1.080358900000E-01 -4.459643700000E-01 -2.516330300000E-01
     49 T   6 C    -4.459605800000E-01  1.081684600000E-01  2.506707300000E-01
     50 T   6 C    -4.459605800000E-01  1.081684600000E-01 -2.493292700000E-01
     51 T   6 C    -3.928221500000E-01  5.355594000000E-02  2.518517700000E-01
     52 T   6 C    -3.928221500000E-01  5.355594000000E-02 -2.481482300000E-01
     53 T   6 C     3.927986700000E-01 -5.333684000000E-02  2.519538400000E-01
     54 T   6 C     3.927986700000E-01 -5.333684000000E-02 -2.480461600000E-01
     55 T   6 C     4.462875800000E-01  5.360286000000E-02  2.516476600000E-01
     56 T   6 C     4.462875800000E-01  5.360286000000E-02 -2.483523500000E-01
     57 T   6 C    -4.462831500000E-01 -5.337644000000E-02  2.524349900000E-01
     58 T   6 C    -4.462831500000E-01 -5.337644000000E-02 -2.475650100000E-01
     59 T   6 C     4.459279100000E-01 -1.080079400000E-01  2.516330500000E-01
     60 T   6 C     4.459279100000E-01 -1.080079400000E-01 -2.483669500000E-01
     61 T   6 C    -4.459551300000E-01  4.458745500000E-01  2.493293000000E-01
     62 T   6 C    -4.459551300000E-01  4.458745500000E-01 -2.506707000000E-01
     63 T   6 C    -3.927897800000E-01 -4.463742200000E-01  2.481482600000E-01
     64 T   6 C    -3.927897800000E-01 -4.463742200000E-01 -2.518517400000E-01
     65 T   6 C     3.928233700000E-01  4.461720300000E-01  2.480461900000E-01
     66 T   6 C     3.928233700000E-01  4.461720300000E-01 -2.519538100000E-01
     67 T   6 C     4.462872600000E-01  3.926899900000E-01  2.483523700000E-01
     68 T   6 C     4.462872600000E-01  3.926899900000E-01 -2.516476300000E-01
     69 T   6 C    -4.462570400000E-01 -3.929020000000E-01  2.475650500000E-01
     70 T   6 C    -4.462570400000E-01 -3.929020000000E-01 -2.524349600000E-01
     71 T   6 C     4.459599800000E-01 -4.460417700000E-01  2.483669700000E-01
     72 T   6 C     4.459599800000E-01 -4.460417700000E-01 -2.516330300000E-01
     73 T   8 O    -4.392633200000E-01  2.803706300000E-01  2.496938200000E-01
     74 T   8 O    -4.392633200000E-01  2.803706300000E-01 -2.503061900000E-01
     75 T   8 O    -2.803183000000E-01  2.803783300000E-01  2.522162800000E-01
     76 T   8 O    -2.803183000000E-01  2.803783300000E-01 -2.477837200000E-01
     77 T   8 O    -2.803205800000E-01  4.393234600000E-01  2.484107200000E-01
     78 T   8 O    -2.803205800000E-01  4.393234600000E-01 -2.515892800000E-01
     79 T   8 O     2.803245100000E-01 -2.803488900000E-01  2.496938300000E-01
     80 T   8 O     2.803245100000E-01 -2.803488900000E-01 -2.503061700000E-01
     81 T   8 O     2.803439700000E-01 -4.393043900000E-01  2.522162700000E-01
     82 T   8 O     2.803439700000E-01 -4.393043900000E-01 -2.477837300000E-01
     83 T   8 O     4.392638400000E-01 -2.803645800000E-01  2.484107200000E-01
     84 T   8 O     4.392638400000E-01 -2.803645800000E-01 -2.515892800000E-01

 T = ATOM BELONGING TO THE ASYMMETRIC UNIT

 ****    1 SYMMOPS - TRANSLATORS IN FRACTIONAL UNITS
 **** MATRICES AND TRANSLATORS IN THE CRYSTALLOGRAPHIC REFERENCE FRAME
   V INV                    ROTATION MATRICES                   TRANSLATORS
   1   1  1.00  0.00  0.00  0.00  1.00  0.00 -0.00  0.00  1.00  0.00  0.00  0.00

 DIRECT LATTICE VECTORS CARTESIAN COMPONENTS (ANGSTROM)
          X                    Y                    Z
   0.130113578931E+02  -0.751088897922E+01   0.000000000000E+00
   0.000000000000E+00   0.150239160000E+02   0.000000000000E+00
  -0.178558158248E-04  -0.473542732632E-04   0.839999999985E+01


 CARTESIAN COORDINATES - PRIMITIVE CELL
 *******************************************************************************
 *      ATOM          X(ANGSTROM)         Y(ANGSTROM)         Z(ANGSTROM)
 *******************************************************************************
    1     5 B    -5.026545229220E+00  6.316800551624E+00  2.104776743962E+00
    2     5 B    -5.026536301312E+00  6.316824228760E+00 -2.095223255962E+00
    3     5 B    -2.957015112044E+00  7.511850118676E+00  2.104776827962E+00
    4     5 B    -2.957006184136E+00  7.511873795813E+00 -2.095223255962E+00
    5     5 B    -5.026600766370E+00 -6.317642911029E+00  2.094733535962E+00
    6     5 B    -5.026591838462E+00 -6.317619233892E+00 -2.105266463962E+00
    7     5 B     2.956894916718E+00 -7.511642866102E+00  2.104776827962E+00
    8     5 B     2.956903844626E+00 -7.511619188965E+00 -2.095223255962E+00
    9     5 B     5.027105658026E+00  6.316918788785E+00  2.104776743962E+00
   10     5 B     5.027114585934E+00  6.316942465921E+00 -2.095223255962E+00
   11     5 B     5.026849095397E+00 -6.315955066760E+00  2.094733535962E+00
   12     5 B     5.026858023305E+00 -6.315931389623E+00 -2.105266379962E+00
   13     1 H    -1.261538590043E+00  5.369555978966E+00  2.083955159962E+00
   14     1 H    -1.261529662135E+00  5.369579656102E+00 -2.116044755962E+00
   15     1 H     1.257342031578E+00 -5.367410122486E+00  2.080771307962E+00
   16     1 H     1.257350959486E+00 -5.367386445349E+00 -2.119228775962E+00
   17     1 H    -1.262478002273E+00 -5.369862548978E+00  2.080281167962E+00
   18     1 H    -1.262469074365E+00 -5.369838871842E+00 -2.119718747962E+00
   19     1 H     1.258664636890E+00  5.368390024677E+00  2.080403387962E+00
   20     1 H     1.258673564797E+00  5.368413701814E+00 -2.119596611962E+00
   21     1 H    -4.020092519019E+00  3.777991163289E+00  2.116044923962E+00
   22     1 H    -4.020083591111E+00  3.778014840425E+00 -2.083955075962E+00
   23     1 H     4.019590645893E+00 -3.771098519565E+00  2.119229111962E+00
   24     1 H     4.019599573801E+00 -3.771074842429E+00 -2.080770887962E+00
   25     1 H     5.280915192070E+00 -1.590385637299E+00  2.119719419962E+00
   26     1 H     5.280924119978E+00 -1.590361960162E+00 -2.080280579962E+00
   27     1 H    -5.278553534143E+00  1.594962256378E+00  2.119596359962E+00
   28     1 H    -5.278544606235E+00  1.594985933514E+00 -2.080403639962E+00
   29     1 H    -4.019567572629E+00 -3.778588845118E+00  2.083955411962E+00
   30     1 H    -4.019558644722E+00 -3.778565167982E+00 -2.116044587962E+00
   31     1 H     4.020008522345E+00  3.773250768624E+00  2.080771055962E+00
   32     1 H     4.020017450252E+00  3.773274445761E+00 -2.119228943962E+00
   33     1 H     5.280532481755E+00  1.591499374912E+00  2.080280831962E+00
   34     1 H     5.280541409663E+00  1.591523052048E+00 -2.119719167962E+00
   35     1 H    -5.278830983096E+00 -1.595797670067E+00  2.080403807962E+00
   36     1 H    -5.278822055188E+00 -1.595773992930E+00 -2.119596191962E+00
   37     6 C    -1.406658320275E+00  7.511808611650E+00  2.094366119962E+00
   38     6 C    -1.406649392368E+00  7.511832288786E+00 -2.105633879962E+00
   39     6 C    -6.962537718553E-01  6.303080914217E+00  2.084445215962E+00
   40     6 C    -6.962448439473E-01  6.303104591353E+00 -2.115554783962E+00
   41     6 C     6.946475074900E-01 -6.302619044542E+00  2.083588163962E+00
   42     6 C     6.946564353979E-01 -6.302595367406E+00 -2.116411835962E+00
   43     6 C    -6.967351957427E-01 -6.303110551270E+00  2.086160159962E+00
   44     6 C    -6.967262678348E-01 -6.303086874133E+00 -2.113839839962E+00
   45     6 C     6.951448101809E-01  6.303131032716E+00  2.079546083962E+00
   46     6 C     6.951537380888E-01  6.303154709852E+00 -2.120453915962E+00
   47     6 C     1.405689195290E+00 -7.511588570671E+00  2.086282547962E+00
   48     6 C     1.405698123198E+00 -7.511564893534E+00 -2.113717451962E+00
   49     6 C     7.208800704551E+00 -2.536226587170E+00  2.105634131962E+00
   50     6 C     7.208809632459E+00 -2.536202910034E+00 -2.094365867962E+00
   51     6 C    -5.111154078989E+00  3.755051574831E+00  2.115554867962E+00
   52     6 C    -5.111145151081E+00  3.755075251967E+00 -2.084445131962E+00
   53     6 C     5.110839576445E+00 -3.751607336510E+00  2.116412255962E+00
   54     6 C     5.110848504353E+00 -3.751583659374E+00 -2.083587743962E+00
   55     6 C     5.806802933232E+00 -2.546703516775E+00  2.113840343962E+00
   56     6 C     5.806811861140E+00 -2.546679839638E+00 -2.086159739962E+00
   57     6 C    -5.806754293723E+00  2.550048088130E+00  2.120453915962E+00
   58     6 C    -5.806745365815E+00  2.550071765267E+00 -2.079546083962E+00
   59     6 C     5.802123138399E+00 -4.972029158537E+00  2.113717619962E+00
   60     6 C     5.802132066307E+00 -4.972005481401E+00 -2.086282379962E+00
   61     6 C     7.208871640404E+00  2.537400470856E+00  2.094366119962E+00
   62     6 C     7.208880568312E+00  2.537424147992E+00 -2.105633879962E+00
   63     6 C    -5.110732835205E+00 -3.756100106975E+00  2.084445383962E+00
   64     6 C    -5.110723907297E+00 -3.756076429839E+00 -2.115554615962E+00
   65     6 C     5.111161026760E+00  3.752786633711E+00  2.083587995962E+00
   66     6 C     5.111169954667E+00  3.752810310847E+00 -2.116412003962E+00
   67     6 C     5.806798828437E+00  2.547715600556E+00  2.086159907962E+00
   68     6 C     5.806807756345E+00  2.547739277693E+00 -2.113840091962E+00
   69     6 C    -5.806414480212E+00 -2.551151283861E+00  2.079546419962E+00
   70     6 C    -5.806405552304E+00 -2.551127606724E+00 -2.120453663962E+00
   71     6 C     5.802540470965E+00  4.973054254838E+00  2.086282547962E+00
   72     6 C     5.802549398873E+00  4.973077931974E+00 -2.113717451962E+00
   73     8 O     7.295941168757E+00  6.220198632697E-04  2.097428087962E+00
   74     8 O     7.295950096666E+00  6.456970003748E-04 -2.102571995962E+00
   75     8 O    -3.647326228801E+00  6.317808164764E+00  2.118616751962E+00
   76     8 O    -3.647317300893E+00  6.317831841901E+00 -2.081383247962E+00
   77     8 O    -3.647355826745E+00 -6.318112248470E+00  2.086650047962E+00
   78     8 O    -3.647346898837E+00 -6.318088571334E+00 -2.113349951962E+00
   79     8 O     3.647398067319E+00 -6.317436270886E+00  2.097428171962E+00
   80     8 O     3.647406995227E+00 -6.317412593750E+00 -2.102571827962E+00
   81     8 O     3.647651223303E+00  6.318199368028E+00  2.118616667962E+00
   82     8 O     3.647660151211E+00  6.318223045164E+00 -2.081383331962E+00
   83     8 O    -7.295943296914E+00 -5.586182122386E-04  2.086650047962E+00
   84     8 O    -7.295934369006E+00 -5.349410756070E-04 -2.113349951962E+00

 *******************************************************************************
 STARTING BASIS SET HANDLING 
 *******************************************************************************

 Loading internal basis set: SOLDEF2MSVP         

 Please cite in your publication:
 L. Dona', J. G. Brandenburg and B. Civalleri, J. Chem. Phys., 151, 121101 (2019
 )                                                                              
                                                                                
                    

 *******************************************************************************
 LOCAL ATOMIC FUNCTIONS BASIS SET
 *******************************************************************************
   ATOM   X(AU)   Y(AU)   Z(AU)  N. TYPE  EXPONENT  S COEF   P COEF   D/F/G COEF
 *******************************************************************************
   1 B   -9.499  11.937   3.977
                                  1 S  
                                         2.410E+03 1.755E-03 0.000E+00 0.000E+00
                                         3.619E+02 1.344E-02 0.000E+00 0.000E+00
                                         8.231E+01 6.637E-02 0.000E+00 0.000E+00
                                         2.311E+01 2.303E-01 0.000E+00 0.000E+00
                                         7.252E+00 5.150E-01 0.000E+00 0.000E+00
                                  2 S  
                                         2.367E+00 1.000E+00 0.000E+00 0.000E+00
                                  3 S  
                                         5.533E-01 1.000E+00 0.000E+00 0.000E+00
                                  4 S  
                                         1.716E-01 1.000E+00 0.000E+00 0.000E+00
                           5-     7 P  
                                         6.002E+00 0.000E+00-3.555E-02 0.000E+00
                                         1.240E+00 0.000E+00-1.983E-01 0.000E+00
                                         3.367E-01 0.000E+00-5.048E-01 0.000E+00
                           8-    10 P  
                                         1.256E-01 0.000E+00 1.000E+00 0.000E+00
                          11-    15 D  
                                         8.880E-01 0.000E+00 0.000E+00 1.000E+00
   2 B   -9.499  11.937  -3.959
   3 B   -5.588  14.195   3.977
   4 B   -5.588  14.195  -3.959
   5 B   -9.499 -11.939   3.958
   6 B   -9.499 -11.939  -3.978
   7 B    5.588 -14.195   3.977
   8 B    5.588 -14.195  -3.959
   9 B    9.500  11.937   3.977
  10 B    9.500  11.937  -3.959
  11 B    9.499 -11.935   3.958
  12 B    9.499 -11.935  -3.978
  13 H   -2.384  10.147   3.938
                                181 S  
                                         1.874E+01 1.968E-02 0.000E+00 0.000E+00
                                         2.826E+00 1.380E-01 0.000E+00 0.000E+00
                                         6.401E-01 4.783E-01 0.000E+00 0.000E+00
                                182 S  
                                         1.756E-01 1.000E+00 0.000E+00 0.000E+00
  14 H   -2.384  10.147  -3.999
  15 H    2.376 -10.143   3.932
  16 H    2.376 -10.143  -4.005
  17 H   -2.386 -10.148   3.931
  18 H   -2.386 -10.148  -4.006
  19 H    2.379  10.145   3.931
  20 H    2.379  10.145  -4.005
  21 H   -7.597   7.139   3.999
  22 H   -7.597   7.139  -3.938
  23 H    7.596  -7.126   4.005
  24 H    7.596  -7.126  -3.932
  25 H    9.979  -3.005   4.006
  26 H    9.980  -3.005  -3.931
  27 H   -9.975   3.014   4.005
  28 H   -9.975   3.014  -3.931
  29 H   -7.596  -7.140   3.938
  30 H   -7.596  -7.140  -3.999
  31 H    7.597   7.130   3.932
  32 H    7.597   7.130  -4.005
  33 H    9.979   3.007   3.931
  34 H    9.979   3.008  -4.006
  35 H   -9.976  -3.016   3.931
  36 H   -9.976  -3.016  -4.005
  37 C   -2.658  14.195   3.958
                                229 S  
                                         3.624E+03 1.634E-03 0.000E+00 0.000E+00
                                         5.440E+02 1.252E-02 0.000E+00 0.000E+00
                                         1.237E+02 6.211E-02 0.000E+00 0.000E+00
                                         3.476E+01 2.182E-01 0.000E+00 0.000E+00
                                         1.093E+01 4.980E-01 0.000E+00 0.000E+00
                                230 S  
                                         3.574E+00 1.000E+00 0.000E+00 0.000E+00
                                231 S  
                                         7.742E-01 1.000E+00 0.000E+00 0.000E+00
                                232 S  
                                         2.330E-01 1.000E+00 0.000E+00 0.000E+00
                         233-   235 P  
                                         9.443E+00 0.000E+00 3.790E-02 0.000E+00
                                         2.002E+00 0.000E+00 2.082E-01 0.000E+00
                                         5.463E-01 0.000E+00 5.047E-01 0.000E+00
                         236-   238 P  
                                         1.820E-01 0.000E+00 1.000E+00 0.000E+00
                         239-   243 D  
                                         8.880E-01 0.000E+00 0.000E+00 1.000E+00
  38 C   -2.658  14.195  -3.979
  39 C   -1.316  11.911   3.939
  40 C   -1.316  11.911  -3.998
  41 C    1.313 -11.910   3.937
  42 C    1.313 -11.910  -3.999
  43 C   -1.317 -11.911   3.942
  44 C   -1.317 -11.911  -3.995
  45 C    1.314  11.911   3.930
  46 C    1.314  11.911  -4.007
  47 C    2.656 -14.195   3.943
  48 C    2.656 -14.195  -3.994
  49 C   13.623  -4.793   3.979
  50 C   13.623  -4.793  -3.958
  51 C   -9.659   7.096   3.998
  52 C   -9.659   7.096  -3.939
  53 C    9.658  -7.090   3.999
  54 C    9.658  -7.089  -3.937
  55 C   10.973  -4.813   3.995
  56 C   10.973  -4.813  -3.942
  57 C  -10.973   4.819   4.007
  58 C  -10.973   4.819  -3.930
  59 C   10.964  -9.396   3.994
  60 C   10.964  -9.396  -3.943
  61 C   13.623   4.795   3.958
  62 C   13.623   4.795  -3.979
  63 C   -9.658  -7.098   3.939
  64 C   -9.658  -7.098  -3.998
  65 C    9.659   7.092   3.937
  66 C    9.659   7.092  -3.999
  67 C   10.973   4.814   3.942
  68 C   10.973   4.815  -3.995
  69 C  -10.973  -4.821   3.930
  70 C  -10.973  -4.821  -4.007
  71 C   10.965   9.398   3.943
  72 C   10.965   9.398  -3.994
  73 O   13.787   0.001   3.964
                                769 S  
                                         6.773E+03 1.727E-03 0.000E+00 0.000E+00
                                         1.017E+03 1.325E-02 0.000E+00 0.000E+00
                                         2.313E+02 6.603E-02 0.000E+00 0.000E+00
                                         6.501E+01 2.353E-01 0.000E+00 0.000E+00
                                         2.050E+01 5.498E-01 0.000E+00 0.000E+00
                                770 S  
                                         6.716E+00 1.000E+00 0.000E+00 0.000E+00
                                771 S  
                                         1.147E+00 1.000E+00 0.000E+00 0.000E+00
                                772 S  
                                         3.342E-01 1.000E+00 0.000E+00 0.000E+00
                         773-   775 P  
                                         1.769E+01 0.000E+00 4.359E-02 0.000E+00
                                         3.854E+00 0.000E+00 2.318E-01 0.000E+00
                                         1.047E+00 0.000E+00 5.146E-01 0.000E+00
                         776-   778 P  
                                         2.759E-01 0.000E+00 1.000E+00 0.000E+00
                         779-   783 D  
                                         8.000E-01 0.000E+00 0.000E+00 1.000E+00
  74 O   13.787   0.001  -3.973
  75 O   -6.892  11.939   4.004
  76 O   -6.892  11.939  -3.933
  77 O   -6.893 -11.940   3.943
  78 O   -6.892 -11.939  -3.994
  79 O    6.893 -11.938   3.964
  80 O    6.893 -11.938  -3.973
  81 O    6.893  11.940   4.004
  82 O    6.893  11.940  -3.933
  83 O  -13.787  -0.001   3.943
  84 O  -13.787  -0.001  -3.994

 *******************************************************************************
 FINISHED BASIS SET HANDLING 
 *******************************************************************************

 INFORMATION **** SET_MPP **** PCRYSTAL CALCULATION
 INFORMATION **** READM2 **** NEW DEFAULT: FOCK/KS MATRIX MIXING SET TO 30 %
 INFORMATION **** READM2 **** NEW DEFAULT: FULL DIRECT SCF MODE
 INFORMATION **** READM2 **** NEW DEFAULT: COULOMB BIPOLAR BUFFER SET TO 32 Mb
 INFORMATION **** READM2 **** NEW DEFAULT: EXCHANGE BIPOLAR BUFFER SET TO 32 Mb

 *******************************************************************************
 NEW DEFAULT: DFT INTEGRATION GRID INCREASED TO XLGRID
 NEW DEFAULT: DIIS ACCELERATOR ACTIVE
 USE KEYWORD NODIIS TO TURN IT OFF
 *******************************************************************************

 WARNING **** RDDFTP **** HSEsol-HJS ACTIVE
 RANGE SEPARATION - OMEGA:   0.110000000000000     
 WARNING **** RDDFTP **** HSEsol-3c has to be combined with sol-def2-mSVP basis set
 *******************************************************************************
 N. OF ATOMS PER CELL        84  COULOMB OVERLAP TOL         (T1) 10**   -6
 NUMBER OF SHELLS           468  COULOMB PENETRATION TOL     (T2) 10**   -6
 NUMBER OF AO               948  EXCHANGE OVERLAP TOL        (T3) 10**   -6
 N. OF ELECTRONS PER CELL   396  EXCHANGE PSEUDO OVP (F(G))  (T4) 10**   -6
 CORE ELECTRONS PER CELL    120  EXCHANGE PSEUDO OVP (P(G))  (T5) 10**  -12
 N. OF SYMMETRY OPERATORS     1  POLE ORDER IN MONO ZONE                  4
 *******************************************************************************
 TYPE OF CALCULATION :  RESTRICTED CLOSED SHELL
 KOHN-SHAM HAMILTONIAN

 (EXCHANGE)[CORRELATION] FUNCTIONAL:(HSEsol GGA)[PBEsol]

 RANGE-SEPARATED HYBRID FUNCTIONAL 
 OMEGA (SHORT-RANGE)[LONG-RANGE]:(    0.1100)[    0.0000]

 HYBRID EXCHANGE - PERCENTAGE OF FOCK EXCHANGE    25.0000

 CAPPA:IS1  2;IS2  2;IS3  8; K PTS MONK NET  20; SYMMOPS:K SPACE   2;G SPACE   1

 *******************************************************************************
 MAX NUMBER OF SCF CYCLES      50  CONVERGENCE ON DELTAP        10**-16
 WEIGHT OF F(I) IN F(I+1)      30% CONVERGENCE ON ENERGY        10**- 6
 SHRINK. FACT.(MONKH.)    2  2  8  NUMBER OF K POINTS IN THE IBZ     20
 SHRINKING FACTOR(GILAT NET)    8  NUMBER OF K POINTS(GILAT NET)   1028
 *******************************************************************************
 *** K POINTS COORDINATES (OBLIQUE COORDINATES IN UNITS OF IS =  2)
   1-R(  0  0  0)   2-R(  1  0  0)   3-R(  0  1  0)   4-R(  1  1  0)
   5-C(  0  0  1)   6-C(  1  0  1)   7-C(  0  1  1)   8-C(  1  1  1)
   9-C(  0  0  2)  10-C(  1  0  2)  11-C(  0  1  2)  12-C(  1  1  2)
  13-C(  0  0  3)  14-C(  1  0  3)  15-C(  0  1  3)  16-C(  1  1  3)
  17-R(  0  0  4)  18-R(  1  0  4)  19-R(  0  1  4)  20-R(  1  1  4)

 DIRECT LATTICE VECTORS COMPON. (A.U.)     RECIP. LATTICE VECTORS COMPON. (A.U.) 
        X            Y            Z              X            Y            Z
   24.5879030  -14.1935232    0.0000000      0.2555397    0.0000000    0.0000005
    0.0000000   28.3910867    0.0000000      0.1277517    0.2213084    0.0000015
   -0.0000337   -0.0000895   15.8736995      0.0000000    0.0000000    0.3958236

 DISK SPACE FOR EIGENVECTORS (FTN 10)    28758528 REALS

 SYMMETRY ADAPTION OF THE BLOCH FUNCTIONS DISABLED
 TTTTTTTTTTTTTTTTTTTTTTTTTTTTTT gordsh1     TELAPSE        0.06 TCPU        0.05

 MATRIX SIZE: P(G)  627660, F(G)  135732, P(G) IRR  315732, F(G) IRR  136692
 MAX G-VECTOR INDEX FOR 1- AND 2-ELECTRON INTEGRALS  47

 TTTTTTTTTTTTTTTTTTTTTTTTTTTTTT INPUT       TELAPSE        2.72 TCPU        2.72

 NEIGHBORS OF THE NON-EQUIVALENT ATOMS

 N = NUMBER OF NEIGHBORS AT DISTANCE R
    ATOM  N     R/ANG      R/AU   NEIGHBORS (ATOM LABELS AND CELL INDICES)
   1 B    1     1.3791     2.6061   73 O   -1 0 0
   1 B    1     1.3793     2.6065   75 O    0 0 0
   1 B    1     1.5503     2.9297   49 C   -1 0 0
   1 B    1     2.3895     4.5155    5 B    0 1 0
   1 B    1     2.3898     4.5160    3 B    0 0 0
   1 B    1     2.5632     4.8437   51 C    0 0 0

   2 B    1     1.3791     2.6061   74 O   -1 0 0
   2 B    1     1.3793     2.6065   76 O    0 0 0
   2 B    1     1.5503     2.9297   50 C   -1 0 0
   2 B    1     2.3895     4.5155    6 B    0 1 0
   2 B    1     2.3898     4.5160    4 B    0 0 0
   2 B    1     2.5632     4.8437   52 C    0 0 0

   3 B    1     1.3793     2.6065   77 O    0 1 0
   3 B    1     1.3793     2.6065   75 O    0 0 0
   3 B    1     1.5504     2.9298   37 C    0 0 0
   3 B    1     2.3895     4.5156    5 B    0 1 0
   3 B    1     2.3898     4.5160    1 B    0 0 0
   3 B    1     2.5634     4.8440   43 C    0 1 0

   4 B    1     1.3793     2.6065   78 O    0 1 0
   4 B    1     1.3793     2.6065   76 O    0 0 0
   4 B    1     1.5504     2.9298   38 C    0 0 0
   4 B    1     2.3895     4.5156    6 B    0 1 0
   4 B    1     2.3898     4.5160    2 B    0 0 0
   4 B    1     2.5634     4.8440   44 C    0 1 0

   5 B    1     1.3791     2.6061   73 O   -1-1 0
   5 B    1     1.3793     2.6064   77 O    0 0 0
   5 B    1     1.5502     2.9294   61 C   -1-1 0
   5 B    1     2.3895     4.5155    1 B    0-1 0
   5 B    1     2.3895     4.5156    3 B    0-1 0
   5 B    1     2.5629     4.8433   63 C    0 0 0

   6 B    1     1.3791     2.6061   74 O   -1-1 0
   6 B    1     1.3793     2.6064   78 O    0 0 0
   6 B    1     1.5502     2.9294   62 C   -1-1 0
   6 B    1     2.3895     4.5155    2 B    0-1 0
   6 B    1     2.3895     4.5156    4 B    0-1 0
   6 B    1     2.5629     4.8433   64 C    0 0 0

   7 B    1     1.3795     2.6068   79 O    0 0 0
   7 B    1     1.3795     2.6070   81 O    0-1 0
   7 B    1     1.5513     2.9316   47 C    0 0 0
   7 B    1     2.3905     4.5174   11 B    0 0 0
   7 B    1     2.3905     4.5175    9 B    0-1 0
   7 B    1     2.5648     4.8468   45 C    0-1 0

   8 B    1     1.3795     2.6068   80 O    0 0 0
   8 B    1     1.3795     2.6070   82 O    0-1 0
   8 B    1     1.5513     2.9316   48 C    0 0 0
   8 B    1     2.3905     4.5174   12 B    0 0 0
   8 B    1     2.3905     4.5175   10 B    0-1 0
   8 B    1     2.5648     4.8468   46 C    0-1 0

   9 B    1     1.3795     2.6069   81 O    0 0 0
   9 B    1     1.3797     2.6072   83 O    1 1 0
   9 B    1     1.5516     2.9322   71 C    0 0 0
   9 B    1     2.3905     4.5175    7 B    0 1 0
   9 B    1     2.3911     4.5185   11 B    0 1 0
   9 B    1     2.5651     4.8473   69 C    1 1 0

  10 B    1     1.3795     2.6069   82 O    0 0 0
  10 B    1     1.3797     2.6072   84 O    1 1 0
  10 B    1     1.5516     2.9322   72 C    0 0 0
  10 B    1     2.3905     4.5175    8 B    0 1 0
  10 B    1     2.3911     4.5185   12 B    0 1 0
  10 B    1     2.5651     4.8473   70 C    1 1 0

  11 B    1     1.3795     2.6068   79 O    0 0 0
  11 B    1     1.3796     2.6071   83 O    1 0 0
  11 B    1     1.5516     2.9322   59 C    0 0 0
  11 B    1     2.3905     4.5174    7 B    0 0 0
  11 B    1     2.3911     4.5185    9 B    0-1 0
  11 B    1     2.5651     4.8473   57 C    1 0 0

  12 B    1     1.3795     2.6068   80 O    0 0 0
  12 B    1     1.3796     2.6071   84 O    1 0 0
  12 B    1     1.5516     2.9322   60 C    0 0 0
  12 B    1     2.3905     4.5174    8 B    0 0 0
  12 B    1     2.3911     4.5185   10 B    0-1 0
  12 B    1     2.5651     4.8473   58 C    1 0 0

  13 H    1     1.0913     2.0623   39 C    0 0 0
  13 H    1     2.1472     4.0576   37 C    0 0 0
  13 H    1     2.1680     4.0969   45 C    0 0 0
  13 H    1     2.5202     4.7625   19 H    0 0 0
  13 H    1     2.5676     4.8520   75 O    0 0 0
  13 H    1     2.7321     5.1630    3 B    0 0 0

  14 H    1     1.0913     2.0623   40 C    0 0 0
  14 H    1     2.1472     4.0576   38 C    0 0 0
  14 H    1     2.1680     4.0969   46 C    0 0 0
  14 H    1     2.5202     4.7625   20 H    0 0 0
  14 H    1     2.5676     4.8520   76 O    0 0 0
  14 H    1     2.7321     5.1630    4 B    0 0 0

  15 H    1     1.0914     2.0625   41 C    0 0 0
  15 H    1     2.1493     4.0616   47 C    0 0 0
  15 H    1     2.1666     4.0942   43 C    0 0 0
  15 H    1     2.5198     4.7618   17 H    0 0 0
  15 H    1     2.5720     4.8604   79 O    0 0 0
  15 H    1     2.7362     5.1707    7 B    0 0 0

  16 H    1     1.0914     2.0625   42 C    0 0 0
  16 H    1     2.1493     4.0616   48 C    0 0 0
  16 H    1     2.1666     4.0942   44 C    0 0 0
  16 H    1     2.5198     4.7618   18 H    0 0 0
  16 H    1     2.5720     4.8604   80 O    0 0 0
  16 H    1     2.7362     5.1707    8 B    0 0 0

  17 H    1     1.0914     2.0624   43 C    0 0 0
  17 H    1     2.1471     4.0575   37 C    0-1 0
  17 H    1     2.1680     4.0970   41 C    0 0 0
  17 H    1     2.5198     4.7618   15 H    0 0 0
  17 H    1     2.5665     4.8500   77 O    0 0 0
  17 H    1     2.7315     5.1618    3 B    0-1 0

  18 H    1     1.0914     2.0624   44 C    0 0 0
  18 H    1     2.1471     4.0575   38 C    0-1 0
  18 H    1     2.1680     4.0970   42 C    0 0 0
  18 H    1     2.5198     4.7618   16 H    0 0 0
  18 H    1     2.5665     4.8500   78 O    0 0 0
  18 H    1     2.7315     5.1618    4 B    0-1 0

  19 H    1     1.0915     2.0626   45 C    0 0 0
  19 H    1     2.1490     4.0610   47 C    0 1 0
  19 H    1     2.1669     4.0948   39 C    0 0 0
  19 H    1     2.5202     4.7625   13 H    0 0 0
  19 H    1     2.5712     4.8588   81 O    0 0 0
  19 H    1     2.7351     5.1686    7 B    0 1 0

  20 H    1     1.0915     2.0626   46 C    0 0 0
  20 H    1     2.1490     4.0610   48 C    0 1 0
  20 H    1     2.1669     4.0948   40 C    0 0 0
  20 H    1     2.5202     4.7625   14 H    0 0 0
  20 H    1     2.5712     4.8588   82 O    0 0 0
  20 H    1     2.7351     5.1686    8 B    0 1 0

  21 H    1     1.0913     2.0623   51 C    0 0 0
  21 H    1     2.1469     4.0571   49 C   -1 0 0
  21 H    1     2.1680     4.0968   57 C    0 0 0
  21 H    1     2.5198     4.7617   27 H    0 0 0
  21 H    1     2.5670     4.8510   75 O    0 0 0
  21 H    1     2.7310     5.1609    1 B    0 0 0

  22 H    1     1.0913     2.0623   52 C    0 0 0
  22 H    1     2.1469     4.0571   50 C   -1 0 0
  22 H    1     2.1680     4.0968   58 C    0 0 0
  22 H    1     2.5198     4.7617   28 H    0 0 0
  22 H    1     2.5670     4.8510   76 O    0 0 0
  22 H    1     2.7310     5.1609    2 B    0 0 0

  23 H    1     1.0914     2.0625   53 C    0 0 0
  23 H    1     2.1493     4.0617   59 C    0 0 0
  23 H    1     2.1664     4.0939   55 C    0 0 0
  23 H    1     2.5192     4.7606   25 H    0 0 0
  23 H    1     2.5735     4.8632   79 O    0 0 0
  23 H    1     2.7371     5.1723   11 B    0 0 0

  24 H    1     1.0914     2.0625   54 C    0 0 0
  24 H    1     2.1493     4.0617   60 C    0 0 0
  24 H    1     2.1664     4.0939   56 C    0 0 0
  24 H    1     2.5192     4.7606   26 H    0 0 0
  24 H    1     2.5735     4.8632   80 O    0 0 0
  24 H    1     2.7371     5.1723   12 B    0 0 0

  25 H    1     1.0914     2.0624   55 C    0 0 0
  25 H    1     2.1475     4.0581   49 C    0 0 0
  25 H    1     2.1679     4.0967   53 C    0 0 0
  25 H    1     2.5192     4.7606   23 H    0 0 0
  25 H    1     2.5675     4.8519   73 O    0 0 0
  25 H    1     2.7328     5.1643    1 B    1 0 0

  26 H    1     1.0914     2.0624   56 C    0 0 0
  26 H    1     2.1475     4.0581   50 C    0 0 0
  26 H    1     2.1679     4.0967   54 C    0 0 0
  26 H    1     2.5192     4.7606   24 H    0 0 0
  26 H    1     2.5675     4.8519   74 O    0 0 0
  26 H    1     2.7328     5.1643    2 B    1 0 0

  27 H    1     1.0914     2.0625   57 C    0 0 0
  27 H    1     2.1491     4.0612   59 C   -1 0 0
  27 H    1     2.1666     4.0942   51 C    0 0 0
  27 H    1     2.5198     4.7617   21 H    0 0 0
  27 H    1     2.5723     4.8609   83 O    0 0 0
  27 H    1     2.7355     5.1693   11 B   -1 0 0

  28 H    1     1.0914     2.0625   58 C    0 0 0
  28 H    1     2.1491     4.0612   60 C   -1 0 0
  28 H    1     2.1666     4.0942   52 C    0 0 0
  28 H    1     2.5198     4.7617   22 H    0 0 0
  28 H    1     2.5723     4.8609   84 O    0 0 0
  28 H    1     2.7355     5.1693   12 B   -1 0 0

  29 H    1     1.0914     2.0624   63 C    0 0 0
  29 H    1     2.1475     4.0582   61 C   -1-1 0
  29 H    1     2.1678     4.0966   69 C    0 0 0
  29 H    1     2.5200     4.7621   35 H    0 0 0
  29 H    1     2.5667     4.8503   77 O    0 0 0
  29 H    1     2.7315     5.1618    5 B    0 0 0

  30 H    1     1.0914     2.0624   64 C    0 0 0
  30 H    1     2.1475     4.0582   62 C   -1-1 0
  30 H    1     2.1678     4.0966   70 C    0 0 0
  30 H    1     2.5200     4.7621   36 H    0 0 0
  30 H    1     2.5667     4.8503   78 O    0 0 0
  30 H    1     2.7315     5.1618    6 B    0 0 0

  31 H    1     1.0913     2.0623   65 C    0 0 0
  31 H    1     2.1487     4.0605   71 C    0 0 0
  31 H    1     2.1667     4.0945   67 C    0 0 0
  31 H    1     2.5197     4.7616   33 H    0 0 0
  31 H    1     2.5723     4.8610   81 O    0 0 0
  31 H    1     2.7359     5.1701    9 B    0 0 0

  32 H    1     1.0913     2.0623   66 C    0 0 0
  32 H    1     2.1487     4.0605   72 C    0 0 0
  32 H    1     2.1667     4.0945   68 C    0 0 0
  32 H    1     2.5197     4.7616   34 H    0 0 0
  32 H    1     2.5723     4.8610   82 O    0 0 0
  32 H    1     2.7359     5.1701   10 B    0 0 0

  33 H    1     1.0915     2.0626   67 C    0 0 0
  33 H    1     2.1479     4.0589   61 C    0 0 0
  33 H    1     2.1679     4.0968   65 C    0 0 0
  33 H    1     2.5197     4.7616   31 H    0 0 0
  33 H    1     2.5677     4.8522   73 O    0 0 0
  33 H    1     2.7331     5.1648    5 B    1 1 0

  34 H    1     1.0915     2.0626   68 C    0 0 0
  34 H    1     2.1479     4.0589   62 C    0 0 0
  34 H    1     2.1679     4.0968   66 C    0 0 0
  34 H    1     2.5197     4.7616   32 H    0 0 0
  34 H    1     2.5677     4.8522   74 O    0 0 0
  34 H    1     2.7331     5.1648    6 B    1 1 0

  35 H    1     1.0914     2.0624   69 C    0 0 0
  35 H    1     2.1486     4.0602   71 C   -1-1 0
  35 H    1     2.1668     4.0947   63 C    0 0 0
  35 H    1     2.5200     4.7621   29 H    0 0 0
  35 H    1     2.5717     4.8598   83 O    0 0 0
  35 H    1     2.7349     5.1682    9 B   -1-1 0

  36 H    1     1.0914     2.0624   70 C    0 0 0
  36 H    1     2.1486     4.0602   72 C   -1-1 0
  36 H    1     2.1668     4.0947   64 C    0 0 0
  36 H    1     2.5200     4.7621   30 H    0 0 0
  36 H    1     2.5717     4.8598   84 O    0 0 0
  36 H    1     2.7349     5.1682   10 B   -1-1 0

  37 C    1     1.4020     2.6495   43 C    0 1 0
  37 C    1     1.4021     2.6495   39 C    0 0 0
  37 C    1     1.5504     2.9298    3 B    0 0 0
  37 C    1     2.1471     4.0575   17 H    0 1 0
  37 C    1     2.1472     4.0576   13 H    0 0 0
  37 C    1     2.4246     4.5817   41 C    0 1 0

  38 C    1     1.4020     2.6495   44 C    0 1 0
  38 C    1     1.4021     2.6495   40 C    0 0 0
  38 C    1     1.5504     2.9298    4 B    0 0 0
  38 C    1     2.1471     4.0575   18 H    0 1 0
  38 C    1     2.1472     4.0576   14 H    0 0 0
  38 C    1     2.4246     4.5817   42 C    0 1 0

  39 C    1     1.0913     2.0623   13 H    0 0 0
  39 C    1     1.3914     2.6294   45 C    0 0 0
  39 C    1     1.4021     2.6495   37 C    0 0 0
  39 C    1     2.1669     4.0948   19 H    0 0 0
  39 C    1     2.4177     4.5688   43 C    0 1 0
  39 C    1     2.4250     4.5825   47 C    0 1 0

  40 C    1     1.0913     2.0623   14 H    0 0 0
  40 C    1     1.3914     2.6294   46 C    0 0 0
  40 C    1     1.4021     2.6495   38 C    0 0 0
  40 C    1     2.1669     4.0948   20 H    0 0 0
  40 C    1     2.4177     4.5688   44 C    0 1 0
  40 C    1     2.4250     4.5825   48 C    0 1 0

  41 C    1     1.0914     2.0625   15 H    0 0 0
  41 C    1     1.3914     2.6293   43 C    0 0 0
  41 C    1     1.4026     2.6505   47 C    0 0 0
  41 C    1     2.1680     4.0970   17 H    0 0 0
  41 C    1     2.4182     4.5697   45 C    0-1 0
  41 C    1     2.4246     4.5817   37 C    0-1 0

  42 C    1     1.0914     2.0625   16 H    0 0 0
  42 C    1     1.3914     2.6293   44 C    0 0 0
  42 C    1     1.4026     2.6505   48 C    0 0 0
  42 C    1     2.1680     4.0970   18 H    0 0 0
  42 C    1     2.4182     4.5697   46 C    0-1 0
  42 C    1     2.4246     4.5817   38 C    0-1 0

  43 C    1     1.0914     2.0624   17 H    0 0 0
  43 C    1     1.3914     2.6293   41 C    0 0 0
  43 C    1     1.4020     2.6495   37 C    0-1 0
  43 C    1     2.1666     4.0942   15 H    0 0 0
  43 C    1     2.4177     4.5688   39 C    0-1 0
  43 C    1     2.4250     4.5826   47 C    0 0 0

  44 C    1     1.0914     2.0624   18 H    0 0 0
  44 C    1     1.3914     2.6293   42 C    0 0 0
  44 C    1     1.4020     2.6495   38 C    0-1 0
  44 C    1     2.1666     4.0942   16 H    0 0 0
  44 C    1     2.4177     4.5688   40 C    0-1 0
  44 C    1     2.4250     4.5826   48 C    0 0 0

  45 C    1     1.0915     2.0626   19 H    0 0 0
  45 C    1     1.3914     2.6294   39 C    0 0 0
  45 C    1     1.4025     2.6504   47 C    0 1 0
  45 C    1     2.1680     4.0969   13 H    0 0 0
  45 C    1     2.4182     4.5697   41 C    0 1 0
  45 C    1     2.4246     4.5818   37 C    0 0 0

  46 C    1     1.0915     2.0626   20 H    0 0 0
  46 C    1     1.3914     2.6294   40 C    0 0 0
  46 C    1     1.4025     2.6504   48 C    0 1 0
  46 C    1     2.1680     4.0969   14 H    0 0 0
  46 C    1     2.4182     4.5697   42 C    0 1 0
  46 C    1     2.4246     4.5818   38 C    0 0 0

  47 C    1     1.4025     2.6504   45 C    0-1 0
  47 C    1     1.4026     2.6505   41 C    0 0 0
  47 C    1     1.5513     2.9316    7 B    0 0 0
  47 C    1     2.1490     4.0610   19 H    0-1 0
  47 C    1     2.1493     4.0616   15 H    0 0 0
  47 C    1     2.4250     4.5825   39 C    0-1 0

  48 C    1     1.4025     2.6504   46 C    0-1 0
  48 C    1     1.4026     2.6505   42 C    0 0 0
  48 C    1     1.5513     2.9316    8 B    0 0 0
  48 C    1     2.1490     4.0610   20 H    0-1 0
  48 C    1     2.1493     4.0616   16 H    0 0 0
  48 C    1     2.4250     4.5825   40 C    0-1 0

  49 C    1     1.4020     2.6494   51 C    1 0 0
  49 C    1     1.4021     2.6495   55 C    0 0 0
  49 C    1     1.5503     2.9297    1 B    1 0 0
  49 C    1     2.1469     4.0571   21 H    1 0 0
  49 C    1     2.1475     4.0581   25 H    0 0 0
  49 C    1     2.4246     4.5818   53 C    0 0 0

  50 C    1     1.4020     2.6494   52 C    1 0 0
  50 C    1     1.4021     2.6495   56 C    0 0 0
  50 C    1     1.5503     2.9297    2 B    1 0 0
  50 C    1     2.1469     4.0571   22 H    1 0 0
  50 C    1     2.1475     4.0581   26 H    0 0 0
  50 C    1     2.4246     4.5818   54 C    0 0 0

  51 C    1     1.0913     2.0623   21 H    0 0 0
  51 C    1     1.3914     2.6293   57 C    0 0 0
  51 C    1     1.4020     2.6494   49 C   -1 0 0
  51 C    1     2.1666     4.0942   27 H    0 0 0
  51 C    1     2.4175     4.5684   55 C   -1 0 0
  51 C    1     2.4251     4.5828   59 C   -1 0 0

  52 C    1     1.0913     2.0623   22 H    0 0 0
  52 C    1     1.3914     2.6293   58 C    0 0 0
  52 C    1     1.4020     2.6494   50 C   -1 0 0
  52 C    1     2.1666     4.0942   28 H    0 0 0
  52 C    1     2.4175     4.5684   56 C   -1 0 0
  52 C    1     2.4251     4.5828   60 C   -1 0 0

  53 C    1     1.0914     2.0625   23 H    0 0 0
  53 C    1     1.3915     2.6295   55 C    0 0 0
  53 C    1     1.4026     2.6505   59 C    0 0 0
  53 C    1     2.1679     4.0967   25 H    0 0 0
  53 C    1     2.4179     4.5691   57 C    1 0 0
  53 C    1     2.4246     4.5818   49 C    0 0 0

  54 C    1     1.0914     2.0625   24 H    0 0 0
  54 C    1     1.3915     2.6295   56 C    0 0 0
  54 C    1     1.4026     2.6505   60 C    0 0 0
  54 C    1     2.1679     4.0967   26 H    0 0 0
  54 C    1     2.4179     4.5691   58 C    1 0 0
  54 C    1     2.4246     4.5818   50 C    0 0 0

  55 C    1     1.0914     2.0624   25 H    0 0 0
  55 C    1     1.3915     2.6295   53 C    0 0 0
  55 C    1     1.4021     2.6495   49 C    0 0 0
  55 C    1     2.1664     4.0939   23 H    0 0 0
  55 C    1     2.4175     4.5684   51 C    1 0 0
  55 C    1     2.4253     4.5832   59 C    0 0 0

  56 C    1     1.0914     2.0624   26 H    0 0 0
  56 C    1     1.3915     2.6295   54 C    0 0 0
  56 C    1     1.4021     2.6495   50 C    0 0 0
  56 C    1     2.1664     4.0939   24 H    0 0 0
  56 C    1     2.4175     4.5684   52 C    1 0 0
  56 C    1     2.4253     4.5832   60 C    0 0 0

  57 C    1     1.0914     2.0625   27 H    0 0 0
  57 C    1     1.3914     2.6293   51 C    0 0 0
  57 C    1     1.4025     2.6504   59 C   -1 0 0
  57 C    1     2.1680     4.0968   21 H    0 0 0
  57 C    1     2.4179     4.5691   53 C   -1 0 0
  57 C    1     2.4247     4.5819   49 C   -1 0 0

  58 C    1     1.0914     2.0625   28 H    0 0 0
  58 C    1     1.3914     2.6293   52 C    0 0 0
  58 C    1     1.4025     2.6504   60 C   -1 0 0
  58 C    1     2.1680     4.0968   22 H    0 0 0
  58 C    1     2.4179     4.5691   54 C   -1 0 0
  58 C    1     2.4247     4.5819   50 C   -1 0 0

  59 C    1     1.4025     2.6504   57 C    1 0 0
  59 C    1     1.4026     2.6505   53 C    0 0 0
  59 C    1     1.5516     2.9322   11 B    0 0 0
  59 C    1     2.1491     4.0612   27 H    1 0 0
  59 C    1     2.1493     4.0617   23 H    0 0 0
  59 C    1     2.4251     4.5828   51 C    1 0 0

  60 C    1     1.4025     2.6504   58 C    1 0 0
  60 C    1     1.4026     2.6505   54 C    0 0 0
  60 C    1     1.5516     2.9322   12 B    0 0 0
  60 C    1     2.1491     4.0612   28 H    1 0 0
  60 C    1     2.1493     4.0617   24 H    0 0 0
  60 C    1     2.4251     4.5828   52 C    1 0 0

  61 C    1     1.4021     2.6496   63 C    1 1 0
  61 C    1     1.4021     2.6497   67 C    0 0 0
  61 C    1     1.5502     2.9294    5 B    1 1 0
  61 C    1     2.1475     4.0582   29 H    1 1 0
  61 C    1     2.1479     4.0589   33 H    0 0 0
  61 C    1     2.4244     4.5814   65 C    0 0 0

  62 C    1     1.4021     2.6496   64 C    1 1 0
  62 C    1     1.4021     2.6497   68 C    0 0 0
  62 C    1     1.5502     2.9294    6 B    1 1 0
  62 C    1     2.1475     4.0582   30 H    1 1 0
  62 C    1     2.1479     4.0589   34 H    0 0 0
  62 C    1     2.4244     4.5814   66 C    0 0 0

  63 C    1     1.0914     2.0624   29 H    0 0 0
  63 C    1     1.3914     2.6293   69 C    0 0 0
  63 C    1     1.4021     2.6496   61 C   -1-1 0
  63 C    1     2.1668     4.0947   35 H    0 0 0
  63 C    1     2.4179     4.5692   67 C   -1-1 0
  63 C    1     2.4251     4.5827   71 C   -1-1 0

  64 C    1     1.0914     2.0624   30 H    0 0 0
  64 C    1     1.3914     2.6293   70 C    0 0 0
  64 C    1     1.4021     2.6496   62 C   -1-1 0
  64 C    1     2.1668     4.0947   36 H    0 0 0
  64 C    1     2.4179     4.5692   68 C   -1-1 0
  64 C    1     2.4251     4.5827   72 C   -1-1 0

  65 C    1     1.0913     2.0623   31 H    0 0 0
  65 C    1     1.3914     2.6294   67 C    0 0 0
  65 C    1     1.4025     2.6504   71 C    0 0 0
  65 C    1     2.1679     4.0968   33 H    0 0 0
  65 C    1     2.4178     4.5690   69 C    1 1 0
  65 C    1     2.4244     4.5814   61 C    0 0 0

  66 C    1     1.0913     2.0623   32 H    0 0 0
  66 C    1     1.3914     2.6294   68 C    0 0 0
  66 C    1     1.4025     2.6504   72 C    0 0 0
  66 C    1     2.1679     4.0968   34 H    0 0 0
  66 C    1     2.4178     4.5690   70 C    1 1 0
  66 C    1     2.4244     4.5814   62 C    0 0 0

  67 C    1     1.0915     2.0626   33 H    0 0 0
  67 C    1     1.3914     2.6294   65 C    0 0 0
  67 C    1     1.4021     2.6497   61 C    0 0 0
  67 C    1     2.1667     4.0945   31 H    0 0 0
  67 C    1     2.4179     4.5692   63 C    1 1 0
  67 C    1     2.4253     4.5832   71 C    0 0 0

  68 C    1     1.0915     2.0626   34 H    0 0 0
  68 C    1     1.3914     2.6294   66 C    0 0 0
  68 C    1     1.4021     2.6497   62 C    0 0 0
  68 C    1     2.1667     4.0945   32 H    0 0 0
  68 C    1     2.4179     4.5692   64 C    1 1 0
  68 C    1     2.4253     4.5832   72 C    0 0 0

  69 C    1     1.0914     2.0624   35 H    0 0 0
  69 C    1     1.3914     2.6293   63 C    0 0 0
  69 C    1     1.4025     2.6503   71 C   -1-1 0
  69 C    1     2.1678     4.0966   29 H    0 0 0
  69 C    1     2.4178     4.5690   65 C   -1-1 0
  69 C    1     2.4245     4.5817   61 C   -1-1 0

  70 C    1     1.0914     2.0624   36 H    0 0 0
  70 C    1     1.3914     2.6293   64 C    0 0 0
  70 C    1     1.4025     2.6503   72 C   -1-1 0
  70 C    1     2.1678     4.0966   30 H    0 0 0
  70 C    1     2.4178     4.5690   66 C   -1-1 0
  70 C    1     2.4245     4.5817   62 C   -1-1 0

  71 C    1     1.4025     2.6503   69 C    1 1 0
  71 C    1     1.4025     2.6504   65 C    0 0 0
  71 C    1     1.5516     2.9322    9 B    0 0 0
  71 C    1     2.1486     4.0602   35 H    1 1 0
  71 C    1     2.1487     4.0605   31 H    0 0 0
  71 C    1     2.4251     4.5827   63 C    1 1 0

  72 C    1     1.4025     2.6503   70 C    1 1 0
  72 C    1     1.4025     2.6504   66 C    0 0 0
  72 C    1     1.5516     2.9322   10 B    0 0 0
  72 C    1     2.1486     4.0602   36 H    1 1 0
  72 C    1     2.1487     4.0605   32 H    0 0 0
  72 C    1     2.4251     4.5827   64 C    1 1 0

  73 O    1     1.3791     2.6061    1 B    1 0 0
  73 O    1     1.3791     2.6061    5 B    1 1 0
  73 O    1     2.3880     4.5126   75 O    1 0 0
  73 O    1     2.3882     4.5130   77 O    1 1 0
  73 O    1     2.5383     4.7966   61 C    0 0 0
  73 O    1     2.5384     4.7968   49 C    0 0 0

  74 O    1     1.3791     2.6061    2 B    1 0 0
  74 O    1     1.3791     2.6061    6 B    1 1 0
  74 O    1     2.3880     4.5126   76 O    1 0 0
  74 O    1     2.3882     4.5130   78 O    1 1 0
  74 O    1     2.5383     4.7966   62 C    0 0 0
  74 O    1     2.5384     4.7968   50 C    0 0 0

  75 O    1     1.3793     2.6065    1 B    0 0 0
  75 O    1     1.3793     2.6065    3 B    0 0 0
  75 O    1     2.3880     4.5126   73 O   -1 0 0
  75 O    1     2.3882     4.5131   77 O    0 1 0
  75 O    1     2.5391     4.7981   37 C    0 0 0
  75 O    1     2.5395     4.7990   49 C   -1 0 0

  76 O    1     1.3793     2.6065    2 B    0 0 0
  76 O    1     1.3793     2.6065    4 B    0 0 0
  76 O    1     2.3880     4.5126   74 O   -1 0 0
  76 O    1     2.3882     4.5131   78 O    0 1 0
  76 O    1     2.5391     4.7981   38 C    0 0 0
  76 O    1     2.5395     4.7990   50 C   -1 0 0

  77 O    1     1.3793     2.6064    5 B    0 0 0
  77 O    1     1.3793     2.6065    3 B    0-1 0
  77 O    1     2.3882     4.5130   73 O   -1-1 0
  77 O    1     2.3882     4.5131   75 O    0-1 0
  77 O    1     2.5390     4.7980   37 C    0-1 0
  77 O    1     2.5391     4.7982   61 C   -1-1 0

  78 O    1     1.3793     2.6064    6 B    0 0 0
  78 O    1     1.3793     2.6065    4 B    0-1 0
  78 O    1     2.3882     4.5130   74 O   -1-1 0
  78 O    1     2.3882     4.5131   76 O    0-1 0
  78 O    1     2.5390     4.7980   38 C    0-1 0
  78 O    1     2.5391     4.7982   62 C   -1-1 0

  79 O    1     1.3795     2.6068   11 B    0 0 0
  79 O    1     1.3795     2.6068    7 B    0 0 0
  79 O    1     2.3880     4.5126   83 O    1 0 0
  79 O    1     2.3884     4.5134   81 O    0-1 0
  79 O    1     2.5400     4.7998   47 C    0 0 0
  79 O    1     2.5403     4.8005   59 C    0 0 0

  80 O    1     1.3795     2.6068   12 B    0 0 0
  80 O    1     1.3795     2.6068    8 B    0 0 0
  80 O    1     2.3880     4.5126   84 O    1 0 0
  80 O    1     2.3884     4.5134   82 O    0-1 0
  80 O    1     2.5400     4.7998   48 C    0 0 0
  80 O    1     2.5403     4.8005   60 C    0 0 0

  81 O    1     1.3795     2.6069    9 B    0 0 0
  81 O    1     1.3795     2.6070    7 B    0 1 0
  81 O    1     2.3881     4.5128   83 O    1 1 0
  81 O    1     2.3884     4.5134   79 O    0 1 0
  81 O    1     2.5404     4.8006   47 C    0 1 0
  81 O    1     2.5405     4.8008   71 C    0 0 0

  82 O    1     1.3795     2.6069   10 B    0 0 0
  82 O    1     1.3795     2.6070    8 B    0 1 0
  82 O    1     2.3881     4.5128   84 O    1 1 0
  82 O    1     2.3884     4.5134   80 O    0 1 0
  82 O    1     2.5404     4.8006   48 C    0 1 0
  82 O    1     2.5405     4.8008   72 C    0 0 0

  83 O    1     1.3796     2.6071   11 B   -1 0 0
  83 O    1     1.3797     2.6072    9 B   -1-1 0
  83 O    1     2.3880     4.5126   79 O   -1 0 0
  83 O    1     2.3881     4.5128   81 O   -1-1 0
  83 O    1     2.5409     4.8016   71 C   -1-1 0
  83 O    1     2.5410     4.8019   59 C   -1 0 0

  84 O    1     1.3796     2.6071   12 B   -1 0 0
  84 O    1     1.3797     2.6072   10 B   -1-1 0
  84 O    1     2.3880     4.5126   80 O   -1 0 0
  84 O    1     2.3881     4.5128   82 O   -1-1 0
  84 O    1     2.5409     4.8016   72 C   -1-1 0
  84 O    1     2.5410     4.8019   60 C   -1 0 0


 SYMMETRY ALLOWED INTERNAL DEGREE(S) OF FREEDOM: 249
 TTTTTTTTTTTTTTTTTTTTTTTTTTTTTT SYMM        TELAPSE        2.73 TCPU        2.72
 TTTTTTTTTTTTTTTTTTTTTTTTTTTTTT INT_SCREEN  TELAPSE        2.92 TCPU        2.91

 DFT PARAMETERS

     ATOM       ELECTRONS   NET CHARGE   R(ANGSTROM)
   1   5  B       5.0000      0.0000     0.89000000
  13   1  H       1.0000      0.0000     1.11000000
  37   6  C       6.0000      0.0000     0.77000000
  73   8  O       8.0000      0.0000     0.74000000

 SIZE OF GRID=    2644106
 TTTTTTTTTTTTTTTTTTTTTTTTTTTTTT MAKE_GRID2  TELAPSE       22.64 TCPU       22.61
 BECKE WEIGHT FUNCTION
 RADSAFE =     2.00
 TOLERANCES - DENSITY:10**- 6; POTENTIAL:10**- 9; GRID WGT:10**-14

 RADIAL INTEGRATION  - INTERVALS (POINTS,UPPER LIMIT):            1( 75,  4.0*R)

 ANGULAR INTEGRATION - INTERVALS (ACCURACY LEVEL [N. POINTS] UPPER LIMIT):
  1(  4[  86]   0.2)  2(  8[ 194]   0.5)  3( 12[ 350]   0.9)  4( 16[ 974]   3.5)
  5( 12[ 350]9999.0)
 TTTTTTTTTTTTTTTTTTTTTTTTTTTTTT INT_CALC    TELAPSE       22.89 TCPU       22.87
 EEEEEEEEEE INT_CALC TERMINATION  DATE 19 02 2026 TIME 20:26:59.1

 *******************************************************************************
 cof-1_z42_L000_serr                                                             
 CRYSTAL - SCF - TYPE OF CALCULATION :  RESTRICTED CLOSED SHELL
 *******************************************************************************

 CAPPA:IS1  2;IS2  2;IS3  8; K PTS MONK NET  20; SYMMOPS:K SPACE   2;G SPACE   1

 TTTTTTTTTTTTTTTTTTTTTTTTTTTTTT SDIK        TELAPSE       25.90 TCPU       57.43

 AAAAAAAAAAAAAAAAAAAAAAAAAAAAAAAAAAAAAAAAAAAAAAAAAAAAAAAAAAAAAAAAAAAAAAAAAAAAAAA
         ATOMIC WAVEFUNCTION(S)


 NUCLEAR CHARGE  5.0  SYMMETRY SPECIES            S    P
 N. ELECTRONS    5.0  NUMBER OF PRIMITIVE GTOS    8    4
                      NUMBER OF CONTRACTED GTOS   4    2
                      NUMBER OF CLOSED SHELLS     2    0
                      OPEN SHELL OCCUPATION       0    1

  ZNUC  SCFIT    TOTAL HF ENERGY   KINETIC ENERGY   VIRIAL THEOREM ACCURACY
   5.0    11    -2.451164084E+01  2.462155050E+01 -1.995536038E+00  1.5E-06

 NUCLEAR CHARGE  1.0  SYMMETRY SPECIES            S
 N. ELECTRONS    1.0  NUMBER OF PRIMITIVE GTOS    4
                      NUMBER OF CONTRACTED GTOS   2
                      NUMBER OF CLOSED SHELLS     0
                      OPEN SHELL OCCUPATION       1

  ZNUC  SCFIT    TOTAL HF ENERGY   KINETIC ENERGY   VIRIAL THEOREM ACCURACY
   1.0     1    -4.977266687E-01  5.190767460E-01 -1.958869132E+00  0.0E+00

 NUCLEAR CHARGE  6.0  SYMMETRY SPECIES            S    P
 N. ELECTRONS    6.0  NUMBER OF PRIMITIVE GTOS    8    4
                      NUMBER OF CONTRACTED GTOS   4    2
                      NUMBER OF CLOSED SHELLS     2    0
                      OPEN SHELL OCCUPATION       0    2

  ZNUC  SCFIT    TOTAL HF ENERGY   KINETIC ENERGY   VIRIAL THEOREM ACCURACY
   6.0     9    -3.766704647E+01  3.775180683E+01 -1.997754800E+00  1.1E-06

 NUCLEAR CHARGE  8.0  SYMMETRY SPECIES            S    P
 N. ELECTRONS    8.0  NUMBER OF PRIMITIVE GTOS    8    4
                      NUMBER OF CONTRACTED GTOS   4    2
                      NUMBER OF CLOSED SHELLS     2    0
                      OPEN SHELL OCCUPATION       0    4

  ZNUC  SCFIT    TOTAL HF ENERGY   KINETIC ENERGY   VIRIAL THEOREM ACCURACY
   8.0    12    -7.477373220E+01  7.477365593E+01 -2.000001020E+00  3.8E-06

 AAAAAAAAAAAAAAAAAAAAAAAAAAAAAAAAAAAAAAAAAAAAAAAAAAAAAAAAAAAAAAAAAAAAAAAAAAAAAAA

 CHARGE NORMALIZATION FACTOR   1.00000000
 TOTAL ATOMIC CHARGES:
   5.0000000   5.0000000   5.0000000   5.0000000   5.0000000   5.0000000
   5.0000000   5.0000000   5.0000000   5.0000000   5.0000000   5.0000000
   1.0000000   1.0000000   1.0000000   1.0000000   1.0000000   1.0000000
   1.0000000   1.0000000   1.0000000   1.0000000   1.0000000   1.0000000
   1.0000000   1.0000000   1.0000000   1.0000000   1.0000000   1.0000000
   1.0000000   1.0000000   1.0000000   1.0000000   1.0000000   1.0000000
   6.0000000   6.0000000   6.0000000   6.0000000   6.0000000   6.0000000
   6.0000000   6.0000000   6.0000000   6.0000000   6.0000000   6.0000000
   6.0000000   6.0000000   6.0000000   6.0000000   6.0000000   6.0000000
   6.0000000   6.0000000   6.0000000   6.0000000   6.0000000   6.0000000
   6.0000000   6.0000000   6.0000000   6.0000000   6.0000000   6.0000000
   6.0000000   6.0000000   6.0000000   6.0000000   6.0000000   6.0000000
   8.0000000   8.0000000   8.0000000   8.0000000   8.0000000   8.0000000
   8.0000000   8.0000000   8.0000000   8.0000000   8.0000000   8.0000000
 TTTTTTTTTTTTTTTTTTTTTTTTTTTTTT MOQGAD      TELAPSE       26.07 TCPU       60.28
 TTTTTTTTTTTTTTTTTTTTTTTTTTTTTT SHELLXN     TELAPSE       44.07 TCPU      589.05
 TTTTTTTTTTTTTTTTTTTTTTTTTTTTTT MONMO3      TELAPSE       44.66 TCPU      607.83
 NUMERICALLY INTEGRATED DENSITY    395.9998813631
 TTTTTTTTTTTTTTTTTTTTTTTTTTTTTT NUMDFT      TELAPSE       46.17 TCPU      655.97
 CYC   0 ETOT(AU) -2.591912013425E+03 DETOT -2.59E+03 tst  0.00E+00 PX  1.00E+00
 TTTTTTTTTTTTTTTTTTTTTTTTTTTTTT DIIS        TELAPSE       46.28 TCPU      659.57
 TTTTTTTTTTTTTTTTTTTTTTTTTTTTTT FDIK        TELAPSE       48.34 TCPU      725.35
 INSULATING STATE
 TOP OF VALENCE BANDS -    BAND    198; K    1; EIG -3.0901352E-01 AU
 BOTTOM OF VIRTUAL BANDS - BAND    199; K    1; EIG -1.6448310E-01 AU
 DIRECT ENERGY BAND GAP:   3.9329 eV
 TTTTTTTTTTTTTTTTTTTTTTTTTTTTTT PDIG        TELAPSE       49.98 TCPU      732.38
 CHARGE NORMALIZATION FACTOR   1.00000000
 TOTAL ATOMIC CHARGES:
   4.1543989   4.1543989   4.1542323   4.1542323   4.1544600   4.1544600
   4.1541123   4.1541123   4.1538818   4.1538818   4.1540705   4.1540705
   0.7854486   0.7854486   0.7855630   0.7855630   0.7854067   0.7854067
   0.7855251   0.7855251   0.7854273   0.7854273   0.7855921   0.7855921
   0.7854176   0.7854176   0.7855561   0.7855561   0.7854081   0.7854081
   0.7855903   0.7855903   0.7854002   0.7854002   0.7855568   0.7855568
   6.0470684   6.0470684   6.2668445   6.2668445   6.2668031   6.2668031
   6.2667909   6.2667909   6.2667292   6.2667292   6.0463246   6.0463246
   6.0471156   6.0471156   6.2668274   6.2668274   6.2669010   6.2669010
   6.2667358   6.2667358   6.2669146   6.2669146   6.0458834   6.0458834
   6.0474289   6.0474289   6.2665607   6.2665607   6.2671049   6.2671049
   6.2664745   6.2664745   6.2670852   6.2670852   6.0458502   6.0458502
   8.6943201   8.6943201   8.6944180   8.6944180   8.6943637   8.6943637
   8.6947325   8.6947325   8.6947598   8.6947598   8.6949152   8.6949152
 TTTTTTTTTTTTTTTTTTTTTTTTTTTTTT MOQGAD      TELAPSE       50.07 TCPU      732.48
 TTTTTTTTTTTTTTTTTTTTTTTTTTTTTT SHELLXN     TELAPSE       67.15 TCPU     1277.09
 TTTTTTTTTTTTTTTTTTTTTTTTTTTTTT MONMO3      TELAPSE       67.74 TCPU     1296.00
 NUMERICALLY INTEGRATED DENSITY    395.9999469554
 TTTTTTTTTTTTTTTTTTTTTTTTTTTTTT NUMDFT      TELAPSE       69.29 TCPU     1345.24
 CYC   1 ETOT(AU) -2.577610673494E+03 DETOT  1.43E+01 tst  0.00E+00 PX  1.00E+00
 TTTTTTTTTTTTTTTTTTTTTTTTTTTTTT DIIS        TELAPSE       69.52 TCPU     1352.29
 DIIS TEST: 0.22850E+01 AT SCF   CYCLE   1 - MIX   30 %
 TTTTTTTTTTTTTTTTTTTTTTTTTTTTTT FDIK        TELAPSE       71.63 TCPU     1419.37
 INSULATING STATE
 TOP OF VALENCE BANDS -    BAND    198; K    1; EIG -2.1346695E-01 AU
 BOTTOM OF VIRTUAL BANDS - BAND    199; K    1; EIG -8.7595496E-02 AU
 DIRECT ENERGY BAND GAP:   3.4251 eV
 TTTTTTTTTTTTTTTTTTTTTTTTTTTTTT PDIG        TELAPSE       73.27 TCPU     1426.42
 CHARGE NORMALIZATION FACTOR   1.00000000
 TOTAL ATOMIC CHARGES:
   4.7139579   4.7139579   4.7138550   4.7138550   4.7138605   4.7138605
   4.7142524   4.7142524   4.7142166   4.7142166   4.7143103   4.7143103
   0.9183179   0.9183179   0.9183921   0.9183921   0.9182929   0.9182929
   0.9183280   0.9183280   0.9183234   0.9183234   0.9183967   0.9183967
   0.9183001   0.9183001   0.9183809   0.9183809   0.9182759   0.9182759
   0.9184011   0.9184011   0.9182617   0.9182617   0.9184001   0.9184001
   5.8624155   5.8624155   6.1241037   6.1241037   6.1246986   6.1246986
   6.1239735   6.1239735   6.1246957   6.1246957   5.8651680   5.8651680
   5.8622266   5.8622266   6.1238237   6.1238237   6.1246973   6.1246973
   6.1240860   6.1240860   6.1245660   6.1245660   5.8656024   5.8656024
   5.8623539   5.8623539   6.1240602   6.1240602   6.1245177   6.1245177
   6.1243355   6.1243355   6.1244454   6.1244454   5.8653754   5.8653754
   8.3365882   8.3365882   8.3369380   8.3369380   8.3369117   8.3369117
   8.3364453   8.3364453   8.3366036   8.3366036   8.3368445   8.3368445
 TTTTTTTTTTTTTTTTTTTTTTTTTTTTTT MOQGAD      TELAPSE       73.38 TCPU     1426.51
 TTTTTTTTTTTTTTTTTTTTTTTTTTTTTT SHELLXN     TELAPSE       90.70 TCPU     1979.15
 TTTTTTTTTTTTTTTTTTTTTTTTTTTTTT MONMO3      TELAPSE       91.29 TCPU     1998.05
 NUMERICALLY INTEGRATED DENSITY    395.9999353156
 TTTTTTTTTTTTTTTTTTTTTTTTTTTTTT NUMDFT      TELAPSE       92.84 TCPU     2047.28
 CYC   2 ETOT(AU) -2.578001287277E+03 DETOT -3.91E-01 tst  4.70E-03 PX  1.58E-01
 TTTTTTTTTTTTTTTTTTTTTTTTTTTTTT DIIS        TELAPSE       93.07 TCPU     2054.33
 DIIS TEST: 0.97244E+00 AT SCF   CYCLE   2 - DIIS ACTIVE - HISTORY:     2 CYCLES
 TTTTTTTTTTTTTTTTTTTTTTTTTTTTTT FDIK        TELAPSE       95.19 TCPU     2121.59
 INSULATING STATE
 TOP OF VALENCE BANDS -    BAND    198; K    1; EIG -2.2906195E-01 AU
 BOTTOM OF VIRTUAL BANDS - BAND    199; K    1; EIG -8.3300221E-02 AU
 DIRECT ENERGY BAND GAP:   3.9664 eV
 TTTTTTTTTTTTTTTTTTTTTTTTTTTTTT PDIG        TELAPSE       96.84 TCPU     2128.63
 CHARGE NORMALIZATION FACTOR   1.00000000
 TOTAL ATOMIC CHARGES:
   4.5002072   4.5002072   4.5000139   4.5000139   4.5001475   4.5001475
   4.4995626   4.4995626   4.4993636   4.4993636   4.4994613   4.4994613
   0.8914613   0.8914613   0.8916064   0.8916064   0.8914251   0.8914251
   0.8915468   0.8915468   0.8914169   0.8914169   0.8916502   0.8916502
   0.8914516   0.8914516   0.8915796   0.8915796   0.8914182   0.8914182
   0.8916017   0.8916017   0.8914658   0.8914658   0.8915677   0.8915677
   5.8904538   5.8904538   6.1599509   6.1599509   6.1592663   6.1592663
   6.1598744   6.1598744   6.1591934   6.1591934   5.8888981   5.8888981
   5.8905958   5.8905958   6.1599444   6.1599444   6.1592264   6.1592264
   6.1599908   6.1599908   6.1591862   6.1591862   5.8885830   5.8885830
   5.8907576   5.8907576   6.1598134   6.1598134   6.1593138   6.1593138
   6.1598767   6.1598767   6.1592806   6.1592806   5.8885868   5.8885868
   8.5082325   8.5082325   8.5083663   8.5083663   8.5083601   8.5083601
   8.5083627   8.5083627   8.5084031   8.5084031   8.5085360   8.5085360
 TTTTTTTTTTTTTTTTTTTTTTTTTTTTTT MOQGAD      TELAPSE       96.94 TCPU     2128.72
 TTTTTTTTTTTTTTTTTTTTTTTTTTTTTT SHELLXN     TELAPSE      114.02 TCPU     2673.61
 TTTTTTTTTTTTTTTTTTTTTTTTTTTTTT MONMO3      TELAPSE      114.62 TCPU     2692.48
 NUMERICALLY INTEGRATED DENSITY    395.9999386446
 TTTTTTTTTTTTTTTTTTTTTTTTTTTTTT NUMDFT      TELAPSE      116.16 TCPU     2741.90
 CYC   3 ETOT(AU) -2.578202722606E+03 DETOT -2.01E-01 tst  7.46E-04 PX  6.02E-02
 TTTTTTTTTTTTTTTTTTTTTTTTTTTTTT DIIS        TELAPSE      116.36 TCPU     2748.24
 DIIS TEST: 0.21779E-01 AT SCF   CYCLE   3 - DIIS ACTIVE - HISTORY:     3 CYCLES
 TTTTTTTTTTTTTTTTTTTTTTTTTTTTTT FDIK        TELAPSE      118.44 TCPU     2814.61
 INSULATING STATE
 TOP OF VALENCE BANDS -    BAND    198; K    1; EIG -2.3896217E-01 AU
 BOTTOM OF VIRTUAL BANDS - BAND    199; K    1; EIG -9.2631856E-02 AU
 DIRECT ENERGY BAND GAP:   3.9819 eV
 TTTTTTTTTTTTTTTTTTTTTTTTTTTTTT PDIG        TELAPSE      120.08 TCPU     2821.65
 CHARGE NORMALIZATION FACTOR   1.00000000
 TOTAL ATOMIC CHARGES:
   4.5071155   4.5071155   4.5069591   4.5069591   4.5070736   4.5070736
   4.5074151   4.5074151   4.5072383   4.5072383   4.5073623   4.5073623
   0.8750224   0.8750224   0.8750750   0.8750750   0.8749917   0.8749917
   0.8750050   0.8750050   0.8750243   0.8750243   0.8750816   0.8750816
   0.8750286   0.8750286   0.8750368   0.8750368   0.8749920   0.8749920
   0.8750606   0.8750606   0.8750117   0.8750117   0.8750463   0.8750463
   5.9403073   5.9403073   6.1599058   6.1599058   6.1612613   6.1612613
   6.1598062   6.1598062   6.1612735   6.1612735   5.9445250   5.9445250
   5.9400333   5.9400333   6.1596933   6.1596933   6.1613646   6.1613646
   6.1597580   6.1597580   6.1613441   6.1613441   5.9447660   5.9447659
   5.9402910   5.9402910   6.1597331   6.1597331   6.1613221   6.1613221
   6.1598101   6.1598101   6.1613281   6.1613281   5.9445851   5.9445851
   8.4790073   8.4790073   8.4792658   8.4792658   8.4792442   8.4792442
   8.4791385   8.4791385   8.4792197   8.4792197   8.4794767   8.4794767
 TTTTTTTTTTTTTTTTTTTTTTTTTTTTTT MOQGAD      TELAPSE      120.18 TCPU     2821.75
 TTTTTTTTTTTTTTTTTTTTTTTTTTTTTT SHELLXN     TELAPSE      137.23 TCPU     3365.63
 TTTTTTTTTTTTTTTTTTTTTTTTTTTTTT MONMO3      TELAPSE      137.82 TCPU     3384.53
 NUMERICALLY INTEGRATED DENSITY    395.9999387132
 TTTTTTTTTTTTTTTTTTTTTTTTTTTTTT NUMDFT      TELAPSE      139.36 TCPU     3433.50
 CYC   4 ETOT(AU) -2.578207089783E+03 DETOT -4.37E-03 tst  2.88E-05 PX  1.20E-02
 TTTTTTTTTTTTTTTTTTTTTTTTTTTTTT DIIS        TELAPSE      139.62 TCPU     3440.54
 DIIS TEST: 0.77207E-02 AT SCF   CYCLE   4 - DIIS ACTIVE - HISTORY:     4 CYCLES
 TTTTTTTTTTTTTTTTTTTTTTTTTTTTTT FDIK        TELAPSE      141.70 TCPU     3506.45
 INSULATING STATE
 TOP OF VALENCE BANDS -    BAND    198; K    1; EIG -2.3720583E-01 AU
 BOTTOM OF VIRTUAL BANDS - BAND    199; K    1; EIG -9.1665948E-02 AU
 DIRECT ENERGY BAND GAP:   3.9603 eV
 TTTTTTTTTTTTTTTTTTTTTTTTTTTTTT PDIG        TELAPSE      143.35 TCPU     3513.50
 CHARGE NORMALIZATION FACTOR   1.00000000
 TOTAL ATOMIC CHARGES:
   4.5090126   4.5090127   4.5088326   4.5088326   4.5089559   4.5089559
   4.5085101   4.5085101   4.5083317   4.5083317   4.5084370   4.5084370
   0.8783765   0.8783765   0.8785743   0.8785743   0.8783375   0.8783375
   0.8785158   0.8785158   0.8783433   0.8783433   0.8786125   0.8786125
   0.8783551   0.8783551   0.8785609   0.8785609   0.8783280   0.8783280
   0.8785778   0.8785778   0.8783556   0.8783556   0.8785563   0.8785563
   5.9203181   5.9203181   6.1637904   6.1637904   6.1626432   6.1626432
   6.1637141   6.1637141   6.1625965   6.1625965   5.9176199   5.9176199
   5.9204290   5.9204290   6.1637346   6.1637346   6.1626104   6.1626104
   6.1638481   6.1638481   6.1625265   6.1625265   5.9174218   5.9174218
   5.9205659   5.9205659   6.1636720   6.1636720   6.1626515   6.1626515
   6.1638080   6.1638080   6.1625846   6.1625846   5.9173937   5.9173937
   8.4889972   8.4889972   8.4891618   8.4891618   8.4891442   8.4891442
   8.4889720   8.4889720   8.4890358   8.4890358   8.4891870   8.4891870
 TTTTTTTTTTTTTTTTTTTTTTTTTTTTTT MOQGAD      TELAPSE      143.45 TCPU     3513.60
 TTTTTTTTTTTTTTTTTTTTTTTTTTTTTT SHELLXN     TELAPSE      160.66 TCPU     4062.55
 TTTTTTTTTTTTTTTTTTTTTTTTTTTTTT MONMO3      TELAPSE      161.25 TCPU     4081.34
 NUMERICALLY INTEGRATED DENSITY    395.9999392346
 TTTTTTTTTTTTTTTTTTTTTTTTTTTTTT NUMDFT      TELAPSE      162.78 TCPU     4130.11
 CYC   5 ETOT(AU) -2.578208797607E+03 DETOT -1.71E-03 tst  6.18E-06 PX  7.19E-03
 TTTTTTTTTTTTTTTTTTTTTTTTTTTTTT DIIS        TELAPSE      163.07 TCPU     4137.18
 DIIS TEST: 0.22973E-03 AT SCF   CYCLE   5 - DIIS ACTIVE - HISTORY:     5 CYCLES
 TTTTTTTTTTTTTTTTTTTTTTTTTTTTTT FDIK        TELAPSE      165.14 TCPU     4203.10
 INSULATING STATE
 TOP OF VALENCE BANDS -    BAND    198; K    1; EIG -2.3697840E-01 AU
 BOTTOM OF VIRTUAL BANDS - BAND    199; K    1; EIG -9.1072050E-02 AU
 DIRECT ENERGY BAND GAP:   3.9703 eV
 TTTTTTTTTTTTTTTTTTTTTTTTTTTTTT PDIG        TELAPSE      166.79 TCPU     4210.15
 CHARGE NORMALIZATION FACTOR   1.00000000
 TOTAL ATOMIC CHARGES:
   4.5081828   4.5081829   4.5080162   4.5080162   4.5081330   4.5081330
   4.5085591   4.5085591   4.5083831   4.5083831   4.5084986   4.5084986
   0.8794597   0.8794597   0.8794461   0.8794461   0.8794280   0.8794280
   0.8793802   0.8793802   0.8794496   0.8794496   0.8794613   0.8794613
   0.8794660   0.8794660   0.8794066   0.8794066   0.8794268   0.8794268
   0.8794348   0.8794348   0.8794581   0.8794581   0.8794110   0.8794110
   5.9167369   5.9167369   6.1612712   6.1612712   6.1634587   6.1634587
   6.1611775   6.1611775   6.1634327   6.1634327   5.9230165   5.9230165
   5.9165134   5.9165133   6.1611116   6.1611116   6.1635303   6.1635303
   6.1611178   6.1611178   6.1635495   6.1635495   5.9231553   5.9231553
   5.9167723   5.9167723   6.1611067   6.1611067   6.1635144   6.1635144
   6.1611184   6.1611184   6.1635654   6.1635654   5.9230059   5.9230059
   8.4880264   8.4880264   8.4882641   8.4882641   8.4882550   8.4882550
   8.4883130   8.4883130   8.4883716   8.4883716   8.4886146   8.4886146
 TTTTTTTTTTTTTTTTTTTTTTTTTTTTTT MOQGAD      TELAPSE      166.89 TCPU     4210.25
 TTTTTTTTTTTTTTTTTTTTTTTTTTTTTT SHELLXN     TELAPSE      184.22 TCPU     4762.95
 TTTTTTTTTTTTTTTTTTTTTTTTTTTTTT MONMO3      TELAPSE      184.82 TCPU     4781.85
 NUMERICALLY INTEGRATED DENSITY    395.9999391158
 TTTTTTTTTTTTTTTTTTTTTTTTTTTTTT NUMDFT      TELAPSE      186.36 TCPU     4831.06
 CYC   6 ETOT(AU) -2.578208797540E+03 DETOT  6.76E-08 tst  1.27E-06 PX  1.31E-03
 TTTTTTTTTTTTTTTTTTTTTTTTTTTTTT DIIS        TELAPSE      186.66 TCPU     4838.18
 DIIS TEST: 0.21495E-03 AT SCF   CYCLE   6 - DIIS ACTIVE - HISTORY:     6 CYCLES
 TTTTTTTTTTTTTTTTTTTTTTTTTTTTTT FDIK        TELAPSE      188.74 TCPU     4904.28
 INSULATING STATE
 TOP OF VALENCE BANDS -    BAND    198; K    1; EIG -2.3697588E-01 AU
 BOTTOM OF VIRTUAL BANDS - BAND    199; K    1; EIG -9.1104379E-02 AU
 DIRECT ENERGY BAND GAP:   3.9694 eV
 TTTTTTTTTTTTTTTTTTTTTTTTTTTTTT PDIG        TELAPSE      190.39 TCPU     4911.33
 CHARGE NORMALIZATION FACTOR   1.00000000
 TOTAL ATOMIC CHARGES:
   4.5086241   4.5086241   4.5084498   4.5084498   4.5085707   4.5085707
   4.5083604   4.5083604   4.5081819   4.5081819   4.5082926   4.5082926
   0.8793731   0.8793731   0.8795150   0.8795150   0.8793384   0.8793384
   0.8794519   0.8794519   0.8793527   0.8793527   0.8795407   0.8795407
   0.8793651   0.8793651   0.8794893   0.8794893   0.8793338   0.8793338
   0.8795094   0.8795094   0.8793612   0.8793612   0.8794892   0.8794892
   5.9202207   5.9202207   6.1623396   6.1623396   6.1620974   6.1620974
   6.1622499   6.1622499   6.1620685   6.1620685   5.9200345   5.9200345
   5.9201789   5.9201789   6.1622242   6.1622242   6.1621235   6.1621235
   6.1623094   6.1623094   6.1620680   6.1620680   5.9199919   5.9199919
   5.9203748   5.9203748   6.1621876   6.1621876   6.1621403   6.1621403
   6.1622914   6.1622914   6.1621036   6.1621036   5.9199044   5.9199044
   8.4881046   8.4881046   8.4882992   8.4882992   8.4882827   8.4882827
   8.4881620   8.4881620   8.4882274   8.4882274   8.4884167   8.4884167
 TTTTTTTTTTTTTTTTTTTTTTTTTTTTTT MOQGAD      TELAPSE      190.49 TCPU     4911.43
 TTTTTTTTTTTTTTTTTTTTTTTTTTTTTT SHELLXN     TELAPSE      207.63 TCPU     5458.29
 +++ ENERGIES IN A.U. +++
 ::: EXT EL-POLE                                  -2.3394043095187E+03
 ::: EXT EL-SPHEROPOLE                             2.7221354426844E+01
 ::: BIELET ZONE E-E                               4.1799892202281E+03
 ::: TOTAL E-E                                     1.8678062651362E+03
 ::: TOTAL E-N + N-E                              -7.3968712984134E+03
 ::: TOTAL N-N                                     6.5842089755433E+02
 ::: KINETIC ENERGY                                2.5598636033362E+03
 ::: PSEUDO TOTAL   ENERGY                        -2.3107805323866E+03
 ::: VIRIAL COEFFICIENT                            1.0511396570985E+00
 TTTTTTTTTTTTTTTTTTTTTTTTTTTTTT MONMO3      TELAPSE      208.22 TCPU     5477.09
 NUMERICALLY INTEGRATED DENSITY    395.9999391134
 EXCHANGE ENERGY: -0.252049332542E+03  CORRELATION ENERGY: -0.153789881407E+02
 TTTTTTTTTTTTTTTTTTTTTTTTTTTTTT NUMDFT      TELAPSE      209.77 TCPU     5526.48
 CYC   7 ETOT(AU) -2.578208853070E+03 DETOT -5.55E-05 tst  6.50E-07 PX  1.31E-03

 == SCF ENDED - CONVERGENCE ON ENERGY      E(AU) -2.5782088530696E+03 CYCLES   7


 ENERGY EXPRESSION=HARTREE+FOCK EXCH*0.00000+(HSESOL     EXCH)*1.00000+PBESOL     CORR


 TOTAL ENERGY(DFT)(AU)(  7) -2.5782088530696E+03 DE-5.6E-05 tester 6.5E-07
 TTTTTTTTTTTTTTTTTTTTTTTTTTTTTT EDFT        TELAPSE      209.77 TCPU     5526.49
 
 INFORMATION **** DFTD3 ENERGY **** CALCULATE DFTD3 ENERGY

           DFT-D V3(BJ)
 DF                                         hsesol3c  
 parameters
 s6       :    1.0000
 s8       :    0.0000
 a1       :    0.5196
 a2       :    4.9385
 k1 k3    :   16.0000   -4.0000
 Cutoff   :   50.2022
 CN-Cutoff:   21.1671
 ABC-Cutoff:   21.1671
 
 Edisp /kcal,au:   -49.4893 -0.07886627

 E6    /kcal :   -52.7122
 E8    /kcal :     0.0000
 E6(ABC) "   :   3.222823
 
 INFORMATION **** DFTD3 ENERGY **** NORMAL TERMINATION OF DFTD3 MODULE

 GCP ENERGY CALCULATION
  level        hsesol3c            basis:hsesol3c
  Nbf            948
  Atoms           84

  Parameters: 
  sigma     1.0000
  eta       1.4281
  alpha     0.2936
  beta      1.9467

  dmp_scal      4.0000
  dmp_exp       6.0000
 cutoffs: 
   distance [bohr] 60.0
   noise    [a.u.] 2.2E-16
 SR-damping   T
 ** gCP correction **
  Egcp:        0.1658883585 / (a.u.) ||     104.0965 / (kcal/mol)
 INFORMATION **** GCP **** NORMAL TERMINATION OF GCP MODULE

 *******************************************************************************

 DFT-D3-GCP DISPERSION AND COUNTERPOISE CORRECTION

 D3 DISPERSION ENERGY (AU)      -7.8866271627660E-02
 GCP ENERGY (AU)                 1.6588835848020E-01
 TOTAL ENERGY + DISP + GCP (AU) -2.5781218309827E+03

 *******************************************************************************

 EIGENVECTORS IN FORTRAN UNIT 10
 TTTTTTTTTTTTTTTTTTTTTTTTTTTTTT END         TELAPSE      212.50 TCPU     5535.21
 EEEEEEEEEE TERMINATION  DATE 19 02 2026 TIME 20:30:08.7
