 Default number of threads is:           32

         
 *******************************************************************************
 *                                                                             *
 *                               CRYSTAL23                                     *
 *                      public : 1.0.1 - October 2022                          *
 *                       HTTP://WWW.CRYSTAL.UNITO.IT                           *
 *                                                                             *
 *                              MAIN AUTHORS                                   *
 *                                                                             *
 *  R. DOVESI(1,11), V.R. SAUNDERS(2), C. ROETTI(1,11), R. ORLANDO(1,11),      *
 *  C.M. ZICOVICH-WILSON(1,3), F. PASCALE(4), B. CIVALLERI(1,11),              *
 *  K. DOLL(5), N.M. HARRISON(6), I.J. BUSH(7), Ph. D'ARCO(8),                 *
 *  M. LLUNELL(9), M. CAUSA'(10), Y. NOEL(8), L. MASCHIO(1,11), A. ERBA(1,11)  *
 *  M. RE'RAT(14), S. CASASSA(1,11), B.G. SEARLE(2), J.K. DESMARAIS(1)         *
 *                                                                             *
 *        CONTRIBUTIONS TO THE CODE HAVE ALSO BEEN GIVEN BY                    *
 *                                                                             *
 *  M. FERRABONE(1,11), M. DE LA PIERRE(1,11), M. FERRERO(1,11),               *
 *  J. BAIMA(1,11), E. ALBANESE(1,11), M.F. PEINTINGER(12), R. BAST(13),       *
 *  B. KIRTMAN(15), V. LACIVITA(1,11), R. DEMICHELIS(1,16)                     *
 *  G. BRANDEBURG(17), S. SALUSTRO(1,11), G. SANSONE(1,11)                     *
 *  M.T. RUGGIERO(18), L.E. DAGA(1), L. DONA'(1), A. COSSARD(1)                *
 *                                                                             *
 * (1) THEORETICAL CHEMISTRY GROUP - UNIVERSITA' DI TORINO - TORINO (ITALY)    *
 * (2) SCIENTIFIC COMPUTING DEPARTMENT - STFC DARESBURY (UK)                   *
 * (3) UNIVERSIDAD AUTONOMA DEL ESTADO DE MORELOS - CUERNAVACA (MEXICO)        *
 * (4) UNIVERSITE' DE LORRAINE - NANCY (FRANCE)                                *
 * (5) UNIVERSITAET STUTTGART- STUTTGART (GERMANY)                             *
 * (6) IMPERIAL COLLEGE - LONDON (UK)                                          *
 * (7) SCIENTIFIC COMPUTING DEPARTMENT - STFC RAL (UK)                         *
 * (8) UPMC - SORBONNE UNIVERSITES - PARIS (FRANCE)                            *
 * (9) UNIVERSIDAD DE BARCELONA - BARCELONA (SPAIN)                            *
 *(10) UNIVERSITA' DI NAPOLI "FEDERICO II" - NAPOLI (ITALY)                    *
 *(11) NIS - NANOSTRUCTURED INTERFACES AND SURFACES - TORINO (ITALY)           *
 *(12) MPI FUER CHEMISCHE ENERGIEKONVERSION - MUELHEIM AN DER RUHR (GERMANY)   *
 *(13) UNIVERSITY OF TROMSO - TROMSO (NORWAY)                                  *
 *(14) UNIVERSITE' DE PAU ET DES PAYS DE L'ADOUR - PAU (FRANCE)                *
 *(15) UNIVERSITY OF CALIFORNIA SANTA BARBARA - SANTA BARBARA (USA)            *
 *(16) CURTIN UNIVERSITY - PERTH (AUSTRALIA)                                   *
 *(17) UNIVERSITY COLLEGE LONDON - LONDON (UK)                                 *
 *(18) UNIVERSITY OF VERMONT - BURLINGTON (USA)                                *
 *                                                                             *
 *******************************************************************************
 EEEEEEEEEE STARTING  DATE 19 02 2026 TIME 19:56:20.4
 cof-1_z33_L010_serr                                                             

 CRYSTAL CALCULATION
 (INPUT ACCORDING TO THE INTERNATIONAL TABLES FOR X-RAY CRYSTALLOGRAPHY)
 CRYSTAL FAMILY                       :  TRICLINIC   
 CRYSTAL CLASS  (GROTH - 1921)        :  TRICLINIC PEDIAL                     

 SPACE GROUP (NONCENTROSYMMETRIC)     :  P 1             

 LATTICE PARAMETERS  (ANGSTROMS AND DEGREES) - CONVENTIONAL CELL
        A           B           C        ALPHA        BETA       GAMMA
    15.02361    15.02392     6.60000    90.00032    89.99994   119.99596


 NUMBER OF IRREDUCIBLE ATOMS IN THE CONVENTIONAL CELL:   84

 INPUT COORDINATES

 ATOM AT. N.              COORDINATES
   1   5     6.136805400000E-01  2.273182200000E-01  2.507237400000E-01
   2   5     6.521038200000E-01  3.041725900000E-01  7.507237400000E-01
   3   5     7.727362000000E-01  3.863778800000E-01  2.507237500000E-01
   4   5     8.111594800000E-01  4.632322500000E-01  7.507237500000E-01
   5   5     6.136762700000E-01  3.863606700000E-01  2.492020600000E-01
   6   5     6.520995500000E-01  4.632150400000E-01  7.492020600000E-01
   7   5     2.272552500000E-01  6.136332200000E-01  2.507237500000E-01
   8   5     2.656785300000E-01  6.904875900000E-01  7.507237500000E-01
   9   5     3.863632200000E-01  6.136124500000E-01  2.507237500000E-01
  10   5     4.247865000000E-01  6.904668200000E-01  7.507237500000E-01
  11   5     3.863435000000E-01  7.727516500000E-01  2.492020600000E-01
  12   5     4.247667800000E-01  8.496060200000E-01  7.492020600000E-01
  13   1     9.030436200000E-01  3.089300500000E-01  2.475689700000E-01
  14   1     9.414669000000E-01  3.857844200000E-01  7.475689700000E-01
  15   1     9.663453000000E-02  6.910534400000E-01  2.470865600000E-01
  16   1     1.350578100000E-01  7.679078100000E-01  7.470865500000E-01
  17   1     9.029714200000E-01  5.940724300000E-01  2.470123000000E-01
  18   1     9.413947000000E-01  6.709268000000E-01  7.470123000000E-01
  19   1     9.673618000000E-02  4.056849400000E-01  2.470308300000E-01
  20   1     1.351594600000E-01  4.825393100000E-01  7.470308200000E-01
  21   1     6.910324000000E-01  9.700412000000E-02  2.524310500000E-01
  22   1     7.294556800000E-01  1.738584900000E-01  7.524310500000E-01
  23   1     3.089297200000E-01  9.034373100000E-01  2.529135000000E-01
  24   1     3.473530000000E-01  9.802916800000E-01  7.529135000000E-01
  25   1     4.058699900000E-01  9.704998000000E-02  2.529877900000E-01
  26   1     4.442932700000E-01  1.739043500000E-01  7.529877900000E-01
  27   1     5.943122100000E-01  9.033473200000E-01  2.529691500000E-01
  28   1     6.327354900000E-01  9.802016900000E-01  7.529691500000E-01
  29   1     6.910727400000E-01  5.940542100000E-01  2.475690000000E-01
  30   1     7.294960200000E-01  6.709085800000E-01  7.475690000000E-01
  31   1     3.089618300000E-01  4.056093300000E-01  2.470865300000E-01
  32   1     3.473851100000E-01  4.824637000000E-01  7.470865200000E-01
  33   1     4.058405700000E-01  3.088232500000E-01  2.470122500000E-01
  34   1     4.442638500000E-01  3.856776200000E-01  7.470122500000E-01
  35   1     5.942908800000E-01  6.909579300000E-01  2.470308900000E-01
  36   1     6.327141600000E-01  7.678123000000E-01  7.470308800000E-01
  37   6     8.918903100000E-01  4.459436900000E-01  2.491463800000E-01
  38   6     9.303135900000E-01  5.227980600000E-01  7.491463800000E-01
  39   6     9.464891100000E-01  3.927856300000E-01  2.476432100000E-01
  40   6     9.849123900000E-01  4.696400000000E-01  7.476432100000E-01
  41   6     5.338812000000E-02  6.071853000000E-01  2.475133600000E-01
  42   6     9.181140000000E-02  6.840396700000E-01  7.475133600000E-01
  43   6     9.464521100000E-01  5.536921900000E-01  2.479030600000E-01
  44   6     9.848753900000E-01  6.305465600000E-01  7.479030600000E-01
  45   6     5.342634000000E-02  4.462499700000E-01  2.469009200000E-01
  46   6     9.184962000000E-02  5.231043400000E-01  7.469009300000E-01
  47   6     1.080358900000E-01  5.540356300000E-01  2.479216000000E-01
  48   6     1.464591700000E-01  6.308900000000E-01  7.479216000000E-01
  49   6     5.540394200000E-01  1.081684600000E-01  2.508536600000E-01
  50   6     5.924627000000E-01  1.850228300000E-01  7.508536600000E-01
  51   6     6.071778500000E-01  5.355594000000E-02  2.523568000000E-01
  52   6     6.456011300000E-01  1.304103100000E-01  7.523568000000E-01
  53   6     3.927986700000E-01  9.466631600000E-01  2.524867000000E-01
  54   6     4.312219500000E-01  2.351753000000E-02  7.524867000000E-01
  55   6     4.462875800000E-01  5.360286000000E-02  2.520970100000E-01
  56   6     4.847108600000E-01  1.304572300000E-01  7.520970100000E-01
  57   6     5.537168500000E-01  9.466235600000E-01  2.530990800000E-01
  58   6     5.921401300000E-01  2.347793000000E-02  7.530990800000E-01
  59   6     4.459279100000E-01  8.919920600000E-01  2.520784300000E-01
  60   6     4.843511900000E-01  9.688464300000E-01  7.520784300000E-01
  61   6     5.540448700000E-01  4.458745500000E-01  2.491463800000E-01
  62   6     5.924681500000E-01  5.227289200000E-01  7.491463800000E-01
  63   6     6.072102200000E-01  5.536257800000E-01  2.476432500000E-01
  64   6     6.456335000000E-01  6.304801500000E-01  7.476432500000E-01
  65   6     3.928233700000E-01  4.461720300000E-01  2.475133300000E-01
  66   6     4.312466500000E-01  5.230264000000E-01  7.475133300000E-01
  67   6     4.462872600000E-01  3.926899900000E-01  2.479030200000E-01
  68   6     4.847105400000E-01  4.695443600000E-01  7.479030200000E-01
  69   6     5.537429600000E-01  6.070980000000E-01  2.469009700000E-01
  70   6     5.921662400000E-01  6.839523700000E-01  7.469009600000E-01
  71   6     4.459599800000E-01  5.539582300000E-01  2.479216000000E-01
  72   6     4.843832600000E-01  6.308126000000E-01  7.479216000000E-01
  73   8     5.607366800000E-01  2.803706300000E-01  2.496103100000E-01
  74   8     5.991599600000E-01  3.572250000000E-01  7.496103100000E-01
  75   8     7.196817000000E-01  2.803783300000E-01  2.528207200000E-01
  76   8     7.581049800000E-01  3.572327000000E-01  7.528207200000E-01
  77   8     7.196794200000E-01  4.393234600000E-01  2.479772800000E-01
  78   8     7.581027000000E-01  5.161778300000E-01  7.479772800000E-01
  79   8     2.803245100000E-01  7.196511100000E-01  2.496103300000E-01
  80   8     3.187477900000E-01  7.965054800000E-01  7.496103300000E-01
  81   8     2.803439700000E-01  5.606956100000E-01  2.528207100000E-01
  82   8     3.187672500000E-01  6.375499800000E-01  7.528207100000E-01
  83   8     4.392638400000E-01  7.196354200000E-01  2.479772700000E-01
  84   8     4.776871200000E-01  7.964897900000E-01  7.479772800000E-01

 *******************************************************************************

 << INFORMATION >>: FROM NOW ON, ALL COORDINATES REFER TO THE PRIMITIVE CELL

 *******************************************************************************

 LATTICE PARAMETERS  (ANGSTROMS AND DEGREES) - PRIMITIVE CELL
       A          B          C        ALPHA      BETA     GAMMA        VOLUME
   15.02361   15.02392    6.60000    90.00032  89.99994 119.99596   1290.178217

 COORDINATES OF THE EQUIVALENT ATOMS (FRACTIONAL UNITS)

 N. ATOM EQUIV AT. N.          X                  Y                  Z

   1   1   1    5 B    -3.86319460000E-01  2.27318220000E-01  2.50723740000E-01

   2   2   1    5 B    -3.47896180000E-01  3.04172590000E-01 -2.49276260000E-01

   3   3   1    5 B    -2.27263800000E-01  3.86377880000E-01  2.50723750000E-01

   4   4   1    5 B    -1.88840520000E-01  4.63232250000E-01 -2.49276250000E-01

   5   5   1    5 B    -3.86323730000E-01  3.86360670000E-01  2.49202060000E-01

   6   6   1    5 B    -3.47900450000E-01  4.63215040000E-01 -2.50797940000E-01

   7   7   1    5 B     2.27255250000E-01 -3.86366780000E-01  2.50723750000E-01

   8   8   1    5 B     2.65678530000E-01 -3.09512410000E-01 -2.49276250000E-01

   9   9   1    5 B     3.86363220000E-01 -3.86387550000E-01  2.50723750000E-01

  10  10   1    5 B     4.24786500000E-01 -3.09533180000E-01 -2.49276250000E-01

  11  11   1    5 B     3.86343500000E-01 -2.27248350000E-01  2.49202060000E-01

  12  12   1    5 B     4.24766780000E-01 -1.50393980000E-01 -2.50797940000E-01

  13  13   1    1 H    -9.69563800000E-02  3.08930050000E-01  2.47568970000E-01

  14  14   1    1 H    -5.85331000000E-02  3.85784420000E-01 -2.52431030000E-01

  15  15   1    1 H     9.66345300000E-02 -3.08946560000E-01  2.47086560000E-01

  16  16   1    1 H     1.35057810000E-01 -2.32092190000E-01 -2.52913450000E-01

  17  17   1    1 H    -9.70285800000E-02 -4.05927570000E-01  2.47012300000E-01

  18  18   1    1 H    -5.86053000000E-02 -3.29073200000E-01 -2.52987700000E-01

  19  19   1    1 H     9.67361800000E-02  4.05684940000E-01  2.47030830000E-01

  20  20   1    1 H     1.35159460000E-01  4.82539310000E-01 -2.52969180000E-01

  21  21   1    1 H    -3.08967600000E-01  9.70041200000E-02  2.52431050000E-01

  22  22   1    1 H    -2.70544320000E-01  1.73858490000E-01 -2.47568950000E-01

  23  23   1    1 H     3.08929720000E-01 -9.65626900000E-02  2.52913500000E-01

  24  24   1    1 H     3.47353000000E-01 -1.97083200000E-02 -2.47086500000E-01

  25  25   1    1 H     4.05869990000E-01  9.70499800000E-02  2.52987790000E-01

  26  26   1    1 H     4.44293270000E-01  1.73904350000E-01 -2.47012210000E-01

  27  27   1    1 H    -4.05687790000E-01 -9.66526800000E-02  2.52969150000E-01

  28  28   1    1 H    -3.67264510000E-01 -1.97983100000E-02 -2.47030850000E-01

  29  29   1    1 H    -3.08927260000E-01 -4.05945790000E-01  2.47569000000E-01

  30  30   1    1 H    -2.70503980000E-01 -3.29091420000E-01 -2.52431000000E-01

  31  31   1    1 H     3.08961830000E-01  4.05609330000E-01  2.47086530000E-01

  32  32   1    1 H     3.47385110000E-01  4.82463700000E-01 -2.52913480000E-01

  33  33   1    1 H     4.05840570000E-01  3.08823250000E-01  2.47012250000E-01

  34  34   1    1 H     4.44263850000E-01  3.85677620000E-01 -2.52987750000E-01

  35  35   1    1 H    -4.05709120000E-01 -3.09042070000E-01  2.47030890000E-01

  36  36   1    1 H    -3.67285840000E-01 -2.32187700000E-01 -2.52969120000E-01

  37  37   1    6 C    -1.08109690000E-01  4.45943690000E-01  2.49146380000E-01

  38  38   1    6 C    -6.96864100000E-02 -4.77201940000E-01 -2.50853620000E-01

  39  39   1    6 C    -5.35108900000E-02  3.92785630000E-01  2.47643210000E-01

  40  40   1    6 C    -1.50876100000E-02  4.69640000000E-01 -2.52356790000E-01

  41  41   1    6 C     5.33881200000E-02 -3.92814700000E-01  2.47513360000E-01

  42  42   1    6 C     9.18114000000E-02 -3.15960330000E-01 -2.52486640000E-01

  43  43   1    6 C    -5.35478900000E-02 -4.46307810000E-01  2.47903060000E-01

  44  44   1    6 C    -1.51246100000E-02 -3.69453440000E-01 -2.52096940000E-01

  45  45   1    6 C     5.34263400000E-02  4.46249970000E-01  2.46900920000E-01

  46  46   1    6 C     9.18496200000E-02 -4.76895660000E-01 -2.53099070000E-01

  47  47   1    6 C     1.08035890000E-01 -4.45964370000E-01  2.47921600000E-01

  48  48   1    6 C     1.46459170000E-01 -3.69110000000E-01 -2.52078400000E-01

  49  49   1    6 C    -4.45960580000E-01  1.08168460000E-01  2.50853660000E-01

  50  50   1    6 C    -4.07537300000E-01  1.85022830000E-01 -2.49146340000E-01

  51  51   1    6 C    -3.92822150000E-01  5.35559400000E-02  2.52356800000E-01

  52  52   1    6 C    -3.54398870000E-01  1.30410310000E-01 -2.47643200000E-01

  53  53   1    6 C     3.92798670000E-01 -5.33368400000E-02  2.52486700000E-01

  54  54   1    6 C     4.31221950000E-01  2.35175300000E-02 -2.47513300000E-01

  55  55   1    6 C     4.46287580000E-01  5.36028600000E-02  2.52097010000E-01

  56  56   1    6 C     4.84710860000E-01  1.30457230000E-01 -2.47902990000E-01

  57  57   1    6 C    -4.46283150000E-01 -5.33764400000E-02  2.53099080000E-01

  58  58   1    6 C    -4.07859870000E-01  2.34779300000E-02 -2.46900920000E-01

  59  59   1    6 C     4.45927910000E-01 -1.08007940000E-01  2.52078430000E-01

  60  60   1    6 C     4.84351190000E-01 -3.11535700000E-02 -2.47921570000E-01

  61  61   1    6 C    -4.45955130000E-01  4.45874550000E-01  2.49146380000E-01

  62  62   1    6 C    -4.07531850000E-01 -4.77271080000E-01 -2.50853620000E-01

  63  63   1    6 C    -3.92789780000E-01 -4.46374220000E-01  2.47643250000E-01

  64  64   1    6 C    -3.54366500000E-01 -3.69519850000E-01 -2.52356750000E-01

  65  65   1    6 C     3.92823370000E-01  4.46172030000E-01  2.47513330000E-01

  66  66   1    6 C     4.31246650000E-01 -4.76973600000E-01 -2.52486670000E-01

  67  67   1    6 C     4.46287260000E-01  3.92689990000E-01  2.47903020000E-01

  68  68   1    6 C     4.84710540000E-01  4.69544360000E-01 -2.52096980000E-01

  69  69   1    6 C    -4.46257040000E-01 -3.92902000000E-01  2.46900970000E-01

  70  70   1    6 C    -4.07833760000E-01 -3.16047630000E-01 -2.53099040000E-01

  71  71   1    6 C     4.45959980000E-01 -4.46041770000E-01  2.47921600000E-01

  72  72   1    6 C     4.84383260000E-01 -3.69187400000E-01 -2.52078400000E-01

  73  73   1    8 O    -4.39263320000E-01  2.80370630000E-01  2.49610310000E-01

  74  74   1    8 O    -4.00840040000E-01  3.57225000000E-01 -2.50389690000E-01

  75  75   1    8 O    -2.80318300000E-01  2.80378330000E-01  2.52820720000E-01

  76  76   1    8 O    -2.41895020000E-01  3.57232700000E-01 -2.47179280000E-01

  77  77   1    8 O    -2.80320580000E-01  4.39323460000E-01  2.47977280000E-01

  78  78   1    8 O    -2.41897300000E-01 -4.83822170000E-01 -2.52022720000E-01

  79  79   1    8 O     2.80324510000E-01 -2.80348890000E-01  2.49610330000E-01

  80  80   1    8 O     3.18747790000E-01 -2.03494520000E-01 -2.50389670000E-01

  81  81   1    8 O     2.80343970000E-01 -4.39304390000E-01  2.52820710000E-01

  82  82   1    8 O     3.18767250000E-01 -3.62450020000E-01 -2.47179290000E-01

  83  83   1    8 O     4.39263840000E-01 -2.80364580000E-01  2.47977270000E-01

  84  84   1    8 O     4.77687120000E-01 -2.03510210000E-01 -2.52022720000E-01

 NUMBER OF SYMMETRY OPERATORS         :    1
 *******************************************************************************
 * GEOMETRY EDITING - INPUT COORDINATES ARE GIVEN IN ANGSTROM         
 *******************************************************************************

 GCALCO - MAX INDICES DIRECT LATTICE VECTOR    11    11    23
 NO.OF VECTORS CREATED 6999 STARS 3500 RMAX   244.92321 BOHR

 GEOMETRY FOR WAVE FUNCTION - DIMENSIONALITY OF THE SYSTEM    3
 (NON PERIODIC DIRECTION: LATTICE PARAMETER FORMALLY SET TO 500)
 *******************************************************************************
 LATTICE PARAMETERS (ANGSTROMS AND DEGREES) - BOHR = 0.5291772083 ANGSTROM
 PRIMITIVE CELL - CENTRING CODE 1/0 VOLUME=  1290.178217 - DENSITY  1.004 g/cm^3
         A              B              C           ALPHA      BETA       GAMMA 
    15.02361100    15.02391600     6.60000000    90.000323  89.999944 119.995964
 *******************************************************************************
 ATOMS IN THE ASYMMETRIC UNIT   84 - ATOMS IN THE UNIT CELL:   84
     ATOM                 X/A                 Y/B                 Z/C    
 *******************************************************************************
      1 T   5 B    -3.863194600000E-01  2.273182200000E-01  2.507237400000E-01
      2 T   5 B    -3.478961800000E-01  3.041725900000E-01 -2.492762600000E-01
      3 T   5 B    -2.272638000000E-01  3.863778800000E-01  2.507237500000E-01
      4 T   5 B    -1.888405200000E-01  4.632322500000E-01 -2.492762500000E-01
      5 T   5 B    -3.863237300000E-01  3.863606700000E-01  2.492020600000E-01
      6 T   5 B    -3.479004500000E-01  4.632150400000E-01 -2.507979400000E-01
      7 T   5 B     2.272552500000E-01 -3.863667800000E-01  2.507237500000E-01
      8 T   5 B     2.656785300000E-01 -3.095124100000E-01 -2.492762500000E-01
      9 T   5 B     3.863632200000E-01 -3.863875500000E-01  2.507237500000E-01
     10 T   5 B     4.247865000000E-01 -3.095331800000E-01 -2.492762500000E-01
     11 T   5 B     3.863435000000E-01 -2.272483500000E-01  2.492020600000E-01
     12 T   5 B     4.247667800000E-01 -1.503939800000E-01 -2.507979400000E-01
     13 T   1 H    -9.695638000000E-02  3.089300500000E-01  2.475689700000E-01
     14 T   1 H    -5.853310000000E-02  3.857844200000E-01 -2.524310300000E-01
     15 T   1 H     9.663453000000E-02 -3.089465600000E-01  2.470865600000E-01
     16 T   1 H     1.350578100000E-01 -2.320921900000E-01 -2.529134500000E-01
     17 T   1 H    -9.702858000000E-02 -4.059275700000E-01  2.470123000000E-01
     18 T   1 H    -5.860530000000E-02 -3.290732000000E-01 -2.529877000000E-01
     19 T   1 H     9.673618000000E-02  4.056849400000E-01  2.470308300000E-01
     20 T   1 H     1.351594600000E-01  4.825393100000E-01 -2.529691800000E-01
     21 T   1 H    -3.089676000000E-01  9.700412000000E-02  2.524310500000E-01
     22 T   1 H    -2.705443200000E-01  1.738584900000E-01 -2.475689500000E-01
     23 T   1 H     3.089297200000E-01 -9.656269000000E-02  2.529135000000E-01
     24 T   1 H     3.473530000000E-01 -1.970832000000E-02 -2.470865000000E-01
     25 T   1 H     4.058699900000E-01  9.704998000000E-02  2.529877900000E-01
     26 T   1 H     4.442932700000E-01  1.739043500000E-01 -2.470122100000E-01
     27 T   1 H    -4.056877900000E-01 -9.665268000000E-02  2.529691500000E-01
     28 T   1 H    -3.672645100000E-01 -1.979831000000E-02 -2.470308500000E-01
     29 T   1 H    -3.089272600000E-01 -4.059457900000E-01  2.475690000000E-01
     30 T   1 H    -2.705039800000E-01 -3.290914200000E-01 -2.524310000000E-01
     31 T   1 H     3.089618300000E-01  4.056093300000E-01  2.470865300000E-01
     32 T   1 H     3.473851100000E-01  4.824637000000E-01 -2.529134800000E-01
     33 T   1 H     4.058405700000E-01  3.088232500000E-01  2.470122500000E-01
     34 T   1 H     4.442638500000E-01  3.856776200000E-01 -2.529877500000E-01
     35 T   1 H    -4.057091200000E-01 -3.090420700000E-01  2.470308900000E-01
     36 T   1 H    -3.672858400000E-01 -2.321877000000E-01 -2.529691200000E-01
     37 T   6 C    -1.081096900000E-01  4.459436900000E-01  2.491463800000E-01
     38 T   6 C    -6.968641000000E-02 -4.772019400000E-01 -2.508536200000E-01
     39 T   6 C    -5.351089000000E-02  3.927856300000E-01  2.476432100000E-01
     40 T   6 C    -1.508761000000E-02  4.696400000000E-01 -2.523567900000E-01
     41 T   6 C     5.338812000000E-02 -3.928147000000E-01  2.475133600000E-01
     42 T   6 C     9.181140000000E-02 -3.159603300000E-01 -2.524866400000E-01
     43 T   6 C    -5.354789000000E-02 -4.463078100000E-01  2.479030600000E-01
     44 T   6 C    -1.512461000000E-02 -3.694534400000E-01 -2.520969400000E-01
     45 T   6 C     5.342634000000E-02  4.462499700000E-01  2.469009200000E-01
     46 T   6 C     9.184962000000E-02 -4.768956600000E-01 -2.530990700000E-01
     47 T   6 C     1.080358900000E-01 -4.459643700000E-01  2.479216000000E-01
     48 T   6 C     1.464591700000E-01 -3.691100000000E-01 -2.520784000000E-01
     49 T   6 C    -4.459605800000E-01  1.081684600000E-01  2.508536600000E-01
     50 T   6 C    -4.075373000000E-01  1.850228300000E-01 -2.491463400000E-01
     51 T   6 C    -3.928221500000E-01  5.355594000000E-02  2.523568000000E-01
     52 T   6 C    -3.543988700000E-01  1.304103100000E-01 -2.476432000000E-01
     53 T   6 C     3.927986700000E-01 -5.333684000000E-02  2.524867000000E-01
     54 T   6 C     4.312219500000E-01  2.351753000000E-02 -2.475133000000E-01
     55 T   6 C     4.462875800000E-01  5.360286000000E-02  2.520970100000E-01
     56 T   6 C     4.847108600000E-01  1.304572300000E-01 -2.479029900000E-01
     57 T   6 C    -4.462831500000E-01 -5.337644000000E-02  2.530990800000E-01
     58 T   6 C    -4.078598700000E-01  2.347793000000E-02 -2.469009200000E-01
     59 T   6 C     4.459279100000E-01 -1.080079400000E-01  2.520784300000E-01
     60 T   6 C     4.843511900000E-01 -3.115357000000E-02 -2.479215700000E-01
     61 T   6 C    -4.459551300000E-01  4.458745500000E-01  2.491463800000E-01
     62 T   6 C    -4.075318500000E-01 -4.772710800000E-01 -2.508536200000E-01
     63 T   6 C    -3.927897800000E-01 -4.463742200000E-01  2.476432500000E-01
     64 T   6 C    -3.543665000000E-01 -3.695198500000E-01 -2.523567500000E-01
     65 T   6 C     3.928233700000E-01  4.461720300000E-01  2.475133300000E-01
     66 T   6 C     4.312466500000E-01 -4.769736000000E-01 -2.524866700000E-01
     67 T   6 C     4.462872600000E-01  3.926899900000E-01  2.479030200000E-01
     68 T   6 C     4.847105400000E-01  4.695443600000E-01 -2.520969800000E-01
     69 T   6 C    -4.462570400000E-01 -3.929020000000E-01  2.469009700000E-01
     70 T   6 C    -4.078337600000E-01 -3.160476300000E-01 -2.530990400000E-01
     71 T   6 C     4.459599800000E-01 -4.460417700000E-01  2.479216000000E-01
     72 T   6 C     4.843832600000E-01 -3.691874000000E-01 -2.520784000000E-01
     73 T   8 O    -4.392633200000E-01  2.803706300000E-01  2.496103100000E-01
     74 T   8 O    -4.008400400000E-01  3.572250000000E-01 -2.503896900000E-01
     75 T   8 O    -2.803183000000E-01  2.803783300000E-01  2.528207200000E-01
     76 T   8 O    -2.418950200000E-01  3.572327000000E-01 -2.471792800000E-01
     77 T   8 O    -2.803205800000E-01  4.393234600000E-01  2.479772800000E-01
     78 T   8 O    -2.418973000000E-01 -4.838221700000E-01 -2.520227200000E-01
     79 T   8 O     2.803245100000E-01 -2.803488900000E-01  2.496103300000E-01
     80 T   8 O     3.187477900000E-01 -2.034945200000E-01 -2.503896700000E-01
     81 T   8 O     2.803439700000E-01 -4.393043900000E-01  2.528207100000E-01
     82 T   8 O     3.187672500000E-01 -3.624500200000E-01 -2.471792900000E-01
     83 T   8 O     4.392638400000E-01 -2.803645800000E-01  2.479772700000E-01
     84 T   8 O     4.776871200000E-01 -2.035102100000E-01 -2.520227200000E-01

 T = ATOM BELONGING TO THE ASYMMETRIC UNIT

 ****    1 SYMMOPS - TRANSLATORS IN FRACTIONAL UNITS
 **** MATRICES AND TRANSLATORS IN THE CRYSTALLOGRAPHIC REFERENCE FRAME
   V INV                    ROTATION MATRICES                   TRANSLATORS
   1   1  1.00 -0.00  0.00  0.00  1.00  0.00  0.00  0.00  1.00  0.00  0.00  0.00

 DIRECT LATTICE VECTORS CARTESIAN COMPONENTS (ANGSTROM)
          X                    Y                    Z
   0.130113578931E+02  -0.751088897922E+01   0.000000000000E+00
   0.000000000000E+00   0.150239160000E+02   0.000000000000E+00
  -0.140295695767E-04  -0.372069289925E-04   0.659999999988E+01


 CARTESIAN COORDINATES - PRIMITIVE CELL
 *******************************************************************************
 *      ATOM          X(ANGSTROM)         Y(ANGSTROM)         Z(ANGSTROM)
 *******************************************************************************
    1     5 B    -5.026544272659E+00  6.316803088460E+00  1.654776683970E+00
    2     5 B    -4.526598210369E+00  7.182882300740E+00 -1.645223315970E+00
    3     5 B    -2.957014155482E+00  7.511852655512E+00  1.654776749970E+00
    4     5 B    -2.457068093192E+00 -6.645984132208E+00 -1.645223249970E+00
    5     5 B    -5.026599809808E+00 -6.317640374193E+00  1.644733595970E+00
    6     5 B    -4.526653747518E+00 -5.451561161913E+00 -1.655266403970E+00
    7     5 B     2.956895873280E+00 -7.511640329265E+00  1.654776749970E+00
    8     5 B     3.456841935570E+00 -6.645561116985E+00 -1.645223249970E+00
    9     5 B     5.027106614587E+00  6.316921325621E+00  1.654776749970E+00
   10     5 B    -7.484305216179E+00 -3.300264828826E-01 -1.645223249970E+00
   11     5 B     5.026850051958E+00 -6.315952529924E+00  1.644733595970E+00
   12     5 B     5.526796114248E+00 -5.449873317644E+00 -1.655266403970E+00
   13     1 H    -1.261537633481E+00  5.369558515801E+00  1.633955201970E+00
   14     1 H    -7.615915711914E-01  6.235637728082E+00 -1.666044797970E+00
   15     1 H     1.257342988139E+00 -5.367407585650E+00  1.630771295970E+00
   16     1 H     1.757289050429E+00 -4.501328373369E+00 -1.669228769970E+00
   17     1 H    -1.262477045711E+00 -5.369860012142E+00  1.630281179970E+00
   18     1 H    -7.625309834214E-01 -4.503780799862E+00 -1.669718819970E+00
   19     1 H     1.258665593451E+00  5.368392561513E+00  1.630403477970E+00
   20     1 H     1.758611655741E+00  6.234471773793E+00 -1.669596587970E+00
   21     1 H    -4.020091562458E+00  3.777993700125E+00  1.666044929970E+00
   22     1 H    -3.520145500168E+00  4.644072912405E+00 -1.633955069970E+00
   23     1 H     4.019591602454E+00 -3.771095982729E+00  1.669229099970E+00
   24     1 H     4.519537664744E+00 -2.905016770449E+00 -1.630770899970E+00
   25     1 H     5.280916148631E+00 -1.590383100463E+00  1.669719413970E+00
   26     1 H     5.780862210921E+00 -7.243038881827E-01 -1.630280585970E+00
   27     1 H    -5.278552577581E+00  1.594964793214E+00  1.669596389970E+00
   28     1 H    -4.778606515292E+00  2.461044005494E+00 -1.630403609970E+00
   29     1 H    -4.019566616068E+00 -3.778586308282E+00  1.633955399970E+00
   30     1 H    -3.519620553778E+00 -2.912507096002E+00 -1.666044599970E+00
   31     1 H     4.020009478906E+00  3.773253305460E+00  1.630771097970E+00
   32     1 H     4.519955541196E+00  4.639332517740E+00 -1.669228967970E+00
   33     1 H     5.280533438317E+00  1.591501911748E+00  1.630280849970E+00
   34     1 H     5.780479500606E+00  2.457581124028E+00 -1.669719149970E+00
   35     1 H    -5.278830026534E+00 -1.595795133231E+00  1.630403873970E+00
   36     1 H    -4.778883964244E+00 -7.297159209509E-01 -1.669596191970E+00
   37     6 C    -1.406657363714E+00  7.511811148486E+00  1.644366107970E+00
   38     6 C    -9.067113014240E-01 -6.646025639234E+00 -1.655633891970E+00
   39     6 C    -6.962528152936E-01  6.303083451053E+00  1.634445185970E+00
   40     6 C    -1.963067530037E-01  7.169162663333E+00 -1.665554813970E+00
   41     6 C     6.946484640515E-01 -6.302616507706E+00  1.633588175970E+00
   42     6 C     1.194594526341E+00 -5.436537295426E+00 -1.666411823970E+00
   43     6 C    -6.967342391813E-01 -6.303108014434E+00  1.636160195970E+00
   44     6 C    -1.967881768913E-01 -5.437028802154E+00 -1.663839803970E+00
   45     6 C     6.951457667425E-01  6.303133569552E+00  1.629546071970E+00
   46     6 C     1.195091829032E+00  7.169212781831E+00 -1.670453861970E+00
   47     6 C     1.405690151852E+00 -7.511586033835E+00  1.636282559970E+00
   48     6 C     1.905636214141E+00 -6.645506821555E+00 -1.663717439970E+00
   49     6 C     7.208801661113E+00 -2.536224050334E+00  1.655634155970E+00
   50     6 C     7.708747723403E+00 -1.670144838054E+00 -1.644365843970E+00
   51     6 C    -5.111153122427E+00  3.755054111667E+00  1.665554879970E+00
   52     6 C    -4.611207060137E+00  4.621133323947E+00 -1.634445119970E+00
   53     6 C     5.110840533007E+00 -3.751604799674E+00  1.666412219970E+00
   54     6 C     5.610786595297E+00 -2.885525587394E+00 -1.633587779970E+00
   55     6 C     5.806803889794E+00 -2.546700979939E+00  1.663840265970E+00
   56     6 C     6.306749952083E+00 -1.680621767659E+00 -1.636159733970E+00
   57     6 C    -5.806753337162E+00  2.550050624966E+00  1.670453927970E+00
   58     6 C    -5.306807274872E+00  3.416129837247E+00 -1.629546071970E+00
   59     6 C     5.802124094961E+00 -4.972026621701E+00  1.663717637970E+00
   60     6 C     6.302070157251E+00 -4.105947409421E+00 -1.636282361970E+00
   61     6 C     7.208872596966E+00  2.537403007692E+00  1.644366107970E+00
   62     6 C    -5.302539233801E+00 -4.109544800812E+00 -1.655633891970E+00
   63     6 C    -5.110731878643E+00 -3.756097570139E+00  1.634445449970E+00
   64     6 C    -4.610785816353E+00 -2.890018357859E+00 -1.665554549970E+00
   65     6 C     5.111161983321E+00  3.752789170547E+00  1.633587977970E+00
   66     6 C     5.611108045611E+00  4.618868382827E+00 -1.666412021970E+00
   67     6 C     5.806799784999E+00  2.547718137392E+00  1.636159931970E+00
   68     6 C     6.306745847289E+00  3.413797349672E+00 -1.663840067970E+00
   69     6 C    -5.806413523650E+00 -2.551148747025E+00  1.629546401970E+00
   70     6 C    -5.306467461360E+00 -1.685069534745E+00 -1.670453663970E+00
   71     6 C     5.802541427527E+00  4.973056791674E+00  1.636282559970E+00
   72     6 C    -6.708870403240E+00 -1.673891016830E+00 -1.663717439970E+00
   73     8 O     7.295942125319E+00  6.245566995733E-04  1.647428045970E+00
   74     8 O     7.795888187609E+00  8.667037689796E-01 -1.652571953970E+00
   75     8 O    -3.647325272239E+00  6.317810701600E+00  1.668616751970E+00
   76     8 O    -3.147379209949E+00  7.183889913880E+00 -1.631383247970E+00
   77     8 O    -3.647354870184E+00 -6.318109711634E+00  1.636650047970E+00
   78     8 O    -3.147408807894E+00 -5.452030499354E+00 -1.663349951970E+00
   79     8 O     3.647399023880E+00 -6.317433734050E+00  1.647428177970E+00
   80     8 O     4.147345086170E+00 -5.451354521770E+00 -1.652571821970E+00
   81     8 O     3.647652179865E+00  6.318201904864E+00  1.668616685970E+00
   82     8 O     4.147598242154E+00  7.184281117144E+00 -1.631383313970E+00
   83     8 O    -7.295942340353E+00 -5.560813757980E-04  1.636649981970E+00
   84     8 O    -6.795996278063E+00  8.655231309039E-01 -1.663349951970E+00

 *******************************************************************************
 STARTING BASIS SET HANDLING 
 *******************************************************************************

 Loading internal basis set: SOLDEF2MSVP         

 Please cite in your publication:
 L. Dona', J. G. Brandenburg and B. Civalleri, J. Chem. Phys., 151, 121101 (2019
 )                                                                              
                                                                                
                    

 *******************************************************************************
 LOCAL ATOMIC FUNCTIONS BASIS SET
 *******************************************************************************
   ATOM   X(AU)   Y(AU)   Z(AU)  N. TYPE  EXPONENT  S COEF   P COEF   D/F/G COEF
 *******************************************************************************
   1 B   -9.499  11.937   3.127
                                  1 S  
                                         2.410E+03 1.755E-03 0.000E+00 0.000E+00
                                         3.619E+02 1.344E-02 0.000E+00 0.000E+00
                                         8.231E+01 6.637E-02 0.000E+00 0.000E+00
                                         2.311E+01 2.303E-01 0.000E+00 0.000E+00
                                         7.252E+00 5.150E-01 0.000E+00 0.000E+00
                                  2 S  
                                         2.367E+00 1.000E+00 0.000E+00 0.000E+00
                                  3 S  
                                         5.533E-01 1.000E+00 0.000E+00 0.000E+00
                                  4 S  
                                         1.716E-01 1.000E+00 0.000E+00 0.000E+00
                           5-     7 P  
                                         6.002E+00 0.000E+00-3.555E-02 0.000E+00
                                         1.240E+00 0.000E+00-1.983E-01 0.000E+00
                                         3.367E-01 0.000E+00-5.048E-01 0.000E+00
                           8-    10 P  
                                         1.256E-01 0.000E+00 1.000E+00 0.000E+00
                          11-    15 D  
                                         8.880E-01 0.000E+00 0.000E+00 1.000E+00
   2 B   -8.554  13.574  -3.109
   3 B   -5.588  14.195   3.127
   4 B   -4.643 -12.559  -3.109
   5 B   -9.499 -11.939   3.108
   6 B   -8.554 -10.302  -3.128
   7 B    5.588 -14.195   3.127
   8 B    6.532 -12.558  -3.109
   9 B    9.500  11.937   3.127
  10 B  -14.143  -0.624  -3.109
  11 B    9.499 -11.935   3.108
  12 B   10.444 -10.299  -3.128
  13 H   -2.384  10.147   3.088
                                181 S  
                                         1.874E+01 1.968E-02 0.000E+00 0.000E+00
                                         2.826E+00 1.380E-01 0.000E+00 0.000E+00
                                         6.401E-01 4.783E-01 0.000E+00 0.000E+00
                                182 S  
                                         1.756E-01 1.000E+00 0.000E+00 0.000E+00
  14 H   -1.439  11.784  -3.148
  15 H    2.376 -10.143   3.082
  16 H    3.321  -8.506  -3.154
  17 H   -2.386 -10.148   3.081
  18 H   -1.441  -8.511  -3.155
  19 H    2.379  10.145   3.081
  20 H    3.323  11.781  -3.155
  21 H   -7.597   7.139   3.148
  22 H   -6.652   8.776  -3.088
  23 H    7.596  -7.126   3.154
  24 H    8.541  -5.490  -3.082
  25 H    9.979  -3.005   3.155
  26 H   10.924  -1.369  -3.081
  27 H   -9.975   3.014   3.155
  28 H   -9.030   4.651  -3.081
  29 H   -7.596  -7.140   3.088
  30 H   -6.651  -5.504  -3.148
  31 H    7.597   7.130   3.082
  32 H    8.541   8.767  -3.154
  33 H    9.979   3.008   3.081
  34 H   10.924   4.644  -3.155
  35 H   -9.976  -3.016   3.081
  36 H   -9.031  -1.379  -3.155
  37 C   -2.658  14.195   3.107
                                229 S  
                                         3.624E+03 1.634E-03 0.000E+00 0.000E+00
                                         5.440E+02 1.252E-02 0.000E+00 0.000E+00
                                         1.237E+02 6.211E-02 0.000E+00 0.000E+00
                                         3.476E+01 2.182E-01 0.000E+00 0.000E+00
                                         1.093E+01 4.980E-01 0.000E+00 0.000E+00
                                230 S  
                                         3.574E+00 1.000E+00 0.000E+00 0.000E+00
                                231 S  
                                         7.742E-01 1.000E+00 0.000E+00 0.000E+00
                                232 S  
                                         2.330E-01 1.000E+00 0.000E+00 0.000E+00
                         233-   235 P  
                                         9.443E+00 0.000E+00 3.790E-02 0.000E+00
                                         2.002E+00 0.000E+00 2.082E-01 0.000E+00
                                         5.463E-01 0.000E+00 5.047E-01 0.000E+00
                         236-   238 P  
                                         1.820E-01 0.000E+00 1.000E+00 0.000E+00
                         239-   243 D  
                                         8.880E-01 0.000E+00 0.000E+00 1.000E+00
  38 C   -1.713 -12.559  -3.129
  39 C   -1.316  11.911   3.089
  40 C   -0.371  13.548  -3.147
  41 C    1.313 -11.910   3.087
  42 C    2.257 -10.274  -3.149
  43 C   -1.317 -11.911   3.092
  44 C   -0.372 -10.274  -3.144
  45 C    1.314  11.911   3.079
  46 C    2.258  13.548  -3.157
  47 C    2.656 -14.195   3.092
  48 C    3.601 -12.558  -3.144
  49 C   13.623  -4.793   3.129
  50 C   14.567  -3.156  -3.107
  51 C   -9.659   7.096   3.147
  52 C   -8.714   8.733  -3.089
  53 C    9.658  -7.090   3.149
  54 C   10.603  -5.453  -3.087
  55 C   10.973  -4.813   3.144
  56 C   11.918  -3.176  -3.092
  57 C  -10.973   4.819   3.157
  58 C  -10.028   6.456  -3.079
  59 C   10.964  -9.396   3.144
  60 C   11.909  -7.759  -3.092
  61 C   13.623   4.795   3.107
  62 C  -10.020  -7.766  -3.129
  63 C   -9.658  -7.098   3.089
  64 C   -8.713  -5.461  -3.147
  65 C    9.659   7.092   3.087
  66 C   10.603   8.728  -3.149
  67 C   10.973   4.814   3.092
  68 C   11.918   6.451  -3.144
  69 C  -10.973  -4.821   3.079
  70 C  -10.028  -3.184  -3.157
  71 C   10.965   9.398   3.092
  72 C  -12.678  -3.163  -3.144
  73 O   13.787   0.001   3.113
                                769 S  
                                         6.773E+03 1.727E-03 0.000E+00 0.000E+00
                                         1.017E+03 1.325E-02 0.000E+00 0.000E+00
                                         2.313E+02 6.603E-02 0.000E+00 0.000E+00
                                         6.501E+01 2.353E-01 0.000E+00 0.000E+00
                                         2.050E+01 5.498E-01 0.000E+00 0.000E+00
                                770 S  
                                         6.716E+00 1.000E+00 0.000E+00 0.000E+00
                                771 S  
                                         1.147E+00 1.000E+00 0.000E+00 0.000E+00
                                772 S  
                                         3.342E-01 1.000E+00 0.000E+00 0.000E+00
                         773-   775 P  
                                         1.769E+01 0.000E+00 4.359E-02 0.000E+00
                                         3.854E+00 0.000E+00 2.318E-01 0.000E+00
                                         1.047E+00 0.000E+00 5.146E-01 0.000E+00
                         776-   778 P  
                                         2.759E-01 0.000E+00 1.000E+00 0.000E+00
                         779-   783 D  
                                         8.000E-01 0.000E+00 0.000E+00 1.000E+00
  74 O   14.732   1.638  -3.123
  75 O   -6.892  11.939   3.153
  76 O   -5.948  13.576  -3.083
  77 O   -6.893 -11.939   3.093
  78 O   -5.948 -10.303  -3.143
  79 O    6.893 -11.938   3.113
  80 O    7.837 -10.302  -3.123
  81 O    6.893  11.940   3.153
  82 O    7.838  13.576  -3.083
  83 O  -13.787  -0.001   3.093
  84 O  -12.843   1.636  -3.143

 *******************************************************************************
 FINISHED BASIS SET HANDLING 
 *******************************************************************************

 INFORMATION **** SET_MPP **** PCRYSTAL CALCULATION
 INFORMATION **** READM2 **** NEW DEFAULT: FOCK/KS MATRIX MIXING SET TO 30 %
 INFORMATION **** READM2 **** NEW DEFAULT: FULL DIRECT SCF MODE
 INFORMATION **** READM2 **** NEW DEFAULT: COULOMB BIPOLAR BUFFER SET TO 32 Mb
 INFORMATION **** READM2 **** NEW DEFAULT: EXCHANGE BIPOLAR BUFFER SET TO 32 Mb

 *******************************************************************************
 NEW DEFAULT: DFT INTEGRATION GRID INCREASED TO XLGRID
 NEW DEFAULT: DIIS ACCELERATOR ACTIVE
 USE KEYWORD NODIIS TO TURN IT OFF
 *******************************************************************************

 WARNING **** RDDFTP **** HSEsol-HJS ACTIVE
 RANGE SEPARATION - OMEGA:   0.110000000000000     
 WARNING **** RDDFTP **** HSEsol-3c has to be combined with sol-def2-mSVP basis set
 *******************************************************************************
 N. OF ATOMS PER CELL        84  COULOMB OVERLAP TOL         (T1) 10**   -6
 NUMBER OF SHELLS           468  COULOMB PENETRATION TOL     (T2) 10**   -6
 NUMBER OF AO               948  EXCHANGE OVERLAP TOL        (T3) 10**   -6
 N. OF ELECTRONS PER CELL   396  EXCHANGE PSEUDO OVP (F(G))  (T4) 10**   -6
 CORE ELECTRONS PER CELL    120  EXCHANGE PSEUDO OVP (P(G))  (T5) 10**  -12
 N. OF SYMMETRY OPERATORS     1  POLE ORDER IN MONO ZONE                  4
 *******************************************************************************
 TYPE OF CALCULATION :  RESTRICTED CLOSED SHELL
 KOHN-SHAM HAMILTONIAN

 (EXCHANGE)[CORRELATION] FUNCTIONAL:(HSEsol GGA)[PBEsol]

 RANGE-SEPARATED HYBRID FUNCTIONAL 
 OMEGA (SHORT-RANGE)[LONG-RANGE]:(    0.1100)[    0.0000]

 HYBRID EXCHANGE - PERCENTAGE OF FOCK EXCHANGE    25.0000

 CAPPA:IS1  2;IS2  2;IS3  8; K PTS MONK NET  20; SYMMOPS:K SPACE   2;G SPACE   1

 *******************************************************************************
 MAX NUMBER OF SCF CYCLES      50  CONVERGENCE ON DELTAP        10**-16
 WEIGHT OF F(I) IN F(I+1)      30% CONVERGENCE ON ENERGY        10**- 6
 SHRINK. FACT.(MONKH.)    2  2  8  NUMBER OF K POINTS IN THE IBZ     20
 SHRINKING FACTOR(GILAT NET)    8  NUMBER OF K POINTS(GILAT NET)   1028
 *******************************************************************************
 *** K POINTS COORDINATES (OBLIQUE COORDINATES IN UNITS OF IS =  2)
   1-R(  0  0  0)   2-R(  1  0  0)   3-R(  0  1  0)   4-R(  1  1  0)
   5-C(  0  0  1)   6-C(  1  0  1)   7-C(  0  1  1)   8-C(  1  1  1)
   9-C(  0  0  2)  10-C(  1  0  2)  11-C(  0  1  2)  12-C(  1  1  2)
  13-C(  0  0  3)  14-C(  1  0  3)  15-C(  0  1  3)  16-C(  1  1  3)
  17-R(  0  0  4)  18-R(  1  0  4)  19-R(  0  1  4)  20-R(  1  1  4)

 DIRECT LATTICE VECTORS COMPON. (A.U.)     RECIP. LATTICE VECTORS COMPON. (A.U.) 
        X            Y            Z              X            Y            Z
   24.5879030  -14.1935232    0.0000000      0.2555397    0.0000000    0.0000005
    0.0000000   28.3910867    0.0000000      0.1277517    0.2213084    0.0000015
   -0.0000265   -0.0000703   12.4721925      0.0000000    0.0000000    0.5037755

 DISK SPACE FOR EIGENVECTORS (FTN 10)    28758528 REALS

 SYMMETRY ADAPTION OF THE BLOCH FUNCTIONS DISABLED
 TTTTTTTTTTTTTTTTTTTTTTTTTTTTTT gordsh1     TELAPSE        0.05 TCPU        0.05

 MATRIX SIZE: P(G)  828218, F(G)  166270, P(G) IRR  416275, F(G) IRR  167302
 MAX G-VECTOR INDEX FOR 1- AND 2-ELECTRON INTEGRALS  61

 TTTTTTTTTTTTTTTTTTTTTTTTTTTTTT INPUT       TELAPSE        3.05 TCPU        3.04

 NEIGHBORS OF THE NON-EQUIVALENT ATOMS

 N = NUMBER OF NEIGHBORS AT DISTANCE R
    ATOM  N     R/ANG      R/AU   NEIGHBORS (ATOM LABELS AND CELL INDICES)
   1 B    1     1.3791     2.6061   73 O   -1 0 0
   1 B    1     1.3793     2.6065   75 O    0 0 0
   1 B    1     1.5503     2.9297   49 C   -1 0 0
   1 B    1     2.3895     4.5155    5 B    0 1 0
   1 B    1     2.3898     4.5160    3 B    0 0 0
   1 B    1     2.5632     4.8437   51 C    0 0 0

   2 B    1     1.3791     2.6061   74 O   -1 0 0
   2 B    1     1.3793     2.6065   76 O    0 0 0
   2 B    1     1.5503     2.9297   50 C   -1 0 0
   2 B    1     2.3895     4.5155    6 B    0 1 0
   2 B    1     2.3898     4.5160    4 B    0 1 0
   2 B    1     2.5632     4.8437   52 C    0 0 0

   3 B    1     1.3793     2.6065   77 O    0 1 0
   3 B    1     1.3793     2.6065   75 O    0 0 0
   3 B    1     1.5504     2.9298   37 C    0 0 0
   3 B    1     2.3895     4.5156    5 B    0 1 0
   3 B    1     2.3898     4.5160    1 B    0 0 0
   3 B    1     2.5634     4.8440   43 C    0 1 0

   4 B    1     1.3793     2.6065   78 O    0 0 0
   4 B    1     1.3793     2.6065   76 O    0-1 0
   4 B    1     1.5504     2.9298   38 C    0 0 0
   4 B    1     2.3895     4.5156    6 B    0 0 0
   4 B    1     2.3898     4.5160    2 B    0-1 0
   4 B    1     2.5634     4.8440   44 C    0 0 0

   5 B    1     1.3791     2.6061   73 O   -1-1 0
   5 B    1     1.3793     2.6064   77 O    0 0 0
   5 B    1     1.5502     2.9294   61 C   -1-1 0
   5 B    1     2.3895     4.5155    1 B    0-1 0
   5 B    1     2.3895     4.5156    3 B    0-1 0
   5 B    1     2.5629     4.8433   63 C    0 0 0

   6 B    1     1.3791     2.6061   74 O   -1-1 0
   6 B    1     1.3793     2.6064   78 O    0 0 0
   6 B    1     1.5502     2.9294   62 C    0 0 0
   6 B    1     2.3895     4.5155    2 B    0-1 0
   6 B    1     2.3895     4.5156    4 B    0 0 0
   6 B    1     2.5629     4.8433   64 C    0 0 0

   7 B    1     1.3795     2.6068   79 O    0 0 0
   7 B    1     1.3795     2.6070   81 O    0-1 0
   7 B    1     1.5513     2.9316   47 C    0 0 0
   7 B    1     2.3905     4.5174   11 B    0 0 0
   7 B    1     2.3905     4.5175    9 B    0-1 0
   7 B    1     2.5648     4.8468   45 C    0-1 0

   8 B    1     1.3795     2.6068   80 O    0 0 0
   8 B    1     1.3795     2.6070   82 O    0-1 0
   8 B    1     1.5513     2.9316   48 C    0 0 0
   8 B    1     2.3905     4.5174   12 B    0 0 0
   8 B    1     2.3905     4.5175   10 B    1 0 0
   8 B    1     2.5648     4.8468   46 C    0-1 0

   9 B    1     1.3795     2.6069   81 O    0 0 0
   9 B    1     1.3797     2.6072   83 O    1 1 0
   9 B    1     1.5516     2.9322   71 C    0 0 0
   9 B    1     2.3905     4.5175    7 B    0 1 0
   9 B    1     2.3911     4.5185   11 B    0 1 0
   9 B    1     2.5651     4.8473   69 C    1 1 0

  10 B    1     1.3795     2.6069   82 O   -1-1 0
  10 B    1     1.3797     2.6072   84 O    0 0 0
  10 B    1     1.5516     2.9322   72 C    0 0 0
  10 B    1     2.3905     4.5175    8 B   -1 0 0
  10 B    1     2.3911     4.5185   12 B   -1 0 0
  10 B    1     2.5651     4.8473   70 C    0 0 0

  11 B    1     1.3795     2.6068   79 O    0 0 0
  11 B    1     1.3796     2.6071   83 O    1 0 0
  11 B    1     1.5516     2.9322   59 C    0 0 0
  11 B    1     2.3905     4.5174    7 B    0 0 0
  11 B    1     2.3911     4.5185    9 B    0-1 0
  11 B    1     2.5651     4.8473   57 C    1 0 0

  12 B    1     1.3795     2.6068   80 O    0 0 0
  12 B    1     1.3796     2.6071   84 O    1 0 0
  12 B    1     1.5516     2.9322   60 C    0 0 0
  12 B    1     2.3905     4.5174    8 B    0 0 0
  12 B    1     2.3911     4.5185   10 B    1 0 0
  12 B    1     2.5651     4.8473   58 C    1 0 0

  13 H    1     1.0913     2.0623   39 C    0 0 0
  13 H    1     2.1472     4.0576   37 C    0 0 0
  13 H    1     2.1680     4.0969   45 C    0 0 0
  13 H    1     2.5202     4.7625   19 H    0 0 0
  13 H    1     2.5676     4.8520   75 O    0 0 0
  13 H    1     2.7321     5.1630    3 B    0 0 0

  14 H    1     1.0913     2.0623   40 C    0 0 0
  14 H    1     2.1472     4.0576   38 C    0 1 0
  14 H    1     2.1680     4.0969   46 C    0 0 0
  14 H    1     2.5202     4.7625   20 H    0 0 0
  14 H    1     2.5676     4.8520   76 O    0 0 0
  14 H    1     2.7321     5.1630    4 B    0 1 0

  15 H    1     1.0914     2.0625   41 C    0 0 0
  15 H    1     2.1493     4.0616   47 C    0 0 0
  15 H    1     2.1666     4.0942   43 C    0 0 0
  15 H    1     2.5198     4.7618   17 H    0 0 0
  15 H    1     2.5720     4.8604   79 O    0 0 0
  15 H    1     2.7362     5.1707    7 B    0 0 0

  16 H    1     1.0914     2.0625   42 C    0 0 0
  16 H    1     2.1493     4.0616   48 C    0 0 0
  16 H    1     2.1666     4.0942   44 C    0 0 0
  16 H    1     2.5198     4.7618   18 H    0 0 0
  16 H    1     2.5720     4.8604   80 O    0 0 0
  16 H    1     2.7362     5.1707    8 B    0 0 0

  17 H    1     1.0914     2.0624   43 C    0 0 0
  17 H    1     2.1471     4.0575   37 C    0-1 0
  17 H    1     2.1680     4.0970   41 C    0 0 0
  17 H    1     2.5198     4.7618   15 H    0 0 0
  17 H    1     2.5665     4.8500   77 O    0 0 0
  17 H    1     2.7315     5.1618    3 B    0-1 0

  18 H    1     1.0914     2.0624   44 C    0 0 0
  18 H    1     2.1471     4.0575   38 C    0 0 0
  18 H    1     2.1680     4.0970   42 C    0 0 0
  18 H    1     2.5198     4.7618   16 H    0 0 0
  18 H    1     2.5665     4.8500   78 O    0 0 0
  18 H    1     2.7315     5.1618    4 B    0 0 0

  19 H    1     1.0915     2.0626   45 C    0 0 0
  19 H    1     2.1490     4.0610   47 C    0 1 0
  19 H    1     2.1669     4.0948   39 C    0 0 0
  19 H    1     2.5202     4.7625   13 H    0 0 0
  19 H    1     2.5712     4.8588   81 O    0 0 0
  19 H    1     2.7351     5.1686    7 B    0 1 0

  20 H    1     1.0915     2.0626   46 C    0 0 0
  20 H    1     2.1490     4.0610   48 C    0 1 0
  20 H    1     2.1669     4.0948   40 C    0 0 0
  20 H    1     2.5202     4.7625   14 H    0 0 0
  20 H    1     2.5712     4.8588   82 O    0 0 0
  20 H    1     2.7351     5.1686    8 B    0 1 0

  21 H    1     1.0913     2.0623   51 C    0 0 0
  21 H    1     2.1469     4.0571   49 C   -1 0 0
  21 H    1     2.1680     4.0968   57 C    0 0 0
  21 H    1     2.5198     4.7617   27 H    0 0 0
  21 H    1     2.5670     4.8510   75 O    0 0 0
  21 H    1     2.7310     5.1609    1 B    0 0 0

  22 H    1     1.0913     2.0623   52 C    0 0 0
  22 H    1     2.1469     4.0571   50 C   -1 0 0
  22 H    1     2.1680     4.0968   58 C    0 0 0
  22 H    1     2.5198     4.7617   28 H    0 0 0
  22 H    1     2.5670     4.8510   76 O    0 0 0
  22 H    1     2.7310     5.1609    2 B    0 0 0

  23 H    1     1.0914     2.0625   53 C    0 0 0
  23 H    1     2.1493     4.0617   59 C    0 0 0
  23 H    1     2.1664     4.0939   55 C    0 0 0
  23 H    1     2.5192     4.7606   25 H    0 0 0
  23 H    1     2.5735     4.8632   79 O    0 0 0
  23 H    1     2.7371     5.1723   11 B    0 0 0

  24 H    1     1.0914     2.0625   54 C    0 0 0
  24 H    1     2.1493     4.0617   60 C    0 0 0
  24 H    1     2.1664     4.0939   56 C    0 0 0
  24 H    1     2.5192     4.7606   26 H    0 0 0
  24 H    1     2.5735     4.8632   80 O    0 0 0
  24 H    1     2.7371     5.1723   12 B    0 0 0

  25 H    1     1.0914     2.0624   55 C    0 0 0
  25 H    1     2.1475     4.0581   49 C    0 0 0
  25 H    1     2.1679     4.0967   53 C    0 0 0
  25 H    1     2.5192     4.7606   23 H    0 0 0
  25 H    1     2.5675     4.8519   73 O    0 0 0
  25 H    1     2.7328     5.1643    1 B    1 0 0

  26 H    1     1.0914     2.0624   56 C    0 0 0
  26 H    1     2.1475     4.0581   50 C    0 0 0
  26 H    1     2.1679     4.0967   54 C    0 0 0
  26 H    1     2.5192     4.7606   24 H    0 0 0
  26 H    1     2.5675     4.8519   74 O    0 0 0
  26 H    1     2.7328     5.1643    2 B    1 0 0

  27 H    1     1.0914     2.0625   57 C    0 0 0
  27 H    1     2.1491     4.0612   59 C   -1 0 0
  27 H    1     2.1666     4.0942   51 C    0 0 0
  27 H    1     2.5198     4.7617   21 H    0 0 0
  27 H    1     2.5723     4.8609   83 O    0 0 0
  27 H    1     2.7355     5.1693   11 B   -1 0 0

  28 H    1     1.0914     2.0625   58 C    0 0 0
  28 H    1     2.1491     4.0612   60 C   -1 0 0
  28 H    1     2.1666     4.0942   52 C    0 0 0
  28 H    1     2.5198     4.7617   22 H    0 0 0
  28 H    1     2.5723     4.8609   84 O    0 0 0
  28 H    1     2.7355     5.1693   12 B   -1 0 0

  29 H    1     1.0914     2.0624   63 C    0 0 0
  29 H    1     2.1475     4.0582   61 C   -1-1 0
  29 H    1     2.1678     4.0966   69 C    0 0 0
  29 H    1     2.5200     4.7621   35 H    0 0 0
  29 H    1     2.5667     4.8503   77 O    0 0 0
  29 H    1     2.7315     5.1618    5 B    0 0 0

  30 H    1     1.0914     2.0624   64 C    0 0 0
  30 H    1     2.1475     4.0582   62 C    0 0 0
  30 H    1     2.1678     4.0966   70 C    0 0 0
  30 H    1     2.5200     4.7621   36 H    0 0 0
  30 H    1     2.5667     4.8503   78 O    0 0 0
  30 H    1     2.7315     5.1618    6 B    0 0 0

  31 H    1     1.0913     2.0623   65 C    0 0 0
  31 H    1     2.1487     4.0605   71 C    0 0 0
  31 H    1     2.1667     4.0945   67 C    0 0 0
  31 H    1     2.5197     4.7616   33 H    0 0 0
  31 H    1     2.5723     4.8610   81 O    0 0 0
  31 H    1     2.7359     5.1701    9 B    0 0 0

  32 H    1     1.0913     2.0623   66 C    0 0 0
  32 H    1     2.1487     4.0605   72 C    1 1 0
  32 H    1     2.1667     4.0945   68 C    0 0 0
  32 H    1     2.5197     4.7616   34 H    0 0 0
  32 H    1     2.5723     4.8610   82 O    0 0 0
  32 H    1     2.7359     5.1701   10 B    1 1 0

  33 H    1     1.0915     2.0626   67 C    0 0 0
  33 H    1     2.1479     4.0589   61 C    0 0 0
  33 H    1     2.1679     4.0968   65 C    0 0 0
  33 H    1     2.5197     4.7616   31 H    0 0 0
  33 H    1     2.5677     4.8522   73 O    0 0 0
  33 H    1     2.7331     5.1648    5 B    1 1 0

  34 H    1     1.0915     2.0626   68 C    0 0 0
  34 H    1     2.1479     4.0589   62 C    1 1 0
  34 H    1     2.1679     4.0968   66 C    0 0 0
  34 H    1     2.5197     4.7616   32 H    0 0 0
  34 H    1     2.5677     4.8522   74 O    0 0 0
  34 H    1     2.7331     5.1648    6 B    1 1 0

  35 H    1     1.0914     2.0624   69 C    0 0 0
  35 H    1     2.1486     4.0602   71 C   -1-1 0
  35 H    1     2.1668     4.0947   63 C    0 0 0
  35 H    1     2.5200     4.7621   29 H    0 0 0
  35 H    1     2.5717     4.8598   83 O    0 0 0
  35 H    1     2.7349     5.1682    9 B   -1-1 0

  36 H    1     1.0914     2.0624   70 C    0 0 0
  36 H    1     2.1486     4.0602   72 C    0 0 0
  36 H    1     2.1668     4.0947   64 C    0 0 0
  36 H    1     2.5200     4.7621   30 H    0 0 0
  36 H    1     2.5717     4.8598   84 O    0 0 0
  36 H    1     2.7349     5.1682   10 B    0 0 0

  37 C    1     1.4020     2.6495   43 C    0 1 0
  37 C    1     1.4021     2.6495   39 C    0 0 0
  37 C    1     1.5504     2.9298    3 B    0 0 0
  37 C    1     2.1471     4.0575   17 H    0 1 0
  37 C    1     2.1472     4.0576   13 H    0 0 0
  37 C    1     2.4246     4.5817   41 C    0 1 0

  38 C    1     1.4020     2.6495   44 C    0 0 0
  38 C    1     1.4021     2.6495   40 C    0-1 0
  38 C    1     1.5504     2.9298    4 B    0 0 0
  38 C    1     2.1471     4.0575   18 H    0 0 0
  38 C    1     2.1472     4.0576   14 H    0-1 0
  38 C    1     2.4246     4.5817   42 C    0 0 0

  39 C    1     1.0913     2.0623   13 H    0 0 0
  39 C    1     1.3914     2.6294   45 C    0 0 0
  39 C    1     1.4021     2.6495   37 C    0 0 0
  39 C    1     2.1669     4.0948   19 H    0 0 0
  39 C    1     2.4177     4.5688   43 C    0 1 0
  39 C    1     2.4250     4.5825   47 C    0 1 0

  40 C    1     1.0913     2.0623   14 H    0 0 0
  40 C    1     1.3914     2.6294   46 C    0 0 0
  40 C    1     1.4021     2.6495   38 C    0 1 0
  40 C    1     2.1669     4.0948   20 H    0 0 0
  40 C    1     2.4177     4.5688   44 C    0 1 0
  40 C    1     2.4250     4.5825   48 C    0 1 0

  41 C    1     1.0914     2.0625   15 H    0 0 0
  41 C    1     1.3914     2.6293   43 C    0 0 0
  41 C    1     1.4026     2.6505   47 C    0 0 0
  41 C    1     2.1680     4.0970   17 H    0 0 0
  41 C    1     2.4182     4.5697   45 C    0-1 0
  41 C    1     2.4246     4.5817   37 C    0-1 0

  42 C    1     1.0914     2.0625   16 H    0 0 0
  42 C    1     1.3914     2.6293   44 C    0 0 0
  42 C    1     1.4026     2.6505   48 C    0 0 0
  42 C    1     2.1680     4.0970   18 H    0 0 0
  42 C    1     2.4182     4.5697   46 C    0-1 0
  42 C    1     2.4246     4.5817   38 C    0 0 0

  43 C    1     1.0914     2.0624   17 H    0 0 0
  43 C    1     1.3914     2.6293   41 C    0 0 0
  43 C    1     1.4020     2.6495   37 C    0-1 0
  43 C    1     2.1666     4.0942   15 H    0 0 0
  43 C    1     2.4177     4.5688   39 C    0-1 0
  43 C    1     2.4250     4.5826   47 C    0 0 0

  44 C    1     1.0914     2.0624   18 H    0 0 0
  44 C    1     1.3914     2.6293   42 C    0 0 0
  44 C    1     1.4020     2.6495   38 C    0 0 0
  44 C    1     2.1666     4.0942   16 H    0 0 0
  44 C    1     2.4177     4.5688   40 C    0-1 0
  44 C    1     2.4250     4.5826   48 C    0 0 0

  45 C    1     1.0915     2.0626   19 H    0 0 0
  45 C    1     1.3914     2.6294   39 C    0 0 0
  45 C    1     1.4025     2.6504   47 C    0 1 0
  45 C    1     2.1680     4.0969   13 H    0 0 0
  45 C    1     2.4182     4.5697   41 C    0 1 0
  45 C    1     2.4246     4.5818   37 C    0 0 0

  46 C    1     1.0915     2.0626   20 H    0 0 0
  46 C    1     1.3914     2.6294   40 C    0 0 0
  46 C    1     1.4025     2.6504   48 C    0 1 0
  46 C    1     2.1680     4.0969   14 H    0 0 0
  46 C    1     2.4182     4.5697   42 C    0 1 0
  46 C    1     2.4246     4.5818   38 C    0 1 0

  47 C    1     1.4025     2.6504   45 C    0-1 0
  47 C    1     1.4026     2.6505   41 C    0 0 0
  47 C    1     1.5513     2.9316    7 B    0 0 0
  47 C    1     2.1490     4.0610   19 H    0-1 0
  47 C    1     2.1493     4.0616   15 H    0 0 0
  47 C    1     2.4250     4.5825   39 C    0-1 0

  48 C    1     1.4025     2.6504   46 C    0-1 0
  48 C    1     1.4026     2.6505   42 C    0 0 0
  48 C    1     1.5513     2.9316    8 B    0 0 0
  48 C    1     2.1490     4.0610   20 H    0-1 0
  48 C    1     2.1493     4.0616   16 H    0 0 0
  48 C    1     2.4250     4.5825   40 C    0-1 0

  49 C    1     1.4020     2.6494   51 C    1 0 0
  49 C    1     1.4021     2.6495   55 C    0 0 0
  49 C    1     1.5503     2.9297    1 B    1 0 0
  49 C    1     2.1469     4.0571   21 H    1 0 0
  49 C    1     2.1475     4.0581   25 H    0 0 0
  49 C    1     2.4246     4.5818   53 C    0 0 0

  50 C    1     1.4020     2.6494   52 C    1 0 0
  50 C    1     1.4021     2.6495   56 C    0 0 0
  50 C    1     1.5503     2.9297    2 B    1 0 0
  50 C    1     2.1469     4.0571   22 H    1 0 0
  50 C    1     2.1475     4.0581   26 H    0 0 0
  50 C    1     2.4246     4.5818   54 C    0 0 0

  51 C    1     1.0913     2.0623   21 H    0 0 0
  51 C    1     1.3914     2.6293   57 C    0 0 0
  51 C    1     1.4020     2.6494   49 C   -1 0 0
  51 C    1     2.1666     4.0942   27 H    0 0 0
  51 C    1     2.4175     4.5684   55 C   -1 0 0
  51 C    1     2.4251     4.5828   59 C   -1 0 0

  52 C    1     1.0913     2.0623   22 H    0 0 0
  52 C    1     1.3914     2.6293   58 C    0 0 0
  52 C    1     1.4020     2.6494   50 C   -1 0 0
  52 C    1     2.1666     4.0942   28 H    0 0 0
  52 C    1     2.4175     4.5684   56 C   -1 0 0
  52 C    1     2.4251     4.5828   60 C   -1 0 0

  53 C    1     1.0914     2.0625   23 H    0 0 0
  53 C    1     1.3915     2.6295   55 C    0 0 0
  53 C    1     1.4026     2.6505   59 C    0 0 0
  53 C    1     2.1679     4.0967   25 H    0 0 0
  53 C    1     2.4179     4.5691   57 C    1 0 0
  53 C    1     2.4246     4.5818   49 C    0 0 0

  54 C    1     1.0914     2.0625   24 H    0 0 0
  54 C    1     1.3915     2.6295   56 C    0 0 0
  54 C    1     1.4026     2.6505   60 C    0 0 0
  54 C    1     2.1679     4.0967   26 H    0 0 0
  54 C    1     2.4179     4.5691   58 C    1 0 0
  54 C    1     2.4246     4.5818   50 C    0 0 0

  55 C    1     1.0914     2.0624   25 H    0 0 0
  55 C    1     1.3915     2.6295   53 C    0 0 0
  55 C    1     1.4021     2.6495   49 C    0 0 0
  55 C    1     2.1664     4.0939   23 H    0 0 0
  55 C    1     2.4175     4.5684   51 C    1 0 0
  55 C    1     2.4253     4.5832   59 C    0 0 0

  56 C    1     1.0914     2.0624   26 H    0 0 0
  56 C    1     1.3915     2.6295   54 C    0 0 0
  56 C    1     1.4021     2.6495   50 C    0 0 0
  56 C    1     2.1664     4.0939   24 H    0 0 0
  56 C    1     2.4175     4.5684   52 C    1 0 0
  56 C    1     2.4253     4.5832   60 C    0 0 0

  57 C    1     1.0914     2.0625   27 H    0 0 0
  57 C    1     1.3914     2.6293   51 C    0 0 0
  57 C    1     1.4025     2.6504   59 C   -1 0 0
  57 C    1     2.1680     4.0968   21 H    0 0 0
  57 C    1     2.4179     4.5691   53 C   -1 0 0
  57 C    1     2.4247     4.5819   49 C   -1 0 0

  58 C    1     1.0914     2.0625   28 H    0 0 0
  58 C    1     1.3914     2.6293   52 C    0 0 0
  58 C    1     1.4025     2.6504   60 C   -1 0 0
  58 C    1     2.1680     4.0968   22 H    0 0 0
  58 C    1     2.4179     4.5691   54 C   -1 0 0
  58 C    1     2.4247     4.5819   50 C   -1 0 0

  59 C    1     1.4025     2.6504   57 C    1 0 0
  59 C    1     1.4026     2.6505   53 C    0 0 0
  59 C    1     1.5516     2.9322   11 B    0 0 0
  59 C    1     2.1491     4.0612   27 H    1 0 0
  59 C    1     2.1493     4.0617   23 H    0 0 0
  59 C    1     2.4251     4.5828   51 C    1 0 0

  60 C    1     1.4025     2.6504   58 C    1 0 0
  60 C    1     1.4026     2.6505   54 C    0 0 0
  60 C    1     1.5516     2.9322   12 B    0 0 0
  60 C    1     2.1491     4.0612   28 H    1 0 0
  60 C    1     2.1493     4.0617   24 H    0 0 0
  60 C    1     2.4251     4.5828   52 C    1 0 0

  61 C    1     1.4021     2.6496   63 C    1 1 0
  61 C    1     1.4021     2.6497   67 C    0 0 0
  61 C    1     1.5502     2.9294    5 B    1 1 0
  61 C    1     2.1475     4.0582   29 H    1 1 0
  61 C    1     2.1479     4.0589   33 H    0 0 0
  61 C    1     2.4244     4.5814   65 C    0 0 0

  62 C    1     1.4021     2.6496   64 C    0 0 0
  62 C    1     1.4021     2.6497   68 C   -1-1 0
  62 C    1     1.5502     2.9294    6 B    0 0 0
  62 C    1     2.1475     4.0582   30 H    0 0 0
  62 C    1     2.1479     4.0589   34 H   -1-1 0
  62 C    1     2.4244     4.5814   66 C   -1-1 0

  63 C    1     1.0914     2.0624   29 H    0 0 0
  63 C    1     1.3914     2.6293   69 C    0 0 0
  63 C    1     1.4021     2.6496   61 C   -1-1 0
  63 C    1     2.1668     4.0947   35 H    0 0 0
  63 C    1     2.4179     4.5692   67 C   -1-1 0
  63 C    1     2.4251     4.5827   71 C   -1-1 0

  64 C    1     1.0914     2.0624   30 H    0 0 0
  64 C    1     1.3914     2.6293   70 C    0 0 0
  64 C    1     1.4021     2.6496   62 C    0 0 0
  64 C    1     2.1668     4.0947   36 H    0 0 0
  64 C    1     2.4179     4.5692   68 C   -1-1 0
  64 C    1     2.4251     4.5827   72 C    0 0 0

  65 C    1     1.0913     2.0623   31 H    0 0 0
  65 C    1     1.3914     2.6294   67 C    0 0 0
  65 C    1     1.4025     2.6504   71 C    0 0 0
  65 C    1     2.1679     4.0968   33 H    0 0 0
  65 C    1     2.4178     4.5690   69 C    1 1 0
  65 C    1     2.4244     4.5814   61 C    0 0 0

  66 C    1     1.0913     2.0623   32 H    0 0 0
  66 C    1     1.3914     2.6294   68 C    0 0 0
  66 C    1     1.4025     2.6504   72 C    1 1 0
  66 C    1     2.1679     4.0968   34 H    0 0 0
  66 C    1     2.4178     4.5690   70 C    1 1 0
  66 C    1     2.4244     4.5814   62 C    1 1 0

  67 C    1     1.0915     2.0626   33 H    0 0 0
  67 C    1     1.3914     2.6294   65 C    0 0 0
  67 C    1     1.4021     2.6497   61 C    0 0 0
  67 C    1     2.1667     4.0945   31 H    0 0 0
  67 C    1     2.4179     4.5692   63 C    1 1 0
  67 C    1     2.4253     4.5832   71 C    0 0 0

  68 C    1     1.0915     2.0626   34 H    0 0 0
  68 C    1     1.3914     2.6294   66 C    0 0 0
  68 C    1     1.4021     2.6497   62 C    1 1 0
  68 C    1     2.1667     4.0945   32 H    0 0 0
  68 C    1     2.4179     4.5692   64 C    1 1 0
  68 C    1     2.4253     4.5832   72 C    1 1 0

  69 C    1     1.0914     2.0624   35 H    0 0 0
  69 C    1     1.3914     2.6293   63 C    0 0 0
  69 C    1     1.4025     2.6503   71 C   -1-1 0
  69 C    1     2.1678     4.0966   29 H    0 0 0
  69 C    1     2.4178     4.5690   65 C   -1-1 0
  69 C    1     2.4245     4.5817   61 C   -1-1 0

  70 C    1     1.0914     2.0624   36 H    0 0 0
  70 C    1     1.3914     2.6293   64 C    0 0 0
  70 C    1     1.4025     2.6503   72 C    0 0 0
  70 C    1     2.1678     4.0966   30 H    0 0 0
  70 C    1     2.4178     4.5690   66 C   -1-1 0
  70 C    1     2.4245     4.5817   62 C    0 0 0

  71 C    1     1.4025     2.6503   69 C    1 1 0
  71 C    1     1.4025     2.6504   65 C    0 0 0
  71 C    1     1.5516     2.9322    9 B    0 0 0
  71 C    1     2.1486     4.0602   35 H    1 1 0
  71 C    1     2.1487     4.0605   31 H    0 0 0
  71 C    1     2.4251     4.5827   63 C    1 1 0

  72 C    1     1.4025     2.6503   70 C    0 0 0
  72 C    1     1.4025     2.6504   66 C   -1-1 0
  72 C    1     1.5516     2.9322   10 B    0 0 0
  72 C    1     2.1486     4.0602   36 H    0 0 0
  72 C    1     2.1487     4.0605   32 H   -1-1 0
  72 C    1     2.4251     4.5827   64 C    0 0 0

  73 O    1     1.3791     2.6061    1 B    1 0 0
  73 O    1     1.3791     2.6061    5 B    1 1 0
  73 O    1     2.3880     4.5126   75 O    1 0 0
  73 O    1     2.3882     4.5130   77 O    1 1 0
  73 O    1     2.5383     4.7966   61 C    0 0 0
  73 O    1     2.5384     4.7968   49 C    0 0 0

  74 O    1     1.3791     2.6061    2 B    1 0 0
  74 O    1     1.3791     2.6061    6 B    1 1 0
  74 O    1     2.3880     4.5126   76 O    1 0 0
  74 O    1     2.3882     4.5130   78 O    1 1 0
  74 O    1     2.5383     4.7966   62 C    1 1 0
  74 O    1     2.5384     4.7968   50 C    0 0 0

  75 O    1     1.3793     2.6065    1 B    0 0 0
  75 O    1     1.3793     2.6065    3 B    0 0 0
  75 O    1     2.3880     4.5126   73 O   -1 0 0
  75 O    1     2.3882     4.5131   77 O    0 1 0
  75 O    1     2.5391     4.7981   37 C    0 0 0
  75 O    1     2.5395     4.7990   49 C   -1 0 0

  76 O    1     1.3793     2.6065    2 B    0 0 0
  76 O    1     1.3793     2.6065    4 B    0 1 0
  76 O    1     2.3880     4.5126   74 O   -1 0 0
  76 O    1     2.3882     4.5131   78 O    0 1 0
  76 O    1     2.5391     4.7981   38 C    0 1 0
  76 O    1     2.5395     4.7990   50 C   -1 0 0

  77 O    1     1.3793     2.6064    5 B    0 0 0
  77 O    1     1.3793     2.6065    3 B    0-1 0
  77 O    1     2.3882     4.5130   73 O   -1-1 0
  77 O    1     2.3882     4.5131   75 O    0-1 0
  77 O    1     2.5390     4.7980   37 C    0-1 0
  77 O    1     2.5391     4.7982   61 C   -1-1 0

  78 O    1     1.3793     2.6064    6 B    0 0 0
  78 O    1     1.3793     2.6065    4 B    0 0 0
  78 O    1     2.3882     4.5130   74 O   -1-1 0
  78 O    1     2.3882     4.5131   76 O    0-1 0
  78 O    1     2.5390     4.7980   38 C    0 0 0
  78 O    1     2.5391     4.7982   62 C    0 0 0

  79 O    1     1.3795     2.6068   11 B    0 0 0
  79 O    1     1.3795     2.6068    7 B    0 0 0
  79 O    1     2.3880     4.5126   83 O    1 0 0
  79 O    1     2.3884     4.5134   81 O    0-1 0
  79 O    1     2.5400     4.7998   47 C    0 0 0
  79 O    1     2.5403     4.8005   59 C    0 0 0

  80 O    1     1.3795     2.6068   12 B    0 0 0
  80 O    1     1.3795     2.6068    8 B    0 0 0
  80 O    1     2.3880     4.5126   84 O    1 0 0
  80 O    1     2.3884     4.5134   82 O    0-1 0
  80 O    1     2.5400     4.7998   48 C    0 0 0
  80 O    1     2.5403     4.8005   60 C    0 0 0

  81 O    1     1.3795     2.6069    9 B    0 0 0
  81 O    1     1.3795     2.6070    7 B    0 1 0
  81 O    1     2.3881     4.5128   83 O    1 1 0
  81 O    1     2.3884     4.5134   79 O    0 1 0
  81 O    1     2.5404     4.8006   47 C    0 1 0
  81 O    1     2.5405     4.8008   71 C    0 0 0

  82 O    1     1.3795     2.6069   10 B    1 1 0
  82 O    1     1.3795     2.6070    8 B    0 1 0
  82 O    1     2.3881     4.5128   84 O    1 1 0
  82 O    1     2.3884     4.5134   80 O    0 1 0
  82 O    1     2.5404     4.8006   48 C    0 1 0
  82 O    1     2.5405     4.8008   72 C    1 1 0

  83 O    1     1.3796     2.6071   11 B   -1 0 0
  83 O    1     1.3797     2.6072    9 B   -1-1 0
  83 O    1     2.3880     4.5126   79 O   -1 0 0
  83 O    1     2.3881     4.5128   81 O   -1-1 0
  83 O    1     2.5409     4.8016   71 C   -1-1 0
  83 O    1     2.5410     4.8019   59 C   -1 0 0

  84 O    1     1.3796     2.6071   12 B   -1 0 0
  84 O    1     1.3797     2.6072   10 B    0 0 0
  84 O    1     2.3880     4.5126   80 O   -1 0 0
  84 O    1     2.3881     4.5128   82 O   -1-1 0
  84 O    1     2.5409     4.8016   72 C    0 0 0
  84 O    1     2.5410     4.8019   60 C   -1 0 0


 SYMMETRY ALLOWED INTERNAL DEGREE(S) OF FREEDOM: 249
 TTTTTTTTTTTTTTTTTTTTTTTTTTTTTT SYMM        TELAPSE        3.05 TCPU        3.05
 TTTTTTTTTTTTTTTTTTTTTTTTTTTTTT INT_SCREEN  TELAPSE        3.26 TCPU        3.26

 DFT PARAMETERS

     ATOM       ELECTRONS   NET CHARGE   R(ANGSTROM)
   1   5  B       5.0000      0.0000     0.89000000
  13   1  H       1.0000      0.0000     1.11000000
  37   6  C       6.0000      0.0000     0.77000000
  73   8  O       8.0000      0.0000     0.74000000

 SIZE OF GRID=    2473874
 TTTTTTTTTTTTTTTTTTTTTTTTTTTTTT MAKE_GRID2  TELAPSE       29.12 TCPU       29.09
 BECKE WEIGHT FUNCTION
 RADSAFE =     2.00
 TOLERANCES - DENSITY:10**- 6; POTENTIAL:10**- 9; GRID WGT:10**-14

 RADIAL INTEGRATION  - INTERVALS (POINTS,UPPER LIMIT):            1( 75,  4.0*R)

 ANGULAR INTEGRATION - INTERVALS (ACCURACY LEVEL [N. POINTS] UPPER LIMIT):
  1(  4[  86]   0.2)  2(  8[ 194]   0.5)  3( 12[ 350]   0.9)  4( 16[ 974]   3.5)
  5( 12[ 350]9999.0)
 TTTTTTTTTTTTTTTTTTTTTTTTTTTTTT INT_CALC    TELAPSE       29.45 TCPU       29.42
 EEEEEEEEEE INT_CALC TERMINATION  DATE 19 02 2026 TIME 19:56:49.9

 *******************************************************************************
 cof-1_z33_L010_serr                                                             
 CRYSTAL - SCF - TYPE OF CALCULATION :  RESTRICTED CLOSED SHELL
 *******************************************************************************

 CAPPA:IS1  2;IS2  2;IS3  8; K PTS MONK NET  20; SYMMOPS:K SPACE   2;G SPACE   1

 TTTTTTTTTTTTTTTTTTTTTTTTTTTTTT SDIK        TELAPSE       31.34 TCPU       55.89

 AAAAAAAAAAAAAAAAAAAAAAAAAAAAAAAAAAAAAAAAAAAAAAAAAAAAAAAAAAAAAAAAAAAAAAAAAAAAAAA
         ATOMIC WAVEFUNCTION(S)


 NUCLEAR CHARGE  5.0  SYMMETRY SPECIES            S    P
 N. ELECTRONS    5.0  NUMBER OF PRIMITIVE GTOS    8    4
                      NUMBER OF CONTRACTED GTOS   4    2
                      NUMBER OF CLOSED SHELLS     2    0
                      OPEN SHELL OCCUPATION       0    1

  ZNUC  SCFIT    TOTAL HF ENERGY   KINETIC ENERGY   VIRIAL THEOREM ACCURACY
   5.0    11    -2.451164084E+01  2.462155050E+01 -1.995536038E+00  1.5E-06

 NUCLEAR CHARGE  1.0  SYMMETRY SPECIES            S
 N. ELECTRONS    1.0  NUMBER OF PRIMITIVE GTOS    4
                      NUMBER OF CONTRACTED GTOS   2
                      NUMBER OF CLOSED SHELLS     0
                      OPEN SHELL OCCUPATION       1

  ZNUC  SCFIT    TOTAL HF ENERGY   KINETIC ENERGY   VIRIAL THEOREM ACCURACY
   1.0     1    -4.977266687E-01  5.190767460E-01 -1.958869132E+00  0.0E+00

 NUCLEAR CHARGE  6.0  SYMMETRY SPECIES            S    P
 N. ELECTRONS    6.0  NUMBER OF PRIMITIVE GTOS    8    4
                      NUMBER OF CONTRACTED GTOS   4    2
                      NUMBER OF CLOSED SHELLS     2    0
                      OPEN SHELL OCCUPATION       0    2

  ZNUC  SCFIT    TOTAL HF ENERGY   KINETIC ENERGY   VIRIAL THEOREM ACCURACY
   6.0     9    -3.766704647E+01  3.775180683E+01 -1.997754800E+00  1.1E-06

 NUCLEAR CHARGE  8.0  SYMMETRY SPECIES            S    P
 N. ELECTRONS    8.0  NUMBER OF PRIMITIVE GTOS    8    4
                      NUMBER OF CONTRACTED GTOS   4    2
                      NUMBER OF CLOSED SHELLS     2    0
                      OPEN SHELL OCCUPATION       0    4

  ZNUC  SCFIT    TOTAL HF ENERGY   KINETIC ENERGY   VIRIAL THEOREM ACCURACY
   8.0    12    -7.477373220E+01  7.477365593E+01 -2.000001020E+00  3.8E-06

 AAAAAAAAAAAAAAAAAAAAAAAAAAAAAAAAAAAAAAAAAAAAAAAAAAAAAAAAAAAAAAAAAAAAAAAAAAAAAAA

 CHARGE NORMALIZATION FACTOR   1.00000000
 TOTAL ATOMIC CHARGES:
   5.0000000   5.0000000   5.0000000   5.0000000   5.0000000   5.0000000
   5.0000000   5.0000000   5.0000000   5.0000000   5.0000000   5.0000000
   1.0000000   1.0000000   1.0000000   1.0000000   1.0000000   1.0000000
   1.0000000   1.0000000   1.0000000   1.0000000   1.0000000   1.0000000
   1.0000000   1.0000000   1.0000000   1.0000000   1.0000000   1.0000000
   1.0000000   1.0000000   1.0000000   1.0000000   1.0000000   1.0000000
   6.0000000   6.0000000   6.0000000   6.0000000   6.0000000   6.0000000
   6.0000000   6.0000000   6.0000000   6.0000000   6.0000000   6.0000000
   6.0000000   6.0000000   6.0000000   6.0000000   6.0000000   6.0000000
   6.0000000   6.0000000   6.0000000   6.0000000   6.0000000   6.0000000
   6.0000000   6.0000000   6.0000000   6.0000000   6.0000000   6.0000000
   6.0000000   6.0000000   6.0000000   6.0000000   6.0000000   6.0000000
   8.0000000   8.0000000   8.0000000   8.0000000   8.0000000   8.0000000
   8.0000000   8.0000000   8.0000000   8.0000000   8.0000000   8.0000000
 TTTTTTTTTTTTTTTTTTTTTTTTTTTTTT MOQGAD      TELAPSE       31.45 TCPU       59.41
 TTTTTTTTTTTTTTTTTTTTTTTTTTTTTT SHELLXN     TELAPSE       60.41 TCPU      985.08
 TTTTTTTTTTTTTTTTTTTTTTTTTTTTTT MONMO3      TELAPSE       61.09 TCPU     1006.74
 NUMERICALLY INTEGRATED DENSITY    395.9999110656
 TTTTTTTTTTTTTTTTTTTTTTTTTTTTTT NUMDFT      TELAPSE       62.76 TCPU     1059.89
 CYC   0 ETOT(AU) -2.592028450565E+03 DETOT -2.59E+03 tst  0.00E+00 PX  1.00E+00
 TTTTTTTTTTTTTTTTTTTTTTTTTTTTTT DIIS        TELAPSE       62.87 TCPU     1063.51
 TTTTTTTTTTTTTTTTTTTTTTTTTTTTTT FDIK        TELAPSE       64.64 TCPU     1120.09
 INSULATING STATE
 TOP OF VALENCE BANDS -    BAND    198; K    3; EIG -2.8864947E-01 AU
 TOP OF VALENCE BANDS -    BAND    198; K    1; EIG -2.8866279E-01 AU
 BOTTOM OF VIRTUAL BANDS - BAND    199; K    1; EIG -1.7500988E-01 AU
 INDIRECT ENERGY BAND GAP:   3.0923 eV
 TTTTTTTTTTTTTTTTTTTTTTTTTTTTTT PDIG        TELAPSE       66.31 TCPU     1127.14
 CHARGE NORMALIZATION FACTOR   1.00000000
 TOTAL ATOMIC CHARGES:
   4.1334874   4.1124565   4.1142825   4.1225138   4.1144974   4.1228028
   4.1225415   4.1143002   4.1223624   4.1142061   4.1123215   4.1332234
   0.7861570   0.7871186   0.7872289   0.7862725   0.7863391   0.7862415
   0.7863536   0.7864578   0.7863928   0.7860377   0.7862042   0.7865561
   0.7863826   0.7860274   0.7861642   0.7865186   0.7863431   0.7862428
   0.7864217   0.7865250   0.7861097   0.7870676   0.7872233   0.7862652
   6.0661968   6.0494170   6.2784034   6.2678103   6.2677661   6.2783517
   6.2621676   6.2788035   6.2787426   6.2620774   6.0486293   6.0653713
   6.0447655   6.0669714   6.2687789   6.2719019   6.2719564   6.2688663
   6.2686817   6.2718357   6.2719551   6.2688788   6.0656428   6.0434904
   6.0665732   6.0498081   6.2619311   6.2785749   6.2791233   6.2624410
   6.2780276   6.2674347   6.2680508   6.2786058   6.0481087   6.0648485
   8.7088746   8.7085795   8.7089713   8.7087087   8.7100936   8.7012729
   8.7089522   8.7092662   8.7016476   8.7104487   8.7091179   8.7094309
 TTTTTTTTTTTTTTTTTTTTTTTTTTTTTT MOQGAD      TELAPSE       66.43 TCPU     1127.25
 TTTTTTTTTTTTTTTTTTTTTTTTTTTTTT SHELLXN     TELAPSE       96.57 TCPU     2089.22
 TTTTTTTTTTTTTTTTTTTTTTTTTTTTTT MONMO3      TELAPSE       97.24 TCPU     2110.84
 NUMERICALLY INTEGRATED DENSITY    395.9998993997
 TTTTTTTTTTTTTTTTTTTTTTTTTTTTTT NUMDFT      TELAPSE       98.94 TCPU     2164.89
 CYC   1 ETOT(AU) -2.577621529258E+03 DETOT  1.44E+01 tst  0.00E+00 PX  1.00E+00
 TTTTTTTTTTTTTTTTTTTTTTTTTTTTTT DIIS        TELAPSE       99.08 TCPU     2169.47
 DIIS TEST: 0.23122E+01 AT SCF   CYCLE   1 - MIX   30 %
 TTTTTTTTTTTTTTTTTTTTTTTTTTTTTT FDIK        TELAPSE      100.88 TCPU     2226.86
 INSULATING STATE
 TOP OF VALENCE BANDS -    BAND    198; K    3; EIG -1.8799967E-01 AU
 TOP OF VALENCE BANDS -    BAND    198; K    1; EIG -1.8804200E-01 AU
 BOTTOM OF VIRTUAL BANDS - BAND    199; K    1; EIG -9.5664122E-02 AU
 INDIRECT ENERGY BAND GAP:   2.5126 eV
 TTTTTTTTTTTTTTTTTTTTTTTTTTTTTT PDIG        TELAPSE      102.53 TCPU     2233.89
 CHARGE NORMALIZATION FACTOR   1.00000000
 TOTAL ATOMIC CHARGES:
   4.6709977   4.7038993   4.6879412   4.6697947   4.6879635   4.6699319
   4.6705434   4.6886052   4.6705519   4.6886345   4.7045252   4.6717786
   0.9235633   0.9259773   0.9260768   0.9236294   0.9227744   0.9267569
   0.9268200   0.9227790   0.9260326   0.9192510   0.9192890   0.9261653
   0.9260204   0.9192184   0.9192655   0.9261477   0.9227565   0.9267430
   0.9268896   0.9228522   0.9235090   0.9259104   0.9260901   0.9236139
   5.8884250   5.8451811   6.1466442   6.0840113   6.0845795   6.1471701
   6.1143107   6.1420166   6.1426408   6.1151185   5.8482085   5.8914038
   5.8162464   5.9168198   6.1092413   6.1353165   6.1362229   6.1100400
   6.1094918   6.1355406   6.1361221   6.1098479   5.9203885   5.8199060
   5.8883672   5.8451211   6.1143485   6.1420814   6.1425325   6.1149589
   6.1468617   6.0842113   6.0843406   6.1468944   5.8483422   5.8916565
   8.3480031   8.3629790   8.3484086   8.3634311   8.3801045   8.3386759
   8.3628461   8.3478448   8.3383177   8.3799035   8.3633194   8.3482571
 TTTTTTTTTTTTTTTTTTTTTTTTTTTTTT MOQGAD      TELAPSE      102.65 TCPU     2234.01
 TTTTTTTTTTTTTTTTTTTTTTTTTTTTTT SHELLXN     TELAPSE      132.79 TCPU     3195.71
 TTTTTTTTTTTTTTTTTTTTTTTTTTTTTT MONMO3      TELAPSE      133.46 TCPU     3217.35
 NUMERICALLY INTEGRATED DENSITY    395.9998740714
 TTTTTTTTTTTTTTTTTTTTTTTTTTTTTT NUMDFT      TELAPSE      135.15 TCPU     3271.37
 CYC   2 ETOT(AU) -2.577998392409E+03 DETOT -3.77E-01 tst  4.30E-03 PX  1.57E-01
 TTTTTTTTTTTTTTTTTTTTTTTTTTTTTT DIIS        TELAPSE      135.32 TCPU     3276.61
 DIIS TEST: 0.10379E+01 AT SCF   CYCLE   2 - DIIS ACTIVE - HISTORY:     2 CYCLES
 TTTTTTTTTTTTTTTTTTTTTTTTTTTTTT FDIK        TELAPSE      137.11 TCPU     3333.95
 INSULATING STATE
 TOP OF VALENCE BANDS -    BAND    198; K    3; EIG -2.0649111E-01 AU
 TOP OF VALENCE BANDS -    BAND    198; K    1; EIG -2.0666538E-01 AU
 BOTTOM OF VIRTUAL BANDS - BAND    199; K    1; EIG -9.1277343E-02 AU
 INDIRECT ENERGY BAND GAP:   3.1351 eV
 TTTTTTTTTTTTTTTTTTTTTTTTTTTTTT PDIG        TELAPSE      138.78 TCPU     3340.99
 CHARGE NORMALIZATION FACTOR   1.00000000
 TOTAL ATOMIC CHARGES:
   4.4612303   4.4591970   4.4554712   4.4537203   4.4556665   4.4540421
   4.4531438   4.4548527   4.4529557   4.4546540   4.4582931   4.4602169
   0.8980960   0.8874800   0.8874810   0.8983109   0.8888890   0.8975296
   0.8976342   0.8889676   0.8906586   0.8917286   0.8920700   0.8907480
   0.8907048   0.8917551   0.8919799   0.8906720   0.8888736   0.8975299
   0.8976822   0.8890377   0.8981083   0.8874834   0.8874348   0.8982498
   5.8973887   5.9073430   6.1632964   6.1750702   6.1740994   6.1623157
   6.1682982   6.1708002   6.1697690   6.1668658   5.9051323   5.8951866
   5.9164964   5.8975613   6.1755131   6.1603026   6.1589945   6.1746796
   6.1755713   6.1603319   6.1589340   6.1745891   5.8948078   5.9137653
   5.8977899   5.9077061   6.1682392   6.1707272   6.1699928   6.1669835
   6.1631602   6.1749690   6.1740965   6.1623087   5.9046806   5.8947906
   8.5197005   8.5212221   8.5198701   8.5214409   8.5232580   8.5117963
   8.5212075   8.5198501   8.5119608   8.5232048   8.5213707   8.5200127
 TTTTTTTTTTTTTTTTTTTTTTTTTTTTTT MOQGAD      TELAPSE      138.90 TCPU     3341.11
 TTTTTTTTTTTTTTTTTTTTTTTTTTTTTT SHELLXN     TELAPSE      169.04 TCPU     4303.00
 TTTTTTTTTTTTTTTTTTTTTTTTTTTTTT MONMO3      TELAPSE      169.72 TCPU     4324.63
 NUMERICALLY INTEGRATED DENSITY    395.9998743592
 TTTTTTTTTTTTTTTTTTTTTTTTTTTTTT NUMDFT      TELAPSE      171.41 TCPU     4378.68
 CYC   3 ETOT(AU) -2.578209483604E+03 DETOT -2.11E-01 tst  6.18E-04 PX  6.03E-02
 TTTTTTTTTTTTTTTTTTTTTTTTTTTTTT DIIS        TELAPSE      171.59 TCPU     4384.66
 DIIS TEST: 0.29670E-01 AT SCF   CYCLE   3 - DIIS ACTIVE - HISTORY:     3 CYCLES
 TTTTTTTTTTTTTTTTTTTTTTTTTTTTTT FDIK        TELAPSE      173.39 TCPU     4441.89
 INSULATING STATE
 TOP OF VALENCE BANDS -    BAND    198; K    3; EIG -2.1363486E-01 AU
 TOP OF VALENCE BANDS -    BAND    198; K    1; EIG -2.1365984E-01 AU
 BOTTOM OF VIRTUAL BANDS - BAND    199; K    1; EIG -1.0099340E-01 AU
 INDIRECT ENERGY BAND GAP:   3.0651 eV
 TTTTTTTTTTTTTTTTTTTTTTTTTTTTTT PDIG        TELAPSE      175.05 TCPU     4448.94
 CHARGE NORMALIZATION FACTOR   1.00000000
 TOTAL ATOMIC CHARGES:
   4.4726377   4.4735720   4.4653432   4.4619841   4.4654905   4.4622483
   4.4633751   4.4665180   4.4632468   4.4663783   4.4745545   4.4739735
   0.8783822   0.8821963   0.8823819   0.8783570   0.8779577   0.8814224
   0.8814909   0.8779238   0.8826436   0.8752487   0.8751438   0.8828863
   0.8826649   0.8752331   0.8750833   0.8828416   0.8779669   0.8814283
   0.8815390   0.8779716   0.8783755   0.8821738   0.8823573   0.8783016
   5.9736813   5.9257505   6.1808232   6.1314182   6.1332211   6.1824751
   6.1517154   6.1702827   6.1721646   6.1543575   5.9319696   5.9797668
   5.9009783   6.0005546   6.1415076   6.1719060   6.1744196   6.1433367
   6.1414953   6.1719146   6.1744961   6.1433247   6.0069839   5.9077737
   5.9736517   5.9256791   6.1515407   6.1701830   6.1723119   6.1544858
   6.1806390   6.1312209   6.1333558   6.1825723   5.9319908   5.9799070
   8.4948653   8.5081912   8.4952053   8.5085976   8.5208789   8.4841449
   8.5084864   8.4949688   8.4839919   8.5212790   8.5089135   8.4953283
 TTTTTTTTTTTTTTTTTTTTTTTTTTTTTT MOQGAD      TELAPSE      175.17 TCPU     4449.05
 TTTTTTTTTTTTTTTTTTTTTTTTTTTTTT SHELLXN     TELAPSE      205.31 TCPU     5410.72
 TTTTTTTTTTTTTTTTTTTTTTTTTTTTTT MONMO3      TELAPSE      205.98 TCPU     5432.35
 NUMERICALLY INTEGRATED DENSITY    395.9998762715
 TTTTTTTTTTTTTTTTTTTTTTTTTTTTTT NUMDFT      TELAPSE      207.67 TCPU     5486.41
 CYC   4 ETOT(AU) -2.578214381320E+03 DETOT -4.90E-03 tst  8.67E-05 PX  2.59E-02
 TTTTTTTTTTTTTTTTTTTTTTTTTTTTTT DIIS        TELAPSE      207.88 TCPU     5492.96
 DIIS TEST: 0.11787E-01 AT SCF   CYCLE   4 - DIIS ACTIVE - HISTORY:     4 CYCLES
 TTTTTTTTTTTTTTTTTTTTTTTTTTTTTT FDIK        TELAPSE      209.67 TCPU     5550.03
 INSULATING STATE
 TOP OF VALENCE BANDS -    BAND    198; K    3; EIG -2.1419465E-01 AU
 TOP OF VALENCE BANDS -    BAND    198; K    1; EIG -2.1421892E-01 AU
 BOTTOM OF VIRTUAL BANDS - BAND    199; K    1; EIG -1.0022679E-01 AU
 INDIRECT ENERGY BAND GAP:   3.1012 eV
 TTTTTTTTTTTTTTTTTTTTTTTTTTTTTT PDIG        TELAPSE      211.34 TCPU     5557.08
 CHARGE NORMALIZATION FACTOR   1.00000000
 TOTAL ATOMIC CHARGES:
   4.4694819   4.4775474   4.4697474   4.4633660   4.4699225   4.4636800
   4.4625062   4.4689318   4.4623381   4.4687686   4.4765419   4.4682167
   0.8824747   0.8791212   0.8791237   0.8827937   0.8781125   0.8830341
   0.8832054   0.8782867   0.8797981   0.8778079   0.8782593   0.8798667
   0.8798183   0.8778041   0.8781944   0.8798150   0.8780929   0.8830321
   0.8832572   0.8783621   0.8824544   0.8790967   0.8790991   0.8827556
   5.9406197   5.9272740   6.1752337   6.1559138   6.1540080   6.1733702
   6.1645729   6.1799810   6.1778996   6.1616500   5.9221975   5.9356790
   5.9200156   5.9512204   6.1684834   6.1687525   6.1663489   6.1669060
   6.1686548   6.1688840   6.1662282   6.1667201   5.9460979   5.9146873
   5.9409721   5.9275808   6.1645206   6.1799203   6.1780565   6.1617007
   6.1752270   6.1559320   6.1539177   6.1732621   5.9218331   5.9353879
   8.5008371   8.5067080   8.5010448   8.5069696   8.5145680   8.4931137
   8.5064340   8.5008609   8.4931528   8.5141584   8.5066637   8.5010649
 TTTTTTTTTTTTTTTTTTTTTTTTTTTTTT MOQGAD      TELAPSE      211.45 TCPU     5557.19
 TTTTTTTTTTTTTTTTTTTTTTTTTTTTTT SHELLXN     TELAPSE      241.58 TCPU     6518.71
 TTTTTTTTTTTTTTTTTTTTTTTTTTTTTT MONMO3      TELAPSE      242.26 TCPU     6540.33
 NUMERICALLY INTEGRATED DENSITY    395.9998762309
 TTTTTTTTTTTTTTTTTTTTTTTTTTTTTT NUMDFT      TELAPSE      243.95 TCPU     6594.39
 CYC   5 ETOT(AU) -2.578217149270E+03 DETOT -2.77E-03 tst  3.51E-05 PX  1.34E-02
 TTTTTTTTTTTTTTTTTTTTTTTTTTTTTT DIIS        TELAPSE      244.19 TCPU     6601.33
 DIIS TEST: 0.79567E-03 AT SCF   CYCLE   5 - DIIS ACTIVE - HISTORY:     5 CYCLES
 TTTTTTTTTTTTTTTTTTTTTTTTTTTTTT FDIK        TELAPSE      245.98 TCPU     6658.46
 INSULATING STATE
 TOP OF VALENCE BANDS -    BAND    198; K    3; EIG -2.1317829E-01 AU
 TOP OF VALENCE BANDS -    BAND    198; K    1; EIG -2.1320271E-01 AU
 BOTTOM OF VIRTUAL BANDS - BAND    199; K    1; EIG -9.9560621E-02 AU
 INDIRECT ENERGY BAND GAP:   3.0917 eV
 TTTTTTTTTTTTTTTTTTTTTTTTTTTTTT PDIG        TELAPSE      247.65 TCPU     6665.51
 CHARGE NORMALIZATION FACTOR   1.00000000
 TOTAL ATOMIC CHARGES:
   4.4700802   4.4745653   4.4673570   4.4624371   4.4675118   4.4627147
   4.4642356   4.4688429   4.4641008   4.4686979   4.4757963   4.4717726
   0.8839835   0.8810596   0.8812628   0.8838675   0.8796158   0.8853614
   0.8853763   0.8795091   0.8828065   0.8794660   0.8792872   0.8830889
   0.8828405   0.8794689   0.8792128   0.8830282   0.8796175   0.8853625
   0.8854272   0.8795644   0.8839862   0.8810451   0.8812334   0.8838087
   5.9352317   5.9137075   6.1754028   6.1520606   6.1547384   6.1778699
   6.1597630   6.1730740   6.1760147   6.1639014   5.9226847   5.9439573
   5.9039556   5.9496156   6.1591361   6.1682809   6.1717254   6.1616286
   6.1590635   6.1682147   6.1718255   6.1616706   5.9581077   5.9129860
   5.9353076   5.9137470   6.1596354   6.1729976   6.1761868   6.1640293
   6.1751711   6.1518364   6.1548762   6.1779853   5.9225789   5.9439521
   8.5021891   8.5095529   8.5024922   8.5099187   8.5169224   8.4927646
   8.5100463   8.5023589   8.4927213   8.5176620   8.5103940   8.5026650
 TTTTTTTTTTTTTTTTTTTTTTTTTTTTTT MOQGAD      TELAPSE      247.77 TCPU     6665.62
 TTTTTTTTTTTTTTTTTTTTTTTTTTTTTT SHELLXN     TELAPSE      277.91 TCPU     7627.47
 TTTTTTTTTTTTTTTTTTTTTTTTTTTTTT MONMO3      TELAPSE      278.59 TCPU     7649.12
 NUMERICALLY INTEGRATED DENSITY    395.9998761093
 TTTTTTTTTTTTTTTTTTTTTTTTTTTTTT NUMDFT      TELAPSE      280.28 TCPU     7703.12
 CYC   6 ETOT(AU) -2.578217194380E+03 DETOT -4.51E-05 tst  6.88E-06 PX  3.98E-03
 TTTTTTTTTTTTTTTTTTTTTTTTTTTTTT DIIS        TELAPSE      280.53 TCPU     7710.04
 DIIS TEST: 0.67659E-03 AT SCF   CYCLE   6 - DIIS ACTIVE - HISTORY:     6 CYCLES
 TTTTTTTTTTTTTTTTTTTTTTTTTTTTTT FDIK        TELAPSE      282.33 TCPU     7767.11
 INSULATING STATE
 TOP OF VALENCE BANDS -    BAND    198; K    3; EIG -2.1323976E-01 AU
 TOP OF VALENCE BANDS -    BAND    198; K    1; EIG -2.1326418E-01 AU
 BOTTOM OF VIRTUAL BANDS - BAND    199; K    1; EIG -9.9532628E-02 AU
 INDIRECT ENERGY BAND GAP:   3.0941 eV
 TTTTTTTTTTTTTTTTTTTTTTTTTTTTTT PDIG        TELAPSE      283.99 TCPU     7774.15
 CHARGE NORMALIZATION FACTOR   1.00000000
 TOTAL ATOMIC CHARGES:
   4.4712727   4.4755038   4.4682520   4.4635399   4.4684189   4.4638351
   4.4632648   4.4679473   4.4631127   4.4677915   4.4750029   4.4707119
   0.8838541   0.8813254   0.8813778   0.8840707   0.8796559   0.8852391
   0.8853787   0.8797693   0.8828183   0.8792731   0.8795557   0.8829323
   0.8828432   0.8792687   0.8794887   0.8828794   0.8796490   0.8852418
   0.8854269   0.8798323   0.8838457   0.8813078   0.8813490   0.8840214
   5.9418884   5.9207627   6.1763578   6.1525270   6.1516986   6.1755200
   6.1619434   6.1753075   6.1743239   6.1605501   5.9189035   5.9401080
   5.9107563   5.9560614   6.1607609   6.1697137   6.1687629   6.1601821
   6.1608493   6.1697914   6.1687199   6.1600729   5.9543749   5.9090262
   5.9421069   5.9209326   6.1618345   6.1752233   6.1745001   6.1606551
   6.1762562   6.1524383   6.1517101   6.1755099   5.9186694   5.9399594
   8.5014465   8.5090491   8.5016939   8.5093565   8.5171879   8.4924517
   8.5089760   8.5015296   8.4924351   8.5170103   8.5092662   8.5017811
 TTTTTTTTTTTTTTTTTTTTTTTTTTTTTT MOQGAD      TELAPSE      284.11 TCPU     7774.27
 TTTTTTTTTTTTTTTTTTTTTTTTTTTTTT SHELLXN     TELAPSE      314.24 TCPU     8735.80
 TTTTTTTTTTTTTTTTTTTTTTTTTTTTTT MONMO3      TELAPSE      314.92 TCPU     8757.46
 NUMERICALLY INTEGRATED DENSITY    395.9998760687
 TTTTTTTTTTTTTTTTTTTTTTTTTTTTTT NUMDFT      TELAPSE      316.61 TCPU     8811.52
 CYC   7 ETOT(AU) -2.578217340318E+03 DETOT -1.46E-04 tst  2.07E-06 PX  1.71E-03
 TTTTTTTTTTTTTTTTTTTTTTTTTTTTTT DIIS        TELAPSE      316.89 TCPU     8818.50
 DIIS TEST: 0.73401E-04 AT SCF   CYCLE   7 - DIIS ACTIVE - HISTORY:     7 CYCLES
 TTTTTTTTTTTTTTTTTTTTTTTTTTTTTT FDIK        TELAPSE      318.68 TCPU     8875.52
 INSULATING STATE
 TOP OF VALENCE BANDS -    BAND    198; K    3; EIG -2.1338731E-01 AU
 TOP OF VALENCE BANDS -    BAND    198; K    1; EIG -2.1341171E-01 AU
 BOTTOM OF VIRTUAL BANDS - BAND    199; K    1; EIG -9.9602646E-02 AU
 INDIRECT ENERGY BAND GAP:   3.0962 eV
 TTTTTTTTTTTTTTTTTTTTTTTTTTTTTT PDIG        TELAPSE      320.36 TCPU     8882.57
 CHARGE NORMALIZATION FACTOR   1.00000000
 TOTAL ATOMIC CHARGES:
   4.4707036   4.4756815   4.4683085   4.4632737   4.4684758   4.4635709
   4.4635296   4.4684584   4.4633758   4.4683019   4.4756134   4.4706842
   0.8837974   0.8811028   0.8811909   0.8839322   0.8795818   0.8849823
   0.8850855   0.8796351   0.8823777   0.8792161   0.8793939   0.8825342
   0.8824037   0.8792142   0.8793255   0.8824796   0.8795726   0.8849830
   0.8851359   0.8797006   0.8837880   0.8810843   0.8811631   0.8838842
   5.9405036   5.9206735   6.1753422   6.1520953   6.1521156   6.1753055
   6.1612337   6.1754411   6.1754931   6.1612952   5.9215618   5.9413685
   5.9111093   5.9541815   6.1615281   6.1685465   6.1686355   6.1616886
   6.1616034   6.1686061   6.1686031   6.1615918   5.9548831   5.9119061
   5.9407316   5.9208567   6.1611404   6.1753682   6.1756586   6.1613848
   6.1752413   6.1520091   6.1521243   6.1752928   5.9213167   5.9412099
   8.5010834   8.5083219   8.5013338   8.5086306   8.5164742   8.4923991
   8.5083699   8.5011676   8.4924023   8.5165519   8.5086574   8.5014194
 TTTTTTTTTTTTTTTTTTTTTTTTTTTTTT MOQGAD      TELAPSE      320.47 TCPU     8882.69
 TTTTTTTTTTTTTTTTTTTTTTTTTTTTTT SHELLXN     TELAPSE      350.60 TCPU     9844.08
 TTTTTTTTTTTTTTTTTTTTTTTTTTTTTT MONMO3      TELAPSE      351.28 TCPU     9865.71
 NUMERICALLY INTEGRATED DENSITY    395.9998760698
 TTTTTTTTTTTTTTTTTTTTTTTTTTTTTT NUMDFT      TELAPSE      352.97 TCPU     9919.76
 CYC   8 ETOT(AU) -2.578217358580E+03 DETOT -1.83E-05 tst  1.91E-07 PX  6.71E-04
 TTTTTTTTTTTTTTTTTTTTTTTTTTTTTT DIIS        TELAPSE      353.26 TCPU     9926.62
 DIIS TEST: 0.14748E-05 AT SCF   CYCLE   8 - DIIS ACTIVE - HISTORY:     8 CYCLES
 TTTTTTTTTTTTTTTTTTTTTTTTTTTTTT FDIK        TELAPSE      355.07 TCPU     9983.87
 INSULATING STATE
 TOP OF VALENCE BANDS -    BAND    198; K    3; EIG -2.1338758E-01 AU
 TOP OF VALENCE BANDS -    BAND    198; K    1; EIG -2.1341197E-01 AU
 BOTTOM OF VIRTUAL BANDS - BAND    199; K    1; EIG -9.9634878E-02 AU
 INDIRECT ENERGY BAND GAP:   3.0954 eV
 TTTTTTTTTTTTTTTTTTTTTTTTTTTTTT PDIG        TELAPSE      356.73 TCPU     9990.93
 CHARGE NORMALIZATION FACTOR   1.00000000
 TOTAL ATOMIC CHARGES:
   4.4706971   4.4758601   4.4684668   4.4633267   4.4686310   4.4636194
   4.4635413   4.4685869   4.4633919   4.4684337   4.4757713   4.4706585
   0.8837431   0.8810580   0.8811444   0.8838821   0.8795311   0.8849469
   0.8850583   0.8795931   0.8823738   0.8791795   0.8793609   0.8825292
   0.8824008   0.8791781   0.8792916   0.8824739   0.8795242   0.8849479
   0.8851083   0.8796562   0.8837359   0.8810399   0.8811162   0.8838319
   5.9404694   5.9205036   6.1755067   6.1522984   6.1522842   6.1754327
   6.1613837   6.1754275   6.1753492   6.1612757   5.9211442   5.9411094
   5.9108208   5.9541331   6.1614637   6.1687138   6.1687520   6.1615756
   6.1615134   6.1687509   6.1687445   6.1615040   5.9547450   5.9115268
   5.9406651   5.9206560   6.1612818   6.1753524   6.1755170   6.1613738
   6.1753816   6.1521871   6.1523176   6.1754448   5.9209293   5.9409833
   8.5012070   8.5084607   8.5014671   8.5087804   8.5164598   8.4923741
   8.5085142   8.5013049   8.4923503   8.5164928   8.5088136   8.5015670
 TTTTTTTTTTTTTTTTTTTTTTTTTTTTTT MOQGAD      TELAPSE      356.85 TCPU     9991.04
 TTTTTTTTTTTTTTTTTTTTTTTTTTTTTT SHELLXN     TELAPSE      387.00 TCPU    10953.08
 TTTTTTTTTTTTTTTTTTTTTTTTTTTTTT MONMO3      TELAPSE      387.68 TCPU    10974.71
 NUMERICALLY INTEGRATED DENSITY    395.9998760661
 TTTTTTTTTTTTTTTTTTTTTTTTTTTTTT NUMDFT      TELAPSE      389.37 TCPU    11028.74
 CYC   9 ETOT(AU) -2.578217358615E+03 DETOT -3.51E-08 tst  1.64E-09 PX  1.00E-04
 TTTTTTTTTTTTTTTTTTTTTTTTTTTTTT DIIS        TELAPSE      389.69 TCPU    11035.78
 DIIS TEST: 0.88487E-07 AT SCF   CYCLE   9 - DIIS ACTIVE - HISTORY:     9 CYCLES
 TTTTTTTTTTTTTTTTTTTTTTTTTTTTTT FDIK        TELAPSE      391.49 TCPU    11092.85
 INSULATING STATE
 TOP OF VALENCE BANDS -    BAND    198; K    3; EIG -2.1338883E-01 AU
 TOP OF VALENCE BANDS -    BAND    198; K    1; EIG -2.1341322E-01 AU
 BOTTOM OF VIRTUAL BANDS - BAND    199; K    1; EIG -9.9630539E-02 AU
 INDIRECT ENERGY BAND GAP:   3.0955 eV
 TTTTTTTTTTTTTTTTTTTTTTTTTTTTTT PDIG        TELAPSE      393.16 TCPU    11099.90
 CHARGE NORMALIZATION FACTOR   1.00000000
 TOTAL ATOMIC CHARGES:
   4.4707295   4.4758051   4.4684096   4.4633125   4.4685771   4.4636101
   4.4635391   4.4685335   4.4633849   4.4683769   4.4757118   4.4706762
   0.8837413   0.8810659   0.8811529   0.8838828   0.8795410   0.8849523
   0.8850566   0.8795975   0.8823738   0.8791747   0.8793585   0.8825268
   0.8823989   0.8791716   0.8792911   0.8824733   0.8795320   0.8849537
   0.8851062   0.8796627   0.8837315   0.8810474   0.8811251   0.8838352
   5.9404429   5.9204929   6.1755184   6.1522515   6.1522102   6.1754254
   6.1613379   6.1754036   6.1754127   6.1613328   5.9212260   5.9411533
   5.9109331   5.9541765   6.1614466   6.1687314   6.1687612   6.1615692
   6.1615342   6.1688038   6.1687173   6.1614599   5.9547155   5.9115581
   5.9406767   5.9206802   6.1612417   6.1753274   6.1755817   6.1614254
   6.1754242   6.1521720   6.1522120   6.1754062   5.9209764   5.9409889
   8.5011845   8.5084535   8.5014307   8.5087583   8.5165354   8.4924175
   8.5084893   8.5012647   8.4924281   8.5166059   8.5087735   8.5015127
 TTTTTTTTTTTTTTTTTTTTTTTTTTTTTT MOQGAD      TELAPSE      393.27 TCPU    11100.01
 TTTTTTTTTTTTTTTTTTTTTTTTTTTTTT SHELLXN     TELAPSE      423.41 TCPU    12061.58
 +++ ENERGIES IN A.U. +++
 ::: EXT EL-POLE                                  -3.0589645505634E+03
 ::: EXT EL-SPHEROPOLE                             3.4698571075278E+01
 ::: BIELET ZONE E-E                               4.9967311896118E+03
 ::: TOTAL E-E                                     1.9724652101237E+03
 ::: TOTAL E-N + N-E                              -7.5910436651996E+03
 ::: TOTAL N-N                                     7.4784471545934E+02
 ::: KINETIC ENERGY                                2.5599917047358E+03
 ::: PSEUDO TOTAL   ENERGY                        -2.3107420348807E+03
 ::: VIRIAL COEFFICIENT                            1.0511729203811E+00
 TTTTTTTTTTTTTTTTTTTTTTTTTTTTTT MONMO3      TELAPSE      424.08 TCPU    12083.23
 NUMERICALLY INTEGRATED DENSITY    395.9998760649
 EXCHANGE ENERGY: -0.252043449339E+03  CORRELATION ENERGY: -0.154318744418E+02
 TTTTTTTTTTTTTTTTTTTTTTTTTTTTTT NUMDFT      TELAPSE      425.78 TCPU    12137.30
 CYC  10 ETOT(AU) -2.578217358662E+03 DETOT -4.66E-08 tst  9.91E-11 PX  1.00E-04

 == SCF ENDED - CONVERGENCE ON ENERGY      E(AU) -2.5782173586617E+03 CYCLES  10


 ENERGY EXPRESSION=HARTREE+FOCK EXCH*0.00000+(HSESOL     EXCH)*1.00000+PBESOL     CORR


 TOTAL ENERGY(DFT)(AU)( 10) -2.5782173586617E+03 DE-4.7E-08 tester 9.9E-11
 TTTTTTTTTTTTTTTTTTTTTTTTTTTTTT EDFT        TELAPSE      425.78 TCPU    12137.31
 
 INFORMATION **** DFTD3 ENERGY **** CALCULATE DFTD3 ENERGY

           DFT-D V3(BJ)
 DF                                         hsesol3c  
 parameters
 s6       :    1.0000
 s8       :    0.0000
 a1       :    0.5196
 a2       :    4.9385
 k1 k3    :   16.0000   -4.0000
 Cutoff   :   50.2022
 CN-Cutoff:   21.1671
 ABC-Cutoff:   21.1671
 
 Edisp /kcal,au:   -65.0404 -0.10364850

 E6    /kcal :   -69.8264
 E8    /kcal :     0.0000
 E6(ABC) "   :   4.785946
 
 INFORMATION **** DFTD3 ENERGY **** NORMAL TERMINATION OF DFTD3 MODULE

 GCP ENERGY CALCULATION
  level        hsesol3c            basis:hsesol3c
  Nbf            948
  Atoms           84

  Parameters: 
  sigma     1.0000
  eta       1.4281
  alpha     0.2936
  beta      1.9467

  dmp_scal      4.0000
  dmp_exp       6.0000
 cutoffs: 
   distance [bohr] 60.0
   noise    [a.u.] 2.2E-16
 SR-damping   T
 ** gCP correction **
  Egcp:        0.1692557511 / (a.u.) ||     106.2096 / (kcal/mol)
 INFORMATION **** GCP **** NORMAL TERMINATION OF GCP MODULE

 *******************************************************************************

 DFT-D3-GCP DISPERSION AND COUNTERPOISE CORRECTION

 D3 DISPERSION ENERGY (AU)      -1.0364849932620E-01
 GCP ENERGY (AU)                 1.6925575106689E-01
 TOTAL ENERGY + DISP + GCP (AU) -2.5781517514099E+03

 *******************************************************************************

 EIGENVECTORS IN FORTRAN UNIT  8
 TTTTTTTTTTTTTTTTTTTTTTTTTTTTTT END         TELAPSE      429.39 TCPU    12146.82
 EEEEEEEEEE TERMINATION  DATE 19 02 2026 TIME 20:03:29.8
