 Default number of threads is:           32

         
 *******************************************************************************
 *                                                                             *
 *                               CRYSTAL23                                     *
 *                      public : 1.0.1 - October 2022                          *
 *                       HTTP://WWW.CRYSTAL.UNITO.IT                           *
 *                                                                             *
 *                              MAIN AUTHORS                                   *
 *                                                                             *
 *  R. DOVESI(1,11), V.R. SAUNDERS(2), C. ROETTI(1,11), R. ORLANDO(1,11),      *
 *  C.M. ZICOVICH-WILSON(1,3), F. PASCALE(4), B. CIVALLERI(1,11),              *
 *  K. DOLL(5), N.M. HARRISON(6), I.J. BUSH(7), Ph. D'ARCO(8),                 *
 *  M. LLUNELL(9), M. CAUSA'(10), Y. NOEL(8), L. MASCHIO(1,11), A. ERBA(1,11)  *
 *  M. RE'RAT(14), S. CASASSA(1,11), B.G. SEARLE(2), J.K. DESMARAIS(1)         *
 *                                                                             *
 *        CONTRIBUTIONS TO THE CODE HAVE ALSO BEEN GIVEN BY                    *
 *                                                                             *
 *  M. FERRABONE(1,11), M. DE LA PIERRE(1,11), M. FERRERO(1,11),               *
 *  J. BAIMA(1,11), E. ALBANESE(1,11), M.F. PEINTINGER(12), R. BAST(13),       *
 *  B. KIRTMAN(15), V. LACIVITA(1,11), R. DEMICHELIS(1,16)                     *
 *  G. BRANDEBURG(17), S. SALUSTRO(1,11), G. SANSONE(1,11)                     *
 *  M.T. RUGGIERO(18), L.E. DAGA(1), L. DONA'(1), A. COSSARD(1)                *
 *                                                                             *
 * (1) THEORETICAL CHEMISTRY GROUP - UNIVERSITA' DI TORINO - TORINO (ITALY)    *
 * (2) SCIENTIFIC COMPUTING DEPARTMENT - STFC DARESBURY (UK)                   *
 * (3) UNIVERSIDAD AUTONOMA DEL ESTADO DE MORELOS - CUERNAVACA (MEXICO)        *
 * (4) UNIVERSITE' DE LORRAINE - NANCY (FRANCE)                                *
 * (5) UNIVERSITAET STUTTGART- STUTTGART (GERMANY)                             *
 * (6) IMPERIAL COLLEGE - LONDON (UK)                                          *
 * (7) SCIENTIFIC COMPUTING DEPARTMENT - STFC RAL (UK)                         *
 * (8) UPMC - SORBONNE UNIVERSITES - PARIS (FRANCE)                            *
 * (9) UNIVERSIDAD DE BARCELONA - BARCELONA (SPAIN)                            *
 *(10) UNIVERSITA' DI NAPOLI "FEDERICO II" - NAPOLI (ITALY)                    *
 *(11) NIS - NANOSTRUCTURED INTERFACES AND SURFACES - TORINO (ITALY)           *
 *(12) MPI FUER CHEMISCHE ENERGIEKONVERSION - MUELHEIM AN DER RUHR (GERMANY)   *
 *(13) UNIVERSITY OF TROMSO - TROMSO (NORWAY)                                  *
 *(14) UNIVERSITE' DE PAU ET DES PAYS DE L'ADOUR - PAU (FRANCE)                *
 *(15) UNIVERSITY OF CALIFORNIA SANTA BARBARA - SANTA BARBARA (USA)            *
 *(16) CURTIN UNIVERSITY - PERTH (AUSTRALIA)                                   *
 *(17) UNIVERSITY COLLEGE LONDON - LONDON (UK)                                 *
 *(18) UNIVERSITY OF VERMONT - BURLINGTON (USA)                                *
 *                                                                             *
 *******************************************************************************
 EEEEEEEEEE STARTING  DATE 02 12 2025 TIME 08:03:53.3
 COF-5_z40_inc_L040                                                              

 CRYSTAL CALCULATION
 (INPUT ACCORDING TO THE INTERNATIONAL TABLES FOR X-RAY CRYSTALLOGRAPHY)
 CRYSTAL FAMILY                       :  TRICLINIC   
 CRYSTAL CLASS  (GROTH - 1921)        :  TRICLINIC PEDIAL                     

 SPACE GROUP (NONCENTROSYMMETRIC)     :  P 1             

 LATTICE PARAMETERS  (ANGSTROMS AND DEGREES) - CONVENTIONAL CELL
        A           B           C        ALPHA        BETA       GAMMA
    15.02070    15.04439     5.65685    52.26548    89.99949   120.05310


 NUMBER OF IRREDUCIBLE ATOMS IN THE CONVENTIONAL CELL:   42

 INPUT COORDINATES

 ATOM AT. N.              COORDINATES
   1   5     5.384791900000E-01  7.429029000000E-02  5.006403700000E-01
   2   5     6.972570500000E-01  2.333139400000E-01  5.006503500000E-01
   3   5     5.382456600000E-01  2.334405700000E-01  4.992204200000E-01
   4   5     1.509139200000E-01  4.591013500000E-01  5.054352400000E-01
   5   5     3.088654600000E-01  4.573583700000E-01  5.094790300000E-01
   6   5     3.100571500000E-01  6.185293400000E-01  5.035135400000E-01
   7   1     8.266835500000E-01  1.545663500000E-01  5.045386600000E-01
   8   1     2.291723000000E-02  5.400179100000E-01  4.929486300000E-01
   9   1     8.285562500000E-01  4.427609100000E-01  4.928103400000E-01
  10   1     2.118940000000E-02  2.519126300000E-01  5.041072500000E-01
  11   1     5.167100500000E-01  7.483419000000E-01  5.042293100000E-01
  12   1     3.320570100000E-01 -5.328743000000E-02  4.945808200000E-01
  13   1     2.335153700000E-01  7.525993000000E-01  4.958876300000E-01
  14   1     6.150984000000E-01 -5.739634000000E-02  5.023680300000E-01
  15   1     5.173004400000E-01  5.376572700000E-01  4.977850500000E-01
  16   1     3.287139700000E-01  1.534998000000E-01  5.060679700000E-01
  17   1     2.314061400000E-01  2.495333400000E-01  5.057031000000E-01
  18   1     6.149480300000E-01  4.415113000000E-01  4.987184800000E-01
  19   6     8.165880700000E-01  2.928198200000E-01  5.004003700000E-01
  20   6     8.708401800000E-01  2.391008500000E-01  5.021664100000E-01
  21   6    -2.115777000000E-02  4.554008600000E-01  4.957736800000E-01
  22   6     8.718118000000E-01  4.017723800000E-01  4.961108300000E-01
  23   6    -2.203001000000E-02  2.928635300000E-01  5.015227200000E-01
  24   6     3.280768000000E-02  4.012062600000E-01  4.993395100000E-01
  25   6     3.692716400000E-01  7.384066400000E-01  5.018817900000E-01
  26   6     4.770847800000E-01  7.927688300000E-01  5.022719600000E-01
  27   6     3.714382500000E-01 -9.806536000000E-02  4.969957300000E-01
  28   6     3.171475800000E-01  7.946358000000E-01  4.981143800000E-01
  29   6     5.313895500000E-01 -9.992312000000E-02  5.008345900000E-01
  30   6     4.789603200000E-01 -4.443096000000E-02  4.992103800000E-01
  31   6     3.691650600000E-01  3.999368500000E-01  4.999815700000E-01
  32   6     4.770992200000E-01  4.533612400000E-01  4.994301100000E-01
  33   6     3.695646900000E-01  2.379423200000E-01  5.039535200000E-01
  34   6     3.157569000000E-01  2.911746600000E-01  5.033455900000E-01
  35   6     5.307682800000E-01  4.000084800000E-01  5.003684400000E-01
  36   6     4.778223400000E-01  2.919037100000E-01  5.016102600000E-01
  37   8     4.855211700000E-01  1.274221500000E-01  4.996102800000E-01
  38   8     6.442199300000E-01  1.268009100000E-01  5.026002400000E-01
  39   8     6.445247300000E-01  2.869330100000E-01  4.980806500000E-01
  40   8     2.041667600000E-01  5.657888100000E-01  5.027469100000E-01
  41   8     2.027733300000E-01  4.044271800000E-01  5.102344500000E-01
  42   8     3.625944400000E-01  5.647399200000E-01  5.052185700000E-01

 *******************************************************************************

 << INFORMATION >>: FROM NOW ON, ALL COORDINATES REFER TO THE PRIMITIVE CELL

 *******************************************************************************

 LATTICE PARAMETERS  (ANGSTROMS AND DEGREES) - PRIMITIVE CELL
       A          B          C        ALPHA      BETA     GAMMA        VOLUME
   15.02070   15.04439    5.65685    52.26548  89.99949 120.05310    782.435349

 COORDINATES OF THE EQUIVALENT ATOMS (FRACTIONAL UNITS)

 N. ATOM EQUIV AT. N.          X                  Y                  Z

   1   1   1    5 B    -4.61520810000E-01  7.42902900000E-02 -4.99359630000E-01

   2   2   1    5 B    -3.02742950000E-01  2.33313940000E-01 -4.99349650000E-01

   3   3   1    5 B    -4.61754340000E-01  2.33440570000E-01  4.99220420000E-01

   4   4   1    5 B     1.50913920000E-01  4.59101350000E-01 -4.94564760000E-01

   5   5   1    5 B     3.08865460000E-01  4.57358370000E-01 -4.90520970000E-01

   6   6   1    5 B     3.10057150000E-01 -3.81470660000E-01 -4.96486460000E-01

   7   7   1    1 H    -1.73316450000E-01  1.54566350000E-01 -4.95461340000E-01

   8   8   1    1 H     2.29172300000E-02 -4.59982090000E-01  4.92948630000E-01

   9   9   1    1 H    -1.71443750000E-01  4.42760910000E-01  4.92810340000E-01

  10  10   1    1 H     2.11894000000E-02  2.51912630000E-01 -4.95892750000E-01

  11  11   1    1 H    -4.83289950000E-01 -2.51658100000E-01 -4.95770690000E-01

  12  12   1    1 H     3.32057010000E-01 -5.32874300000E-02  4.94580820000E-01

  13  13   1    1 H     2.33515370000E-01 -2.47400700000E-01  4.95887630000E-01

  14  14   1    1 H    -3.84901600000E-01 -5.73963400000E-02 -4.97631970000E-01

  15  15   1    1 H    -4.82699560000E-01 -4.62342730000E-01  4.97785050000E-01

  16  16   1    1 H     3.28713970000E-01  1.53499800000E-01 -4.93932030000E-01

  17  17   1    1 H     2.31406140000E-01  2.49533340000E-01 -4.94296900000E-01

  18  18   1    1 H    -3.85051970000E-01  4.41511300000E-01  4.98718480000E-01

  19  19   1    6 C    -1.83411930000E-01  2.92819820000E-01 -4.99599630000E-01

  20  20   1    6 C    -1.29159820000E-01  2.39100850000E-01 -4.97833590000E-01

  21  21   1    6 C    -2.11577700000E-02  4.55400860000E-01  4.95773680000E-01

  22  22   1    6 C    -1.28188200000E-01  4.01772380000E-01  4.96110830000E-01

  23  23   1    6 C    -2.20300100000E-02  2.92863530000E-01 -4.98477280000E-01

  24  24   1    6 C     3.28076800000E-02  4.01206260000E-01  4.99339510000E-01

  25  25   1    6 C     3.69271640000E-01 -2.61593360000E-01 -4.98118210000E-01

  26  26   1    6 C     4.77084780000E-01 -2.07231170000E-01 -4.97728040000E-01

  27  27   1    6 C     3.71438250000E-01 -9.80653600000E-02  4.96995730000E-01

  28  28   1    6 C     3.17147580000E-01 -2.05364200000E-01  4.98114380000E-01

  29  29   1    6 C    -4.68610450000E-01 -9.99231200000E-02 -4.99165410000E-01

  30  30   1    6 C     4.78960320000E-01 -4.44309600000E-02  4.99210380000E-01

  31  31   1    6 C     3.69165060000E-01  3.99936850000E-01  4.99981570000E-01

  32  32   1    6 C     4.77099220000E-01  4.53361240000E-01  4.99430110000E-01

  33  33   1    6 C     3.69564690000E-01  2.37942320000E-01 -4.96046480000E-01

  34  34   1    6 C     3.15756900000E-01  2.91174660000E-01 -4.96654410000E-01

  35  35   1    6 C    -4.69231720000E-01  4.00008480000E-01 -4.99631560000E-01

  36  36   1    6 C     4.77822340000E-01  2.91903710000E-01 -4.98389740000E-01

  37  37   1    8 O     4.85521170000E-01  1.27422150000E-01  4.99610280000E-01

  38  38   1    8 O    -3.55780070000E-01  1.26800910000E-01 -4.97399760000E-01

  39  39   1    8 O    -3.55475270000E-01  2.86933010000E-01  4.98080650000E-01

  40  40   1    8 O     2.04166760000E-01 -4.34211190000E-01 -4.97253090000E-01

  41  41   1    8 O     2.02773330000E-01  4.04427180000E-01 -4.89765550000E-01

  42  42   1    8 O     3.62594440000E-01 -4.35260080000E-01 -4.94781430000E-01

 NUMBER OF SYMMETRY OPERATORS         :    1
 *******************************************************************************
 * GEOMETRY EDITING - INPUT COORDINATES ARE GIVEN IN ANGSTROM         
 *******************************************************************************

 GCALCO - MAX INDICES DIRECT LATTICE VECTOR     9    12    28
 NO.OF VECTORS CREATED 6999 STARS 3500 RMAX   206.32103 BOHR

 GEOMETRY FOR WAVE FUNCTION - DIMENSIONALITY OF THE SYSTEM    3
 (NON PERIODIC DIRECTION: LATTICE PARAMETER FORMALLY SET TO 500)
 *******************************************************************************
 LATTICE PARAMETERS (ANGSTROMS AND DEGREES) - BOHR = 0.5291772083 ANGSTROM
 PRIMITIVE CELL - CENTRING CODE 1/0 VOLUME=   782.435349 - DENSITY  0.828 g/cm^3
         A              B              C           ALPHA      BETA       GAMMA 
    15.02070100    15.04438700     5.65685400    52.265475  89.999495 120.053104
 *******************************************************************************
 ATOMS IN THE ASYMMETRIC UNIT   42 - ATOMS IN THE UNIT CELL:   42
     ATOM                 X/A                 Y/B                 Z/C    
 *******************************************************************************
      1 T   5 B    -4.615208100000E-01  7.429029000000E-02 -4.993596300000E-01
      2 T   5 B    -3.027429500000E-01  2.333139400000E-01 -4.993496500000E-01
      3 T   5 B    -4.617543400000E-01  2.334405700000E-01  4.992204200000E-01
      4 T   5 B     1.509139200000E-01  4.591013500000E-01 -4.945647600000E-01
      5 T   5 B     3.088654600000E-01  4.573583700000E-01 -4.905209700000E-01
      6 T   5 B     3.100571500000E-01 -3.814706600000E-01 -4.964864600000E-01
      7 T   1 H    -1.733164500000E-01  1.545663500000E-01 -4.954613400000E-01
      8 T   1 H     2.291723000000E-02 -4.599820900000E-01  4.929486300000E-01
      9 T   1 H    -1.714437500000E-01  4.427609100000E-01  4.928103400000E-01
     10 T   1 H     2.118940000000E-02  2.519126300000E-01 -4.958927500000E-01
     11 T   1 H    -4.832899500000E-01 -2.516581000000E-01 -4.957706900000E-01
     12 T   1 H     3.320570100000E-01 -5.328743000000E-02  4.945808200000E-01
     13 T   1 H     2.335153700000E-01 -2.474007000000E-01  4.958876300000E-01
     14 T   1 H    -3.849016000000E-01 -5.739634000000E-02 -4.976319700000E-01
     15 T   1 H    -4.826995600000E-01 -4.623427300000E-01  4.977850500000E-01
     16 T   1 H     3.287139700000E-01  1.534998000000E-01 -4.939320300000E-01
     17 T   1 H     2.314061400000E-01  2.495333400000E-01 -4.942969000000E-01
     18 T   1 H    -3.850519700000E-01  4.415113000000E-01  4.987184800000E-01
     19 T   6 C    -1.834119300000E-01  2.928198200000E-01 -4.995996300000E-01
     20 T   6 C    -1.291598200000E-01  2.391008500000E-01 -4.978335900000E-01
     21 T   6 C    -2.115777000000E-02  4.554008600000E-01  4.957736800000E-01
     22 T   6 C    -1.281882000000E-01  4.017723800000E-01  4.961108300000E-01
     23 T   6 C    -2.203001000000E-02  2.928635300000E-01 -4.984772800000E-01
     24 T   6 C     3.280768000000E-02  4.012062600000E-01  4.993395100000E-01
     25 T   6 C     3.692716400000E-01 -2.615933600000E-01 -4.981182100000E-01
     26 T   6 C     4.770847800000E-01 -2.072311700000E-01 -4.977280400000E-01
     27 T   6 C     3.714382500000E-01 -9.806536000000E-02  4.969957300000E-01
     28 T   6 C     3.171475800000E-01 -2.053642000000E-01  4.981143800000E-01
     29 T   6 C    -4.686104500000E-01 -9.992312000000E-02 -4.991654100000E-01
     30 T   6 C     4.789603200000E-01 -4.443096000000E-02  4.992103800000E-01
     31 T   6 C     3.691650600000E-01  3.999368500000E-01  4.999815700000E-01
     32 T   6 C     4.770992200000E-01  4.533612400000E-01  4.994301100000E-01
     33 T   6 C     3.695646900000E-01  2.379423200000E-01 -4.960464800000E-01
     34 T   6 C     3.157569000000E-01  2.911746600000E-01 -4.966544100000E-01
     35 T   6 C    -4.692317200000E-01  4.000084800000E-01 -4.996315600000E-01
     36 T   6 C     4.778223400000E-01  2.919037100000E-01 -4.983897400000E-01
     37 T   8 O     4.855211700000E-01  1.274221500000E-01  4.996102800000E-01
     38 T   8 O    -3.557800700000E-01  1.268009100000E-01 -4.973997600000E-01
     39 T   8 O    -3.554752700000E-01  2.869330100000E-01  4.980806500000E-01
     40 T   8 O     2.041667600000E-01 -4.342111900000E-01 -4.972530900000E-01
     41 T   8 O     2.027733300000E-01  4.044271800000E-01 -4.897655500000E-01
     42 T   8 O     3.625944400000E-01 -4.352600800000E-01 -4.947814300000E-01

 T = ATOM BELONGING TO THE ASYMMETRIC UNIT

 ****    1 SYMMOPS - TRANSLATORS IN FRACTIONAL UNITS
 **** MATRICES AND TRANSLATORS IN THE CRYSTALLOGRAPHIC REFERENCE FRAME
   V INV                    ROTATION MATRICES                   TRANSLATORS
   1   1  1.00  0.00  0.00  0.00  1.00  0.00  0.00 -0.00  1.00  0.00  0.00  0.00

 DIRECT LATTICE VECTORS CARTESIAN COMPONENTS (ANGSTROM)
          X                    Y                    Z
   0.130013421718E+02  -0.752240388864E+01   0.000000000000E+00
   0.000000000000E+00   0.150443870000E+02   0.000000000000E+00
   0.200313383402E+01   0.346201558173E+01   0.400023750947E+01


 CARTESIAN COORDINATES - PRIMITIVE CELL
 *******************************************************************************
 *      ATOM          X(ANGSTROM)         Y(ANGSTROM)         Z(ANGSTROM)
 *******************************************************************************
    1     5 B    -7.000674140400E+00  2.860606988989E+00 -1.997557122642E+00
    2     5 B    -4.936328861963E+00  4.058663681162E+00 -1.997517200272E+00
    3     5 B     5.994787478048E+00 -2.270637678220E+00 -2.003237259893E+00
    4     5 B     9.714041085342E-01  4.059472017670E+00 -1.978376503815E+00
    5     5 B     3.033086379200E+00  2.859074337293E+00 -1.962200383376E+00
    6     5 B     1.033496439778E+00  1.792160208586E+00 -5.986301269708E+00
    7     1 H    -3.245821844049E+00  1.913817444798E+00 -1.981963036761E+00
    8     1 H     1.285396828046E+00 -5.385945397045E+00  1.971911599969E+00
    9     1 H    -1.241833791154E+00 -5.387534313887E+00  1.971358407123E+00
   10     1 H    -7.178489057551E-01  1.913687443583E+00 -1.983688779225E+00
   11     1 H    -5.273379217164E+00  1.595110079122E+00  2.017036999237E+00
   12     1 H     5.307898381745E+00 -1.587297157166E+00  1.978440747629E+00
   13     1 H     4.029342517263E+00 -3.761818100369E+00  1.983668298009E+00
   14     1 H    -3.997927006041E+00  3.771098488864E+00  2.009591437165E+00
   15     1 H    -5.278612070001E+00 -1.601262310115E+00  1.991258428664E+00
   16     1 H     3.284310839614E+00 -1.873409234732E+00 -1.975845433535E+00
   17     1 H     2.018447562349E+00  3.020821191702E-01 -1.977305000196E+00
   18     1 H    -4.007192554947E+00 -3.779032552813E+00  1.994992370363E+00
   19     6 C    -3.385366182632E+00  4.055371605119E+00 -1.998517179644E+00
   20     6 C    -2.676478322505E+00  2.845210405965E+00 -1.991452600193E+00
   21     6 C    -1.285112208957E+00  5.264744692738E+00 -2.017025038527E+00
   22     6 C    -2.675976095606E+00  5.264230426784E+00 -2.015676358451E+00
   23     6 C    -1.284936403115E+00  2.845934805899E+00 -1.994027513075E+00
   24     6 C    -5.763460933334E-01  4.055815205117E+00 -2.002760871608E+00
   25     6 C     1.800095672161E+00  3.144556248535E+00 -5.992828657265E+00
   26     6 C    -5.792481745093E+00  2.554786916201E+00  2.009207134348E+00
   27     6 C     5.824744746061E+00 -2.548834802012E+00  1.988100961193E+00
   28     6 C     5.121133974319E+00 -3.750810944767E+00  1.992575826883E+00
   29     6 C    -5.089326093243E+00  3.755692138260E+00  2.003457312959E+00
   30     6 C    -5.774229962280E+00  4.979308472069E+00  1.996960087194E+00
   31     6 C     3.798037428157E+00  1.508724468254E+00 -2.000192479113E+00
   32     6 C     5.200221726156E+00  1.498628158639E+00 -2.002398450090E+00
   33     6 C     3.811189501962E+00 -9.176391584252E-01 -1.984303735737E+00
   34     6 C     3.110398247513E+00  2.858680310530E-01 -1.986735600127E+00
   35     6 C     5.899871139824E+00  2.954967571179E-01 -1.998644907228E+00
   36     6 C     5.213990388936E+00 -9.282932941746E-01 -1.993677332284E+00
   37     8 O     5.310079284483E+00 -3.467655207831E+00 -2.001677727298E+00
   38     8 O    -5.621976716257E+00  2.861957624593E+00 -1.989717177154E+00
   39     8 O    -1.620799582770E+00 -2.867248648133E+00  5.992678408344E+00
   40     8 O     1.658377418213E+00  5.254623042911E+00 -1.989130462319E+00
   41     8 O     1.655259502698E+00  2.863440157639E+00 -1.959178523957E+00
   42     8 O     3.723100961145E+00  4.055643065162E+00 -1.979243235276E+00

 *******************************************************************************
 STARTING BASIS SET HANDLING 
 *******************************************************************************

 Loading internal basis set: SOLDEF2MSVP         

 Please cite in your publication:
 L. Dona', J. G. Brandenburg and B. Civalleri, J. Chem. Phys., 151, 121101 (2019
 )                                                                              
                                                                                
                    

 *******************************************************************************
 LOCAL ATOMIC FUNCTIONS BASIS SET
 *******************************************************************************
   ATOM   X(AU)   Y(AU)   Z(AU)  N. TYPE  EXPONENT  S COEF   P COEF   D/F/G COEF
 *******************************************************************************
   1 B  -13.229   5.406  -3.775
                                  1 S  
                                         2.410E+03 1.755E-03 0.000E+00 0.000E+00
                                         3.619E+02 1.344E-02 0.000E+00 0.000E+00
                                         8.231E+01 6.637E-02 0.000E+00 0.000E+00
                                         2.311E+01 2.303E-01 0.000E+00 0.000E+00
                                         7.252E+00 5.150E-01 0.000E+00 0.000E+00
                                  2 S  
                                         2.367E+00 1.000E+00 0.000E+00 0.000E+00
                                  3 S  
                                         5.533E-01 1.000E+00 0.000E+00 0.000E+00
                                  4 S  
                                         1.716E-01 1.000E+00 0.000E+00 0.000E+00
                           5-     7 P  
                                         6.002E+00 0.000E+00-3.555E-02 0.000E+00
                                         1.240E+00 0.000E+00-1.983E-01 0.000E+00
                                         3.367E-01 0.000E+00-5.048E-01 0.000E+00
                           8-    10 P  
                                         1.256E-01 0.000E+00 1.000E+00 0.000E+00
                          11-    15 D  
                                         8.880E-01 0.000E+00 0.000E+00 1.000E+00
   2 B   -9.328   7.670  -3.775
   3 B   11.329  -4.291  -3.786
   4 B    1.836   7.671  -3.739
   5 B    5.732   5.403  -3.708
   6 B    1.953   3.387 -11.312
   7 H   -6.134   3.617  -3.745
                                 91 S  
                                         1.874E+01 1.968E-02 0.000E+00 0.000E+00
                                         2.826E+00 1.380E-01 0.000E+00 0.000E+00
                                         6.401E-01 4.783E-01 0.000E+00 0.000E+00
                                 92 S  
                                         1.756E-01 1.000E+00 0.000E+00 0.000E+00
   8 H    2.429 -10.178   3.726
   9 H   -2.347 -10.181   3.725
  10 H   -1.357   3.616  -3.749
  11 H   -9.965   3.014   3.812
  12 H   10.030  -3.000   3.739
  13 H    7.614  -7.109   3.749
  14 H   -7.555   7.126   3.798
  15 H   -9.975  -3.026   3.763
  16 H    6.206  -3.540  -3.734
  17 H    3.814   0.571  -3.737
  18 H   -7.572  -7.141   3.770
  19 C   -6.397   7.664  -3.777
                                115 S  
                                         3.624E+03 1.634E-03 0.000E+00 0.000E+00
                                         5.440E+02 1.252E-02 0.000E+00 0.000E+00
                                         1.237E+02 6.211E-02 0.000E+00 0.000E+00
                                         3.476E+01 2.182E-01 0.000E+00 0.000E+00
                                         1.093E+01 4.980E-01 0.000E+00 0.000E+00
                                116 S  
                                         3.574E+00 1.000E+00 0.000E+00 0.000E+00
                                117 S  
                                         7.742E-01 1.000E+00 0.000E+00 0.000E+00
                                118 S  
                                         2.330E-01 1.000E+00 0.000E+00 0.000E+00
                         119-   121 P  
                                         9.443E+00 0.000E+00 3.790E-02 0.000E+00
                                         2.002E+00 0.000E+00 2.082E-01 0.000E+00
                                         5.463E-01 0.000E+00 5.047E-01 0.000E+00
                         122-   124 P  
                                         1.820E-01 0.000E+00 1.000E+00 0.000E+00
                         125-   129 D  
                                         8.880E-01 0.000E+00 0.000E+00 1.000E+00
  20 C   -5.058   5.377  -3.763
  21 C   -2.429   9.949  -3.812
  22 C   -5.057   9.948  -3.809
  23 C   -2.428   5.378  -3.768
  24 C   -1.089   7.664  -3.785
  25 C    3.402   5.942 -11.325
  26 C  -10.946   4.828   3.797
  27 C   11.007  -4.817   3.757
  28 C    9.678  -7.088   3.765
  29 C   -9.617   7.097   3.786
  30 C  -10.912   9.410   3.774
  31 C    7.177   2.851  -3.780
  32 C    9.827   2.832  -3.784
  33 C    7.202  -1.734  -3.750
  34 C    5.878   0.540  -3.754
  35 C   11.149   0.558  -3.777
  36 C    9.853  -1.754  -3.768
  37 O   10.035  -6.553  -3.783
                                385 S  
                                         6.773E+03 1.727E-03 0.000E+00 0.000E+00
                                         1.017E+03 1.325E-02 0.000E+00 0.000E+00
                                         2.313E+02 6.603E-02 0.000E+00 0.000E+00
                                         6.501E+01 2.353E-01 0.000E+00 0.000E+00
                                         2.050E+01 5.498E-01 0.000E+00 0.000E+00
                                386 S  
                                         6.716E+00 1.000E+00 0.000E+00 0.000E+00
                                387 S  
                                         1.147E+00 1.000E+00 0.000E+00 0.000E+00
                                388 S  
                                         3.342E-01 1.000E+00 0.000E+00 0.000E+00
                         389-   391 P  
                                         1.769E+01 0.000E+00 4.359E-02 0.000E+00
                                         3.854E+00 0.000E+00 2.318E-01 0.000E+00
                                         1.047E+00 0.000E+00 5.146E-01 0.000E+00
                         392-   394 P  
                                         2.759E-01 0.000E+00 1.000E+00 0.000E+00
                         395-   399 D  
                                         8.000E-01 0.000E+00 0.000E+00 1.000E+00
  38 O  -10.624   5.408  -3.760
  39 O   -3.063  -5.418  11.325
  40 O    3.134   9.930  -3.759
  41 O    3.128   5.411  -3.702
  42 O    7.036   7.664  -3.740

 *******************************************************************************
 FINISHED BASIS SET HANDLING 
 *******************************************************************************

 INFORMATION **** SET_MPP **** PCRYSTAL CALCULATION
 INFORMATION **** READM2 **** NEW DEFAULT: FOCK/KS MATRIX MIXING SET TO 30 %
 INFORMATION **** READM2 **** NEW DEFAULT: FULL DIRECT SCF MODE
 INFORMATION **** READM2 **** NEW DEFAULT: COULOMB BIPOLAR BUFFER SET TO 32 Mb
 INFORMATION **** READM2 **** NEW DEFAULT: EXCHANGE BIPOLAR BUFFER SET TO 32 Mb

 *******************************************************************************
 NEW DEFAULT: DFT INTEGRATION GRID INCREASED TO XLGRID
 NEW DEFAULT: DIIS ACCELERATOR ACTIVE
 USE KEYWORD NODIIS TO TURN IT OFF
 *******************************************************************************

 WARNING **** RDDFTP **** HSEsol-HJS ACTIVE
 RANGE SEPARATION - OMEGA:   0.110000000000000     
 WARNING **** RDDFTP **** HSEsol-3c has to be combined with sol-def2-mSVP basis set
 *******************************************************************************
 N. OF ATOMS PER CELL        42  COULOMB OVERLAP TOL         (T1) 10**   -6
 NUMBER OF SHELLS           234  COULOMB PENETRATION TOL     (T2) 10**   -6
 NUMBER OF AO               474  EXCHANGE OVERLAP TOL        (T3) 10**   -6
 N. OF ELECTRONS PER CELL   198  EXCHANGE PSEUDO OVP (F(G))  (T4) 10**   -6
 CORE ELECTRONS PER CELL     60  EXCHANGE PSEUDO OVP (P(G))  (T5) 10**  -12
 N. OF SYMMETRY OPERATORS     1  POLE ORDER IN MONO ZONE                  4
 *******************************************************************************
 TYPE OF CALCULATION :  RESTRICTED CLOSED SHELL
 KOHN-SHAM HAMILTONIAN

 (EXCHANGE)[CORRELATION] FUNCTIONAL:(HSEsol GGA)[PBEsol]

 RANGE-SEPARATED HYBRID FUNCTIONAL 
 OMEGA (SHORT-RANGE)[LONG-RANGE]:(    0.1100)[    0.0000]

 HYBRID EXCHANGE - PERCENTAGE OF FOCK EXCHANGE    25.0000

 CAPPA:IS1  2;IS2  2;IS3  8; K PTS MONK NET  20; SYMMOPS:K SPACE   2;G SPACE   1

 *******************************************************************************
 MAX NUMBER OF SCF CYCLES      50  CONVERGENCE ON DELTAP        10**-16
 WEIGHT OF F(I) IN F(I+1)      30% CONVERGENCE ON ENERGY        10**- 6
 SHRINK. FACT.(MONKH.)    2  2  8  NUMBER OF K POINTS IN THE IBZ     20
 SHRINKING FACTOR(GILAT NET)    8  NUMBER OF K POINTS(GILAT NET)   1028
 *******************************************************************************
 *** K POINTS COORDINATES (OBLIQUE COORDINATES IN UNITS OF IS =  2)
   1-R(  0  0  0)   2-R(  1  0  0)   3-R(  0  1  0)   4-R(  1  1  0)
   5-C(  0  0  1)   6-C(  1  0  1)   7-C(  0  1  1)   8-C(  1  1  1)
   9-C(  0  0  2)  10-C(  1  0  2)  11-C(  0  1  2)  12-C(  1  1  2)
  13-C(  0  0  3)  14-C(  1  0  3)  15-C(  0  1  3)  16-C(  1  1  3)
  17-R(  0  0  4)  18-R(  1  0  4)  19-R(  0  1  4)  20-R(  1  1  4)

 DIRECT LATTICE VECTORS COMPON. (A.U.)     RECIP. LATTICE VECTORS COMPON. (A.U.) 
        X            Y            Z              X            Y            Z
   24.5689761  -14.2152832    0.0000000      0.2557366    0.0000000   -0.1280610
    0.0000000   28.4297713    0.0000000      0.1278719    0.2210072   -0.2553036
    3.7853744    6.5422613    7.5593534      0.0000000    0.0000000    0.8311803

 DISK SPACE FOR EIGENVECTORS (FTN 10)     7189632 REALS

 SYMMETRY ADAPTION OF THE BLOCH FUNCTIONS DISABLED
 TTTTTTTTTTTTTTTTTTTTTTTTTTTTTT gordsh1     TELAPSE        0.04 TCPU        0.04

 MATRIX SIZE: P(G)  310612, F(G)   63916, P(G) IRR  156389, F(G) IRR   64540
 MAX G-VECTOR INDEX FOR 1- AND 2-ELECTRON INTEGRALS  49

 TTTTTTTTTTTTTTTTTTTTTTTTTTTTTT INPUT       TELAPSE        0.35 TCPU        0.35

 NEIGHBORS OF THE NON-EQUIVALENT ATOMS

 N = NUMBER OF NEIGHBORS AT DISTANCE R
    ATOM  N     R/ANG      R/AU   NEIGHBORS (ATOM LABELS AND CELL INDICES)
   1 B    1     1.3787     2.6054   38 O    0 0 0
   1 B    1     1.3795     2.6068   37 O   -1 0 0
   1 B    1     1.5517     2.9323   30 C    0 0-1
   1 B    1     2.3868     4.5104    2 B    0 0 0
   1 B    1     2.3912     4.5187    3 B   -1 0 0
   1 B    1     2.5629     4.8432   27 C   -1 0-1

   2 B    1     1.3792     2.6064   38 O    0 0 0
   2 B    1     1.3798     2.6075   39 O    0 1-2
   2 B    1     1.5510     2.9309   19 C    0 0 0
   2 B    1     2.3868     4.5104    1 B    0 0 0
   2 B    1     2.3894     4.5154    3 B   -1 0 0
   2 B    1     2.5618     4.8411   22 C    0 0 0

   3 B    1     1.3790     2.6060   37 O    0 0 0
   3 B    1     1.3795     2.6069   39 O    1 1-2
   3 B    1     1.5529     2.9346   36 C    0 0 0
   3 B    1     2.3894     4.5154    2 B    1 0 0
   3 B    1     2.3912     4.5187    1 B    1 0 0
   3 B    1     2.5679     4.8526   35 C    0 0 0

   4 B    1     1.3779     2.6038   41 O    0 0 0
   4 B    1     1.3786     2.6051   40 O    0 0 0
   4 B    1     1.5479     2.9252   24 C    0 0 0
   4 B    1     2.3857     4.5084    5 B    0 0 0
   4 B    1     2.3859     4.5087    6 B    0 0 1
   4 B    1     2.5585     4.8349   21 C    0 0 0

   5 B    1     1.3778     2.6037   41 O    0 0 0
   5 B    1     1.3814     2.6104   42 O    0 0 0
   5 B    1     1.5524     2.9337   31 C    0 0 0
   5 B    1     2.3857     4.5084    4 B    0 0 0
   5 B    1     2.3952     4.5263    6 B    0 0 1
   5 B    1     2.5591     4.8360   32 C    0 0 0

   6 B    1     1.3783     2.6045   40 O    0 0-1
   6 B    1     1.3812     2.6101   42 O    0 0-1
   6 B    1     1.5546     2.9377   25 C    0 0 0
   6 B    1     2.3859     4.5087    4 B    0 0-1
   6 B    1     2.3952     4.5263    5 B    0 0-1
   6 B    1     2.5605     4.8387   26 C    1 1-2

   7 H    1     1.0917     2.0630   20 C    0 0 0
   7 H    1     2.1462     4.0557   19 C    0 0 0
   7 H    1     2.1712     4.1030   23 C    0 0 0
   7 H    1     2.5280     4.7772   10 H    0 0 0
   7 H    1     2.5583     4.8346   38 O    0 0 0
   7 H    1     2.7310     5.1609    2 B    0 0 0

   8 H    1     1.0909     2.0615   21 C    0-1 1
   8 H    1     2.1454     4.0543   24 C    0-1 1
   8 H    1     2.1688     4.0985   22 C    0-1 1
   8 H    1     2.5272     4.7758    9 H    0 0 0
   8 H    1     2.5563     4.8306   40 O    0-1 1
   8 H    1     2.7244     5.1483    4 B    0-1 1

   9 H    1     1.0909     2.0614   22 C    0-1 1
   9 H    1     2.1443     4.0521   19 C    0-1 1
   9 H    1     2.1694     4.0995   21 C    0-1 1
   9 H    1     2.5272     4.7758    8 H    0 0 0
   9 H    1     2.5616     4.8407   39 O    0 0-1
   9 H    1     2.7249     5.1493    2 B    0-1 1

  10 H    1     1.0912     2.0621   23 C    0 0 0
  10 H    1     2.1469     4.0570   24 C    0 0 0
  10 H    1     2.1689     4.0986   20 C    0 0 0
  10 H    1     2.5280     4.7772    7 H    0 0 0
  10 H    1     2.5562     4.8306   41 O    0 0 0
  10 H    1     2.7309     5.1607    4 B    0 0 0

  11 H    1     1.0911     2.0619   26 C    0 0 0
  11 H    1     2.1443     4.0521   25 C   -1-1 2
  11 H    1     2.1684     4.0978   29 C    0 0 0
  11 H    1     2.5223     4.7664   14 H    0 0 0
  11 H    1     2.5622     4.8419   42 O   -1-1 1
  11 H    1     2.7179     5.1361    6 B   -1-1 2

  12 H    1     1.0917     2.0630   27 C    0 0 0
  12 H    1     2.1441     4.0518   30 C    1 0 0
  12 H    1     2.1716     4.1037   28 C    0 0 0
  12 H    1     2.5226     4.7669   13 H    0 0 0
  12 H    1     2.5541     4.8265   37 O    0 0 1
  12 H    1     2.7237     5.1471    1 B    1 0 1

  13 H    1     1.0919     2.0634   28 C    0 0 0
  13 H    1     2.1522     4.0671   25 C    0-1 2
  13 H    1     2.1668     4.0946   27 C    0 0 0
  13 H    1     2.5226     4.7669   12 H    0 0 0
  13 H    1     2.5923     4.8987   40 O    0-1 1
  13 H    1     2.7583     5.2124    6 B    0-1 2

  14 H    1     1.0915     2.0627   29 C    0 0 0
  14 H    1     2.1483     4.0597   30 C    0 0 0
  14 H    1     2.1679     4.0968   26 C    0 0 0
  14 H    1     2.5223     4.7664   11 H    0 0 0
  14 H    1     2.5809     4.8771   38 O    0 0 1
  14 H    1     2.7404     5.1785    1 B    0 0 1

  15 H    1     1.0916     2.0628   32 C   -1-1 1
  15 H    1     2.1436     4.0508   31 C   -1-1 1
  15 H    1     2.1707     4.1021   35 C   -1-1 1
  15 H    1     2.5217     4.7654   18 H    0 0 0
  15 H    1     2.5568     4.8316   42 O   -1-1 1
  15 H    1     2.7166     5.1336    5 B   -1-1 1

  16 H    1     1.0914     2.0625   33 C    0 0 0
  16 H    1     2.1488     4.0606   36 C    0 0 0
  16 H    1     2.1663     4.0937   34 C    0 0 0
  16 H    1     2.5170     4.7564   17 H    0 0 0
  16 H    1     2.5780     4.8717   37 O    0 0 0
  16 H    1     2.7396     5.1770    3 B    0 0 0

  17 H    1     1.0921     2.0638   34 C    0 0 0
  17 H    1     2.1502     4.0633   31 C    0 0 0
  17 H    1     2.1683     4.0976   33 C    0 0 0
  17 H    1     2.5170     4.7564   16 H    0 0 0
  17 H    1     2.5870     4.8888   41 O    0 0 0
  17 H    1     2.7510     5.1986    5 B    0 0 0

  18 H    1     1.0913     2.0622   35 C   -1-1 1
  18 H    1     2.1495     4.0619   36 C   -1-1 1
  18 H    1     2.1656     4.0923   32 C   -1-1 1
  18 H    1     2.5217     4.7654   15 H    0 0 0
  18 H    1     2.5789     4.8734   39 O    0 0-1
  18 H    1     2.7392     5.1763    3 B   -1-1 1

  19 C    1     1.4017     2.6489   22 C    0 0 0
  19 C    1     1.4025     2.6504   20 C    0 0 0
  19 C    1     1.5510     2.9309    2 B    0 0 0
  19 C    1     2.1443     4.0521    9 H    0 1-1
  19 C    1     2.1462     4.0557    7 H    0 0 0
  19 C    1     2.4236     4.5800   21 C    0 0 0

  20 C    1     1.0917     2.0630    7 H    0 0 0
  20 C    1     1.3915     2.6296   23 C    0 0 0
  20 C    1     1.4025     2.6504   19 C    0 0 0
  20 C    1     2.1689     4.0986   10 H    0 0 0
  20 C    1     2.4191     4.5715   22 C    0 0 0
  20 C    1     2.4241     4.5809   24 C    0 0 0

  21 C    1     1.0909     2.0615    8 H    0 1-1
  21 C    1     1.3909     2.6284   22 C    0 0 0
  21 C    1     1.4015     2.6484   24 C    0 0 0
  21 C    1     2.1694     4.0995    9 H    0 1-1
  21 C    1     2.4189     4.5711   23 C    0 0 0
  21 C    1     2.4236     4.5800   19 C    0 0 0

  22 C    1     1.0909     2.0614    9 H    0 1-1
  22 C    1     1.3909     2.6284   21 C    0 0 0
  22 C    1     1.4017     2.6489   19 C    0 0 0
  22 C    1     2.1688     4.0985    8 H    0 1-1
  22 C    1     2.4191     4.5715   20 C    0 0 0
  22 C    1     2.4226     4.5780   24 C    0 0 0

  23 C    1     1.0912     2.0621   10 H    0 0 0
  23 C    1     1.3915     2.6296   20 C    0 0 0
  23 C    1     1.4021     2.6497   24 C    0 0 0
  23 C    1     2.1712     4.1030    7 H    0 0 0
  23 C    1     2.4189     4.5711   21 C    0 0 0
  23 C    1     2.4237     4.5802   19 C    0 0 0

  24 C    1     1.4015     2.6484   21 C    0 0 0
  24 C    1     1.4021     2.6497   23 C    0 0 0
  24 C    1     1.5479     2.9252    4 B    0 0 0
  24 C    1     2.1454     4.0543    8 H    0 1-1
  24 C    1     2.1469     4.0570   10 H    0 0 0
  24 C    1     2.4226     4.5780   22 C    0 0 0

  25 C    1     1.4025     2.6504   26 C    1 1-2
  25 C    1     1.4037     2.6526   28 C    0 1-2
  25 C    1     1.5546     2.9377    6 B    0 0 0
  25 C    1     2.1443     4.0521   11 H    1 1-2
  25 C    1     2.1522     4.0671   13 H    0 1-2
  25 C    1     2.4271     4.5866   27 C    0 1-2

  26 C    1     1.0911     2.0619   11 H    0 0 0
  26 C    1     1.3916     2.6298   29 C    0 0 0
  26 C    1     1.4025     2.6504   25 C   -1-1 2
  26 C    1     2.1679     4.0968   14 H    0 0 0
  26 C    1     2.4165     4.5665   28 C   -1 0 0
  26 C    1     2.4246     4.5819   30 C    0 0 0

  27 C    1     1.0917     2.0630   12 H    0 0 0
  27 C    1     1.3928     2.6320   28 C    0 0 0
  27 C    1     1.4024     2.6502   30 C    1 0 0
  27 C    1     2.1668     4.0946   13 H    0 0 0
  27 C    1     2.4166     4.5668   29 C    1 0 0
  27 C    1     2.4271     4.5866   25 C    0-1 2

  28 C    1     1.0919     2.0634   13 H    0 0 0
  28 C    1     1.3928     2.6320   27 C    0 0 0
  28 C    1     1.4037     2.6526   25 C    0-1 2
  28 C    1     2.1716     4.1037   12 H    0 0 0
  28 C    1     2.4165     4.5665   26 C    1 0 0
  28 C    1     2.4277     4.5877   30 C    1 0 0

  29 C    1     1.0915     2.0627   14 H    0 0 0
  29 C    1     1.3916     2.6298   26 C    0 0 0
  29 C    1     1.4023     2.6499   30 C    0 0 0
  29 C    1     2.1684     4.0978   11 H    0 0 0
  29 C    1     2.4166     4.5668   27 C   -1 0 0
  29 C    1     2.4281     4.5884   25 C   -1-1 2

  30 C    1     1.4023     2.6499   29 C    0 0 0
  30 C    1     1.4024     2.6502   27 C   -1 0 0
  30 C    1     1.5517     2.9323    1 B    0 0 1
  30 C    1     2.1441     4.0518   12 H   -1 0 0
  30 C    1     2.1483     4.0597   14 H    0 0 0
  30 C    1     2.4246     4.5819   26 C    0 0 0

  31 C    1     1.4022     2.6498   32 C    0 0 0
  31 C    1     1.4030     2.6513   34 C    0 0 0
  31 C    1     1.5524     2.9337    5 B    0 0 0
  31 C    1     2.1436     4.0508   15 H    1 1-1
  31 C    1     2.1502     4.0633   17 H    0 0 0
  31 C    1     2.4265     4.5853   33 C    0 0 0

  32 C    1     1.0916     2.0628   15 H    1 1-1
  32 C    1     1.3918     2.6301   35 C    0 0 0
  32 C    1     1.4022     2.6498   31 C    0 0 0
  32 C    1     2.1656     4.0923   18 H    1 1-1
  32 C    1     2.4163     4.5661   34 C    0 0 0
  32 C    1     2.4270     4.5863   36 C    0 0 0

  33 C    1     1.0914     2.0625   16 H    0 0 0
  33 C    1     1.3927     2.6318   34 C    0 0 0
  33 C    1     1.4029     2.6510   36 C    0 0 0
  33 C    1     2.1683     4.0976   17 H    0 0 0
  33 C    1     2.4155     4.5646   35 C    0 0 0
  33 C    1     2.4265     4.5853   31 C    0 0 0

  34 C    1     1.0921     2.0638   17 H    0 0 0
  34 C    1     1.3927     2.6318   33 C    0 0 0
  34 C    1     1.4030     2.6513   31 C    0 0 0
  34 C    1     2.1663     4.0937   16 H    0 0 0
  34 C    1     2.4163     4.5661   32 C    0 0 0
  34 C    1     2.4289     4.5899   36 C    0 0 0

  35 C    1     1.0913     2.0622   18 H    1 1-1
  35 C    1     1.3918     2.6301   32 C    0 0 0
  35 C    1     1.4029     2.6511   36 C    0 0 0
  35 C    1     2.1707     4.1021   15 H    1 1-1
  35 C    1     2.4155     4.5646   33 C    0 0 0
  35 C    1     2.4269     4.5861   31 C    0 0 0

  36 C    1     1.4029     2.6510   33 C    0 0 0
  36 C    1     1.4029     2.6511   35 C    0 0 0
  36 C    1     1.5529     2.9346    3 B    0 0 0
  36 C    1     2.1488     4.0606   16 H    0 0 0
  36 C    1     2.1495     4.0619   18 H    1 1-1
  36 C    1     2.4270     4.5863   32 C    0 0 0

  37 O    1     1.3790     2.6060    3 B    0 0 0
  37 O    1     1.3795     2.6068    1 B    1 0 0
  37 O    1     2.3868     4.5105   39 O    1 1-2
  37 O    1     2.3885     4.5136   38 O    1 0 0
  37 O    1     2.5389     4.7979   30 C    1 0-1
  37 O    1     2.5412     4.8022   36 C    0 0 0

  38 O    1     1.3787     2.6054    1 B    0 0 0
  38 O    1     1.3792     2.6064    2 B    0 0 0
  38 O    1     2.3885     4.5136   37 O   -1 0 0
  38 O    1     2.3912     4.5188   39 O    0 1-2
  38 O    1     2.5351     4.7906   19 C    0 0 0
  38 O    1     2.5405     4.8008   30 C    0 0-1

  39 O    1     1.3795     2.6069    3 B   -1-1 2
  39 O    1     1.3798     2.6075    2 B    0-1 2
  39 O    1     2.3868     4.5105   37 O   -1-1 2
  39 O    1     2.3912     4.5188   38 O    0-1 2
  39 O    1     2.5416     4.8030   19 C    0-1 2
  39 O    1     2.5427     4.8050   36 C   -1-1 2

  40 O    1     1.3783     2.6045    6 B    0 0 1
  40 O    1     1.3786     2.6051    4 B    0 0 0
  40 O    1     2.3876     4.5119   42 O    0 0 0
  40 O    1     2.3914     4.5190   41 O    0 0 0
  40 O    1     2.5354     4.7912   25 C    0 0 1
  40 O    1     2.5360     4.7924   24 C    0 0 0

  41 O    1     1.3778     2.6037    5 B    0 0 0
  41 O    1     1.3779     2.6038    4 B    0 0 0
  41 O    1     2.3870     4.5108   42 O    0 0 0
  41 O    1     2.3914     4.5190   40 O    0 0 0
  41 O    1     2.5306     4.7821   24 C    0 0 0
  41 O    1     2.5354     4.7913   31 C    0 0 0

  42 O    1     1.3812     2.6101    6 B    0 0 1
  42 O    1     1.3814     2.6104    5 B    0 0 0
  42 O    1     2.3870     4.5108   41 O    0 0 0
  42 O    1     2.3876     4.5119   40 O    0 0 0
  42 O    1     2.5481     4.8152   31 C    0 0 0
  42 O    1     2.5522     4.8230   25 C    0 0 1


 SYMMETRY ALLOWED INTERNAL DEGREE(S) OF FREEDOM: 123
 TTTTTTTTTTTTTTTTTTTTTTTTTTTTTT SYMM        TELAPSE        0.35 TCPU        0.35
 TTTTTTTTTTTTTTTTTTTTTTTTTTTTTT INT_SCREEN  TELAPSE        0.38 TCPU        0.38

 DFT PARAMETERS

     ATOM       ELECTRONS   NET CHARGE   R(ANGSTROM)
   1   5  B       5.0000      0.0000     0.89000000
   7   1  H       1.0000      0.0000     1.11000000
  19   6  C       6.0000      0.0000     0.77000000
  37   8  O       8.0000      0.0000     0.74000000

 SIZE OF GRID=    1317688
 TTTTTTTTTTTTTTTTTTTTTTTTTTTTTT MAKE_GRID2  TELAPSE        8.79 TCPU        8.78
 BECKE WEIGHT FUNCTION
 RADSAFE =     2.00
 TOLERANCES - DENSITY:10**- 6; POTENTIAL:10**- 9; GRID WGT:10**-14

 RADIAL INTEGRATION  - INTERVALS (POINTS,UPPER LIMIT):            1( 75,  4.0*R)

 ANGULAR INTEGRATION - INTERVALS (ACCURACY LEVEL [N. POINTS] UPPER LIMIT):
  1(  4[  86]   0.2)  2(  8[ 194]   0.5)  3( 12[ 350]   0.9)  4( 16[ 974]   3.5)
  5( 12[ 350]9999.0)
 TTTTTTTTTTTTTTTTTTTTTTTTTTTTTT INT_CALC    TELAPSE        8.87 TCPU        8.86
 EEEEEEEEEE INT_CALC TERMINATION  DATE 02 12 2025 TIME 08:04:02.1

 *******************************************************************************
 COF-5_z40_inc_L040                                                              
 CRYSTAL - SCF - TYPE OF CALCULATION :  RESTRICTED CLOSED SHELL
 *******************************************************************************

 CAPPA:IS1  2;IS2  2;IS3  8; K PTS MONK NET  20; SYMMOPS:K SPACE   2;G SPACE   1

 TTTTTTTTTTTTTTTTTTTTTTTTTTTTTT SDIK        TELAPSE        9.51 TCPU       16.60

 AAAAAAAAAAAAAAAAAAAAAAAAAAAAAAAAAAAAAAAAAAAAAAAAAAAAAAAAAAAAAAAAAAAAAAAAAAAAAAA
         ATOMIC WAVEFUNCTION(S)


 NUCLEAR CHARGE  5.0  SYMMETRY SPECIES            S    P
 N. ELECTRONS    5.0  NUMBER OF PRIMITIVE GTOS    8    4
                      NUMBER OF CONTRACTED GTOS   4    2
                      NUMBER OF CLOSED SHELLS     2    0
                      OPEN SHELL OCCUPATION       0    1

  ZNUC  SCFIT    TOTAL HF ENERGY   KINETIC ENERGY   VIRIAL THEOREM ACCURACY
   5.0    11    -2.451164084E+01  2.462155050E+01 -1.995536038E+00  1.5E-06

 NUCLEAR CHARGE  1.0  SYMMETRY SPECIES            S
 N. ELECTRONS    1.0  NUMBER OF PRIMITIVE GTOS    4
                      NUMBER OF CONTRACTED GTOS   2
                      NUMBER OF CLOSED SHELLS     0
                      OPEN SHELL OCCUPATION       1

  ZNUC  SCFIT    TOTAL HF ENERGY   KINETIC ENERGY   VIRIAL THEOREM ACCURACY
   1.0     1    -4.977266687E-01  5.190767460E-01 -1.958869132E+00  0.0E+00

 NUCLEAR CHARGE  6.0  SYMMETRY SPECIES            S    P
 N. ELECTRONS    6.0  NUMBER OF PRIMITIVE GTOS    8    4
                      NUMBER OF CONTRACTED GTOS   4    2
                      NUMBER OF CLOSED SHELLS     2    0
                      OPEN SHELL OCCUPATION       0    2

  ZNUC  SCFIT    TOTAL HF ENERGY   KINETIC ENERGY   VIRIAL THEOREM ACCURACY
   6.0     9    -3.766704647E+01  3.775180683E+01 -1.997754800E+00  1.1E-06

 NUCLEAR CHARGE  8.0  SYMMETRY SPECIES            S    P
 N. ELECTRONS    8.0  NUMBER OF PRIMITIVE GTOS    8    4
                      NUMBER OF CONTRACTED GTOS   4    2
                      NUMBER OF CLOSED SHELLS     2    0
                      OPEN SHELL OCCUPATION       0    4

  ZNUC  SCFIT    TOTAL HF ENERGY   KINETIC ENERGY   VIRIAL THEOREM ACCURACY
   8.0    12    -7.477373220E+01  7.477365593E+01 -2.000001020E+00  3.8E-06

 AAAAAAAAAAAAAAAAAAAAAAAAAAAAAAAAAAAAAAAAAAAAAAAAAAAAAAAAAAAAAAAAAAAAAAAAAAAAAAA

 CHARGE NORMALIZATION FACTOR   1.00000000
 TOTAL ATOMIC CHARGES:
   5.0000000   5.0000000   5.0000000   5.0000000   5.0000000   5.0000000
   1.0000000   1.0000000   1.0000000   1.0000000   1.0000000   1.0000000
   1.0000000   1.0000000   1.0000000   1.0000000   1.0000000   1.0000000
   6.0000000   6.0000000   6.0000000   6.0000000   6.0000000   6.0000000
   6.0000000   6.0000000   6.0000000   6.0000000   6.0000000   6.0000000
   6.0000000   6.0000000   6.0000000   6.0000000   6.0000000   6.0000000
   8.0000000   8.0000000   8.0000000   8.0000000   8.0000000   8.0000000
 TTTTTTTTTTTTTTTTTTTTTTTTTTTTTT MOQGAD      TELAPSE        9.55 TCPU       17.93
 TTTTTTTTTTTTTTTTTTTTTTTTTTTTTT SHELLXN     TELAPSE       16.09 TCPU      224.62
 TTTTTTTTTTTTTTTTTTTTTTTTTTTTTT MONMO3      TELAPSE       16.23 TCPU      229.01
 NUMERICALLY INTEGRATED DENSITY    197.9999686186
 TTTTTTTTTTTTTTTTTTTTTTTTTTTTTT NUMDFT      TELAPSE       16.79 TCPU      246.81
 CYC   0 ETOT(AU) -1.295947794181E+03 DETOT -1.30E+03 tst  0.00E+00 PX  1.00E+00
 TTTTTTTTTTTTTTTTTTTTTTTTTTTTTT DIIS        TELAPSE       16.82 TCPU      247.91
 TTTTTTTTTTTTTTTTTTTTTTTTTTTTTT FDIK        TELAPSE       17.31 TCPU      263.54
 INSULATING STATE
 TOP OF VALENCE BANDS -    BAND     99; K   17; EIG -3.1317686E-01 AU
 TOP OF VALENCE BANDS -    BAND     99; K    1; EIG -3.1470805E-01 AU
 BOTTOM OF VIRTUAL BANDS - BAND    100; K   17; EIG -1.5856318E-01 AU
 DIRECT ENERGY BAND GAP:   4.2073 eV
 BOTTOM OF VIRTUAL BANDS - BAND    100; K    1; EIG -1.5763687E-01 AU
 TTTTTTTTTTTTTTTTTTTTTTTTTTTTTT PDIG        TELAPSE       17.62 TCPU      269.70
 CHARGE NORMALIZATION FACTOR   1.00000000
 TOTAL ATOMIC CHARGES:
   4.1556351   4.1645492   4.1656639   4.1674053   4.1645332   4.1546124
   0.7851698   0.7851416   0.7850550   0.7850664   0.7855115   0.7854253
   0.7863915   0.7859655   0.7849028   0.7854687   0.7852307   0.7854695
   6.0436567   6.2653567   6.2654053   6.2657259   6.2644442   6.0458833
   6.0423523   6.2657611   6.2639689   6.2663965   6.2662526   6.0458281
   6.0427779   6.2654603   6.2663025   6.2652639   6.2668571   6.0403885
   8.6927311   8.6919108   8.6929657   8.6914921   8.6916198   8.6940015
 TTTTTTTTTTTTTTTTTTTTTTTTTTTTTT MOQGAD      TELAPSE       17.66 TCPU      269.75
 TTTTTTTTTTTTTTTTTTTTTTTTTTTTTT SHELLXN     TELAPSE       24.40 TCPU      484.32
 TTTTTTTTTTTTTTTTTTTTTTTTTTTTTT MONMO3      TELAPSE       24.53 TCPU      488.69
 NUMERICALLY INTEGRATED DENSITY    197.9999807683
 TTTTTTTTTTTTTTTTTTTTTTTTTTTTTT NUMDFT      TELAPSE       25.10 TCPU      506.73
 CYC   1 ETOT(AU) -1.288819724293E+03 DETOT  7.13E+00 tst  0.00E+00 PX  1.00E+00
 TTTTTTTTTTTTTTTTTTTTTTTTTTTTTT DIIS        TELAPSE       25.15 TCPU      508.26
 DIIS TEST: 0.10969E+01 AT SCF   CYCLE   1 - MIX   30 %
 TTTTTTTTTTTTTTTTTTTTTTTTTTTTTT FDIK        TELAPSE       25.64 TCPU      524.14
 INSULATING STATE
 TOP OF VALENCE BANDS -    BAND     99; K   17; EIG -2.2575433E-01 AU
 TOP OF VALENCE BANDS -    BAND     99; K    1; EIG -2.2916441E-01 AU
 BOTTOM OF VIRTUAL BANDS - BAND    100; K   17; EIG -8.1972894E-02 AU
 DIRECT ENERGY BAND GAP:   3.9125 eV
 BOTTOM OF VIRTUAL BANDS - BAND    100; K    1; EIG -7.9761481E-02 AU
 TTTTTTTTTTTTTTTTTTTTTTTTTTTTTT PDIG        TELAPSE       25.95 TCPU      530.30
 CHARGE NORMALIZATION FACTOR   1.00000000
 TOTAL ATOMIC CHARGES:
   4.6830282   4.7018080   4.7024619   4.7031332   4.7025686   4.6828737
   0.9070753   0.9074938   0.9160559   0.9162074   0.9026684   0.9022526
   0.9033323   0.9035538   0.9066335   0.9071630   0.9159626   0.9160052
   5.8694056   6.1331076   6.1313102   6.1413014   6.1432573   5.8653728
   5.8897567   6.1391461   6.1419779   6.1447618   6.1429534   5.8847302
   5.8706073   6.1282150   6.1310705   6.1435551   6.1402137   5.8718512
   8.3308842   8.3295071   8.3436140   8.3281390   8.3406011   8.3343834
 TTTTTTTTTTTTTTTTTTTTTTTTTTTTTT MOQGAD      TELAPSE       26.00 TCPU      530.35
 TTTTTTTTTTTTTTTTTTTTTTTTTTTTTT SHELLXN     TELAPSE       32.73 TCPU      744.88
 TTTTTTTTTTTTTTTTTTTTTTTTTTTTTT MONMO3      TELAPSE       32.87 TCPU      749.25
 NUMERICALLY INTEGRATED DENSITY    197.9999805095
 TTTTTTTTTTTTTTTTTTTTTTTTTTTTTT NUMDFT      TELAPSE       33.43 TCPU      767.30
 CYC   2 ETOT(AU) -1.289014263962E+03 DETOT -1.95E-01 tst  3.80E-03 PX  1.59E-01
 TTTTTTTTTTTTTTTTTTTTTTTTTTTTTT DIIS        TELAPSE       33.48 TCPU      768.86
 DIIS TEST: 0.45003E+00 AT SCF   CYCLE   2 - DIIS ACTIVE - HISTORY:     2 CYCLES
 TTTTTTTTTTTTTTTTTTTTTTTTTTTTTT FDIK        TELAPSE       33.98 TCPU      784.74
 INSULATING STATE
 TOP OF VALENCE BANDS -    BAND     99; K   17; EIG -2.3804895E-01 AU
 TOP OF VALENCE BANDS -    BAND     99; K    1; EIG -2.3995772E-01 AU
 BOTTOM OF VIRTUAL BANDS - BAND    100; K   17; EIG -7.7814985E-02 AU
 DIRECT ENERGY BAND GAP:   4.3602 eV
 BOTTOM OF VIRTUAL BANDS - BAND    100; K    1; EIG -7.5725314E-02 AU
 TTTTTTTTTTTTTTTTTTTTTTTTTTTTTT PDIG        TELAPSE       34.29 TCPU      790.90
 CHARGE NORMALIZATION FACTOR   1.00000000
 TOTAL ATOMIC CHARGES:
   4.4818217   4.4993075   4.4999483   4.5011434   4.4993434   4.4812937
   0.8867347   0.8866181   0.8932583   0.8935951   0.8835277   0.8833606
   0.8850506   0.8844978   0.8855630   0.8866991   0.8937491   0.8931847
   5.8916049   6.1612106   6.1618241   6.1568119   6.1566359   5.8930735
   5.9028500   6.1614798   6.1620335   6.1642222   6.1644582   5.9038811
   5.8922555   6.1610367   6.1612982   6.1575040   6.1582355   5.8917571
   8.5141646   8.5136086   8.5121512   8.5129858   8.5098831   8.5163374
 TTTTTTTTTTTTTTTTTTTTTTTTTTTTTT MOQGAD      TELAPSE       34.33 TCPU      790.94
 TTTTTTTTTTTTTTTTTTTTTTTTTTTTTT SHELLXN     TELAPSE       41.06 TCPU     1005.42
 TTTTTTTTTTTTTTTTTTTTTTTTTTTTTT MONMO3      TELAPSE       41.20 TCPU     1009.80
 NUMERICALLY INTEGRATED DENSITY    197.9999801787
 TTTTTTTTTTTTTTTTTTTTTTTTTTTTTT NUMDFT      TELAPSE       41.77 TCPU     1027.87
 CYC   3 ETOT(AU) -1.289107259125E+03 DETOT -9.30E-02 tst  6.64E-04 PX  6.55E-02
 TTTTTTTTTTTTTTTTTTTTTTTTTTTTTT DIIS        TELAPSE       41.82 TCPU     1029.66
 DIIS TEST: 0.14242E-01 AT SCF   CYCLE   3 - DIIS ACTIVE - HISTORY:     3 CYCLES
 TTTTTTTTTTTTTTTTTTTTTTTTTTTTTT FDIK        TELAPSE       42.32 TCPU     1045.58
 INSULATING STATE
 TOP OF VALENCE BANDS -    BAND     99; K   17; EIG -2.4793974E-01 AU
 TOP OF VALENCE BANDS -    BAND     99; K    1; EIG -2.5151769E-01 AU
 BOTTOM OF VIRTUAL BANDS - BAND    100; K   17; EIG -8.6557667E-02 AU
 DIRECT ENERGY BAND GAP:   4.3914 eV
 BOTTOM OF VIRTUAL BANDS - BAND    100; K    1; EIG -8.3745467E-02 AU
 TTTTTTTTTTTTTTTTTTTTTTTTTTTTTT PDIG        TELAPSE       42.63 TCPU     1051.74
 CHARGE NORMALIZATION FACTOR   1.00000000
 TOTAL ATOMIC CHARGES:
   4.4881316   4.5035837   4.5041863   4.5054602   4.5036324   4.4876906
   0.8696054   0.8699628   0.8753666   0.8756508   0.8647748   0.8645945
   0.8660631   0.8659057   0.8690446   0.8697822   0.8757270   0.8756780
   5.9394176   6.1655887   6.1639554   6.1705462   6.1708241   5.9373187
   5.9543012   6.1717213   6.1726230   6.1743686   6.1734184   5.9521380
   5.9396504   6.1628169   6.1648358   6.1715737   6.1697604   5.9390847
   8.4761704   8.4748725   8.4849198   8.4738550   8.4827120   8.4786869
 TTTTTTTTTTTTTTTTTTTTTTTTTTTTTT MOQGAD      TELAPSE       42.67 TCPU     1051.79
 TTTTTTTTTTTTTTTTTTTTTTTTTTTTTT SHELLXN     TELAPSE       49.41 TCPU     1266.34
 TTTTTTTTTTTTTTTTTTTTTTTTTTTTTT MONMO3      TELAPSE       49.54 TCPU     1270.73
 NUMERICALLY INTEGRATED DENSITY    197.9999803747
 TTTTTTTTTTTTTTTTTTTTTTTTTTTTTT NUMDFT      TELAPSE       50.11 TCPU     1288.77
 CYC   4 ETOT(AU) -1.289110306396E+03 DETOT -3.05E-03 tst  2.77E-05 PX  1.41E-02
 TTTTTTTTTTTTTTTTTTTTTTTTTTTTTT DIIS        TELAPSE       50.17 TCPU     1290.67
 DIIS TEST: 0.41333E-02 AT SCF   CYCLE   4 - DIIS ACTIVE - HISTORY:     4 CYCLES
 TTTTTTTTTTTTTTTTTTTTTTTTTTTTTT FDIK        TELAPSE       50.67 TCPU     1306.73
 INSULATING STATE
 TOP OF VALENCE BANDS -    BAND     99; K   17; EIG -2.4623595E-01 AU
 TOP OF VALENCE BANDS -    BAND     99; K    1; EIG -2.4930923E-01 AU
 BOTTOM OF VIRTUAL BANDS - BAND    100; K   17; EIG -8.5971072E-02 AU
 DIRECT ENERGY BAND GAP:   4.3610 eV
 BOTTOM OF VIRTUAL BANDS - BAND    100; K    1; EIG -8.3609897E-02 AU
 TTTTTTTTTTTTTTTTTTTTTTTTTTTTTT PDIG        TELAPSE       50.98 TCPU     1312.90
 CHARGE NORMALIZATION FACTOR   1.00000000
 TOTAL ATOMIC CHARGES:
   4.4885139   4.5060238   4.5067125   4.5078118   4.5062104   4.4880430
   0.8724543   0.8724743   0.8790118   0.8792735   0.8684701   0.8682336
   0.8697972   0.8694146   0.8715587   0.8725422   0.8794280   0.8790754
   5.9216290   6.1663677   6.1663344   6.1678015   6.1680203   5.9218177
   5.9351514   6.1702744   6.1713324   6.1731251   6.1730131   5.9349105
   5.9223524   6.1651001   6.1659641   6.1684922   6.1683210   5.9221758
   8.4882785   8.4874058   8.4910789   8.4866233   8.4887204   8.4906608
 TTTTTTTTTTTTTTTTTTTTTTTTTTTTTT MOQGAD      TELAPSE       51.02 TCPU     1312.94
 TTTTTTTTTTTTTTTTTTTTTTTTTTTTTT SHELLXN     TELAPSE       57.76 TCPU     1527.50
 TTTTTTTTTTTTTTTTTTTTTTTTTTTTTT MONMO3      TELAPSE       57.89 TCPU     1531.87
 NUMERICALLY INTEGRATED DENSITY    197.9999803700
 TTTTTTTTTTTTTTTTTTTTTTTTTTTTTT NUMDFT      TELAPSE       58.46 TCPU     1549.97
 CYC   5 ETOT(AU) -1.289111250076E+03 DETOT -9.44E-04 tst  6.96E-06 PX  6.45E-03
 TTTTTTTTTTTTTTTTTTTTTTTTTTTTTT DIIS        TELAPSE       58.53 TCPU     1552.21
 DIIS TEST: 0.56372E-04 AT SCF   CYCLE   5 - DIIS ACTIVE - HISTORY:     5 CYCLES
 TTTTTTTTTTTTTTTTTTTTTTTTTTTTTT FDIK        TELAPSE       59.03 TCPU     1568.12
 INSULATING STATE
 TOP OF VALENCE BANDS -    BAND     99; K   17; EIG -2.4601785E-01 AU
 TOP OF VALENCE BANDS -    BAND     99; K    1; EIG -2.4907919E-01 AU
 BOTTOM OF VIRTUAL BANDS - BAND    100; K   17; EIG -8.5456130E-02 AU
 DIRECT ENERGY BAND GAP:   4.3691 eV
 BOTTOM OF VIRTUAL BANDS - BAND    100; K    1; EIG -8.3099922E-02 AU
 TTTTTTTTTTTTTTTTTTTTTTTTTTTTTT PDIG        TELAPSE       59.34 TCPU     1574.28
 CHARGE NORMALIZATION FACTOR   1.00000000
 TOTAL ATOMIC CHARGES:
   4.4891583   4.5055521   4.5061822   4.5073944   4.5056736   4.4886949
   0.8733389   0.8735790   0.8798598   0.8801738   0.8694219   0.8692586
   0.8707413   0.8704958   0.8726309   0.8734628   0.8802198   0.8800633
   5.9221245   6.1660854   6.1649182   6.1673782   6.1674890   5.9209225
   5.9357029   6.1697889   6.1704132   6.1725245   6.1718582   5.9342921
   5.9224564   6.1639210   6.1655254   6.1684922   6.1671690   5.9217070
   8.4872354   8.4861841   8.4926021   8.4852318   8.4904207   8.4896557
 TTTTTTTTTTTTTTTTTTTTTTTTTTTTTT MOQGAD      TELAPSE       59.38 TCPU     1574.32
 TTTTTTTTTTTTTTTTTTTTTTTTTTTTTT SHELLXN     TELAPSE       66.12 TCPU     1788.88
 TTTTTTTTTTTTTTTTTTTTTTTTTTTTTT MONMO3      TELAPSE       66.25 TCPU     1793.25
 NUMERICALLY INTEGRATED DENSITY    197.9999803587
 TTTTTTTTTTTTTTTTTTTTTTTTTTTTTT NUMDFT      TELAPSE       66.82 TCPU     1811.40
 CYC   6 ETOT(AU) -1.289111266079E+03 DETOT -1.60E-05 tst  9.98E-08 PX  8.75E-04
 TTTTTTTTTTTTTTTTTTTTTTTTTTTTTT DIIS        TELAPSE       66.89 TCPU     1813.61
 DIIS TEST: 0.85934E-05 AT SCF   CYCLE   6 - DIIS ACTIVE - HISTORY:     6 CYCLES
 TTTTTTTTTTTTTTTTTTTTTTTTTTTTTT FDIK        TELAPSE       67.39 TCPU     1829.49
 INSULATING STATE
 TOP OF VALENCE BANDS -    BAND     99; K   17; EIG -2.4602434E-01 AU
 TOP OF VALENCE BANDS -    BAND     99; K    1; EIG -2.4908076E-01 AU
 BOTTOM OF VIRTUAL BANDS - BAND    100; K   17; EIG -8.5519245E-02 AU
 DIRECT ENERGY BAND GAP:   4.3676 eV
 BOTTOM OF VIRTUAL BANDS - BAND    100; K    1; EIG -8.3142014E-02 AU
 TTTTTTTTTTTTTTTTTTTTTTTTTTTTTT PDIG        TELAPSE       67.70 TCPU     1835.66
 CHARGE NORMALIZATION FACTOR   1.00000000
 TOTAL ATOMIC CHARGES:
   4.4888232   4.5058786   4.5065564   4.5076956   4.5060295   4.4883462
   0.8733776   0.8734476   0.8798260   0.8800966   0.8693582   0.8691257
   0.8706893   0.8703378   0.8725224   0.8734750   0.8802465   0.8799153
   5.9216846   6.1657029   6.1654672   6.1671860   6.1673712   5.9215679
   5.9352271   6.1695653   6.1706358   6.1724322   6.1721417   5.9347697
   5.9222582   6.1642572   6.1652985   6.1678800   6.1675791   5.9221096
   8.4877713   8.4868172   8.4913427   8.4860321   8.4890012   8.4901534
 TTTTTTTTTTTTTTTTTTTTTTTTTTTTTT MOQGAD      TELAPSE       67.74 TCPU     1835.70
 TTTTTTTTTTTTTTTTTTTTTTTTTTTTTT SHELLXN     TELAPSE       74.47 TCPU     2050.18
 TTTTTTTTTTTTTTTTTTTTTTTTTTTTTT MONMO3      TELAPSE       74.61 TCPU     2054.56
 NUMERICALLY INTEGRATED DENSITY    197.9999803647
 TTTTTTTTTTTTTTTTTTTTTTTTTTTTTT NUMDFT      TELAPSE       75.17 TCPU     2072.63
 CYC   7 ETOT(AU) -1.289111267375E+03 DETOT -1.30E-06 tst  2.75E-08 PX  5.12E-04
 TTTTTTTTTTTTTTTTTTTTTTTTTTTTTT DIIS        TELAPSE       75.25 TCPU     2075.20
 DIIS TEST: 0.11017E-05 AT SCF   CYCLE   7 - DIIS ACTIVE - HISTORY:     7 CYCLES
 TTTTTTTTTTTTTTTTTTTTTTTTTTTTTT FDIK        TELAPSE       75.75 TCPU     2091.06
 INSULATING STATE
 TOP OF VALENCE BANDS -    BAND     99; K   17; EIG -2.4602196E-01 AU
 TOP OF VALENCE BANDS -    BAND     99; K    1; EIG -2.4908961E-01 AU
 BOTTOM OF VIRTUAL BANDS - BAND    100; K   17; EIG -8.5533023E-02 AU
 DIRECT ENERGY BAND GAP:   4.3671 eV
 BOTTOM OF VIRTUAL BANDS - BAND    100; K    1; EIG -8.3157207E-02 AU
 TTTTTTTTTTTTTTTTTTTTTTTTTTTTTT PDIG        TELAPSE       76.06 TCPU     2097.22
 CHARGE NORMALIZATION FACTOR   1.00000000
 TOTAL ATOMIC CHARGES:
   4.4889265   4.5058828   4.5065427   4.5077001   4.5060278   4.4884597
   0.8733218   0.8734518   0.8798027   0.8800895   0.8693065   0.8691112
   0.8706422   0.8703196   0.8725166   0.8734282   0.8801927   0.8799381
   5.9218108   6.1658294   6.1652307   6.1672514   6.1674407   5.9213273
   5.9353976   6.1697312   6.1705374   6.1724744   6.1721308   5.9345710
   5.9223887   6.1641265   6.1653325   6.1681727   6.1674016   5.9218658
   8.4876460   8.4867037   8.4916768   8.4858217   8.4894088   8.4900623
 TTTTTTTTTTTTTTTTTTTTTTTTTTTTTT MOQGAD      TELAPSE       76.10 TCPU     2097.26
 TTTTTTTTTTTTTTTTTTTTTTTTTTTTTT SHELLXN     TELAPSE       82.84 TCPU     2311.83
 TTTTTTTTTTTTTTTTTTTTTTTTTTTTTT MONMO3      TELAPSE       82.97 TCPU     2316.20
 NUMERICALLY INTEGRATED DENSITY    197.9999803620
 TTTTTTTTTTTTTTTTTTTTTTTTTTTTTT NUMDFT      TELAPSE       83.54 TCPU     2334.29
 CYC   8 ETOT(AU) -1.289111267452E+03 DETOT -7.76E-08 tst  1.79E-09 PX  1.54E-04
 TTTTTTTTTTTTTTTTTTTTTTTTTTTTTT DIIS        TELAPSE       83.62 TCPU     2336.85
 DIIS TEST: 0.47249E-07 AT SCF   CYCLE   8 - DIIS ACTIVE - HISTORY:     8 CYCLES
 TTTTTTTTTTTTTTTTTTTTTTTTTTTTTT FDIK        TELAPSE       84.12 TCPU     2352.74
 INSULATING STATE
 TOP OF VALENCE BANDS -    BAND     99; K   17; EIG -2.4602617E-01 AU
 TOP OF VALENCE BANDS -    BAND     99; K    1; EIG -2.4908982E-01 AU
 BOTTOM OF VIRTUAL BANDS - BAND    100; K   17; EIG -8.5526662E-02 AU
 DIRECT ENERGY BAND GAP:   4.3674 eV
 BOTTOM OF VIRTUAL BANDS - BAND    100; K    1; EIG -8.3153216E-02 AU
 TTTTTTTTTTTTTTTTTTTTTTTTTTTTTT PDIG        TELAPSE       84.43 TCPU     2358.90
 CHARGE NORMALIZATION FACTOR   1.00000000
 TOTAL ATOMIC CHARGES:
   4.4889341   4.5058528   4.5065148   4.5076723   4.5059975   4.4884618
   0.8733219   0.8734384   0.8798012   0.8800854   0.8693266   0.8691102
   0.8706504   0.8703318   0.8725069   0.8734251   0.8802055   0.8799212
   5.9217886   6.1658115   6.1653239   6.1672658   6.1674109   5.9213622
   5.9353486   6.1696374   6.1706126   6.1724962   6.1720799   5.9346383
   5.9222701   6.1641634   6.1653744   6.1680606   6.1674929   5.9219949
   8.4876534   8.4866642   8.4917067   8.4858422   8.4894052   8.4900379
 TTTTTTTTTTTTTTTTTTTTTTTTTTTTTT MOQGAD      TELAPSE       84.47 TCPU     2358.95
 TTTTTTTTTTTTTTTTTTTTTTTTTTTTTT SHELLXN     TELAPSE       91.20 TCPU     2573.49
 +++ ENERGIES IN A.U. +++
 ::: EXT EL-POLE                                  -1.2970807482605E+03
 ::: EXT EL-SPHEROPOLE                             1.4303358063840E+01
 ::: BIELET ZONE E-E                               2.0747698418667E+03
 ::: TOTAL E-E                                     7.9199245167011E+02
 ::: TOTAL E-N + N-E                              -3.4135388515476E+03
 ::: TOTAL N-N                                     1.8623692313657E+02
 ::: KINETIC ENERGY                                1.2799108012960E+03
 ::: PSEUDO TOTAL   ENERGY                        -1.1553986754448E+03
 ::: VIRIAL COEFFICIENT                            1.0511278451632E+00
 TTTTTTTTTTTTTTTTTTTTTTTTTTTTTT MONMO3      TELAPSE       91.34 TCPU     2577.87
 NUMERICALLY INTEGRATED DENSITY    197.9999803623
 EXCHANGE ENERGY: -0.126023076692E+03  CORRELATION ENERGY: -0.768951536112E+01
 TTTTTTTTTTTTTTTTTTTTTTTTTTTTTT NUMDFT      TELAPSE       91.91 TCPU     2595.93
 CYC   9 ETOT(AU) -1.289111267498E+03 DETOT -4.53E-08 tst  5.71E-10 PX  1.54E-04

 == SCF ENDED - CONVERGENCE ON ENERGY      E(AU) -1.2891112674976E+03 CYCLES   9


 ENERGY EXPRESSION=HARTREE+FOCK EXCH*0.00000+(HSESOL     EXCH)*1.00000+PBESOL     CORR


 TOTAL ENERGY(DFT)(AU)(  9) -1.2891112674976E+03 DE-4.5E-08 tester 5.7E-10
 TTTTTTTTTTTTTTTTTTTTTTTTTTTTTT EDFT        TELAPSE       91.91 TCPU     2595.93
 
 INFORMATION **** DFTD3 ENERGY **** CALCULATE DFTD3 ENERGY

           DFT-D V3(BJ)
 DF                                         hsesol3c  
 parameters
 s6       :    1.0000
 s8       :    0.0000
 a1       :    0.5196
 a2       :    4.9385
 k1 k3    :   16.0000   -4.0000
 Cutoff   :   50.2022
 CN-Cutoff:   21.1671
 ABC-Cutoff:   21.1671
 
 Edisp /kcal,au:   -24.3941 -0.03887447

 E6    /kcal :   -25.8064
 E8    /kcal :     0.0000
 E6(ABC) "   :   1.412325
 
 INFORMATION **** DFTD3 ENERGY **** NORMAL TERMINATION OF DFTD3 MODULE

 GCP ENERGY CALCULATION
  level        hsesol3c            basis:hsesol3c
  Nbf            474
  Atoms           42

  Parameters: 
  sigma     1.0000
  eta       1.4281
  alpha     0.2936
  beta      1.9467

  dmp_scal      4.0000
  dmp_exp       6.0000
 cutoffs: 
   distance [bohr] 60.0
   noise    [a.u.] 2.2E-16
 SR-damping   T
 ** gCP correction **
  Egcp:        0.0829765104 / (a.u.) ||      52.0686 / (kcal/mol)
 INFORMATION **** GCP **** NORMAL TERMINATION OF GCP MODULE

 *******************************************************************************

 DFT-D3-GCP DISPERSION AND COUNTERPOISE CORRECTION

 D3 DISPERSION ENERGY (AU)      -3.8874469185468E-02
 GCP ENERGY (AU)                 8.2976510413185E-02
 TOTAL ENERGY + DISP + GCP (AU) -1.2890671654564E+03

 *******************************************************************************

 EIGENVECTORS IN FORTRAN UNIT 10
 TTTTTTTTTTTTTTTTTTTTTTTTTTTTTT END         TELAPSE       93.05 TCPU     2603.05
 EEEEEEEEEE TERMINATION  DATE 02 12 2025 TIME 08:05:26.3
