 Default number of threads is:           32

         
 *******************************************************************************
 *                                                                             *
 *                               CRYSTAL23                                     *
 *                      public : 1.0.1 - October 2022                          *
 *                       HTTP://WWW.CRYSTAL.UNITO.IT                           *
 *                                                                             *
 *                              MAIN AUTHORS                                   *
 *                                                                             *
 *  R. DOVESI(1,11), V.R. SAUNDERS(2), C. ROETTI(1,11), R. ORLANDO(1,11),      *
 *  C.M. ZICOVICH-WILSON(1,3), F. PASCALE(4), B. CIVALLERI(1,11),              *
 *  K. DOLL(5), N.M. HARRISON(6), I.J. BUSH(7), Ph. D'ARCO(8),                 *
 *  M. LLUNELL(9), M. CAUSA'(10), Y. NOEL(8), L. MASCHIO(1,11), A. ERBA(1,11)  *
 *  M. RE'RAT(14), S. CASASSA(1,11), B.G. SEARLE(2), J.K. DESMARAIS(1)         *
 *                                                                             *
 *        CONTRIBUTIONS TO THE CODE HAVE ALSO BEEN GIVEN BY                    *
 *                                                                             *
 *  M. FERRABONE(1,11), M. DE LA PIERRE(1,11), M. FERRERO(1,11),               *
 *  J. BAIMA(1,11), E. ALBANESE(1,11), M.F. PEINTINGER(12), R. BAST(13),       *
 *  B. KIRTMAN(15), V. LACIVITA(1,11), R. DEMICHELIS(1,16)                     *
 *  G. BRANDEBURG(17), S. SALUSTRO(1,11), G. SANSONE(1,11)                     *
 *  M.T. RUGGIERO(18), L.E. DAGA(1), L. DONA'(1), A. COSSARD(1)                *
 *                                                                             *
 * (1) THEORETICAL CHEMISTRY GROUP - UNIVERSITA' DI TORINO - TORINO (ITALY)    *
 * (2) SCIENTIFIC COMPUTING DEPARTMENT - STFC DARESBURY (UK)                   *
 * (3) UNIVERSIDAD AUTONOMA DEL ESTADO DE MORELOS - CUERNAVACA (MEXICO)        *
 * (4) UNIVERSITE' DE LORRAINE - NANCY (FRANCE)                                *
 * (5) UNIVERSITAET STUTTGART- STUTTGART (GERMANY)                             *
 * (6) IMPERIAL COLLEGE - LONDON (UK)                                          *
 * (7) SCIENTIFIC COMPUTING DEPARTMENT - STFC RAL (UK)                         *
 * (8) UPMC - SORBONNE UNIVERSITES - PARIS (FRANCE)                            *
 * (9) UNIVERSIDAD DE BARCELONA - BARCELONA (SPAIN)                            *
 *(10) UNIVERSITA' DI NAPOLI "FEDERICO II" - NAPOLI (ITALY)                    *
 *(11) NIS - NANOSTRUCTURED INTERFACES AND SURFACES - TORINO (ITALY)           *
 *(12) MPI FUER CHEMISCHE ENERGIEKONVERSION - MUELHEIM AN DER RUHR (GERMANY)   *
 *(13) UNIVERSITY OF TROMSO - TROMSO (NORWAY)                                  *
 *(14) UNIVERSITE' DE PAU ET DES PAYS DE L'ADOUR - PAU (FRANCE)                *
 *(15) UNIVERSITY OF CALIFORNIA SANTA BARBARA - SANTA BARBARA (USA)            *
 *(16) CURTIN UNIVERSITY - PERTH (AUSTRALIA)                                   *
 *(17) UNIVERSITY COLLEGE LONDON - LONDON (UK)                                 *
 *(18) UNIVERSITY OF VERMONT - BURLINGTON (USA)                                *
 *                                                                             *
 *******************************************************************************
 EEEEEEEEEE STARTING  DATE 19 02 2026 TIME 20:25:18.0
 cof-1_z41_L000_serr                                                             

 CRYSTAL CALCULATION
 (INPUT ACCORDING TO THE INTERNATIONAL TABLES FOR X-RAY CRYSTALLOGRAPHY)
 CRYSTAL FAMILY                       :  TRICLINIC   
 CRYSTAL CLASS  (GROTH - 1921)        :  TRICLINIC PEDIAL                     

 SPACE GROUP (NONCENTROSYMMETRIC)     :  P 1             

 LATTICE PARAMETERS  (ANGSTROMS AND DEGREES) - CONVENTIONAL CELL
        A           B           C        ALPHA        BETA       GAMMA
    15.02361    15.02392     8.20000    90.00032    89.99994   119.99596


 NUMBER OF IRREDUCIBLE ATOMS IN THE CONVENTIONAL CELL:   84

 INPUT COORDINATES

 ATOM AT. N.              COORDINATES
   1   5     6.136805400000E-01  2.273182200000E-01  2.505825300000E-01
   2   5     6.136805400000E-01  2.273182200000E-01  7.505825300000E-01
   3   5     7.727362000000E-01  3.863778800000E-01  2.505825300000E-01
   4   5     7.727362000000E-01  3.863778800000E-01  7.505825300000E-01
   5   5     6.136762700000E-01  3.863606700000E-01  2.493577500000E-01
   6   5     6.136762700000E-01  3.863606700000E-01  7.493577600000E-01
   7   5     2.272552500000E-01  6.136332200000E-01  2.505825300000E-01
   8   5     2.272552500000E-01  6.136332200000E-01  7.505825400000E-01
   9   5     3.863632200000E-01  6.136124500000E-01  2.505825300000E-01
  10   5     3.863632200000E-01  6.136124500000E-01  7.505825300000E-01
  11   5     3.863435000000E-01  7.727516500000E-01  2.493577500000E-01
  12   5     3.863435000000E-01  7.727516500000E-01  7.493577600000E-01
  13   1     9.030436200000E-01  3.089300500000E-01  2.480433200000E-01
  14   1     9.030436200000E-01  3.089300500000E-01  7.480433200000E-01
  15   1     9.663453000000E-02  6.910534400000E-01  2.476550300000E-01
  16   1     9.663453000000E-02  6.910534400000E-01  7.476550300000E-01
  17   1     9.029714200000E-01  5.940724300000E-01  2.475952700000E-01
  18   1     9.029714200000E-01  5.940724300000E-01  7.475952700000E-01
  19   1     9.673618000000E-02  4.056849400000E-01  2.476101700000E-01
  20   1     9.673618000000E-02  4.056849400000E-01  7.476101800000E-01
  21   1     6.910324000000E-01  9.700412000000E-02  2.519567000000E-01
  22   1     6.910324000000E-01  9.700412000000E-02  7.519567000000E-01
  23   1     3.089297200000E-01  9.034373100000E-01  2.523450200000E-01
  24   1     3.089297200000E-01  9.034373100000E-01  7.523450200000E-01
  25   1     4.058699900000E-01  9.704998000000E-02  2.524048100000E-01
  26   1     4.058699900000E-01  9.704998000000E-02  7.524048100000E-01
  27   1     5.943122100000E-01  9.033473200000E-01  2.523898100000E-01
  28   1     5.943122100000E-01  9.033473200000E-01  7.523898100000E-01
  29   1     6.910727400000E-01  5.940542100000E-01  2.480433400000E-01
  30   1     6.910727400000E-01  5.940542100000E-01  7.480433400000E-01
  31   1     3.089618300000E-01  4.056093300000E-01  2.476550100000E-01
  32   1     3.089618300000E-01  4.056093300000E-01  7.476550100000E-01
  33   1     4.058405700000E-01  3.088232500000E-01  2.475952200000E-01
  34   1     4.058405700000E-01  3.088232500000E-01  7.475952200000E-01
  35   1     5.942908800000E-01  6.909579300000E-01  2.476102200000E-01
  36   1     5.942908800000E-01  6.909579300000E-01  7.476102200000E-01
  37   6     8.918903100000E-01  4.459436900000E-01  2.493129400000E-01
  38   6     8.918903100000E-01  4.459436900000E-01  7.493129400000E-01
  39   6     9.464891100000E-01  3.927856300000E-01  2.481030700000E-01
  40   6     9.464891100000E-01  3.927856300000E-01  7.481030800000E-01
  41   6     5.338812000000E-02  6.071853000000E-01  2.479985600000E-01
  42   6     5.338812000000E-02  6.071853000000E-01  7.479985600000E-01
  43   6     9.464521100000E-01  5.536921900000E-01  2.483122200000E-01
  44   6     9.464521100000E-01  5.536921900000E-01  7.483122200000E-01
  45   6     5.342634000000E-02  4.462499700000E-01  2.475056200000E-01
  46   6     5.342634000000E-02  4.462499700000E-01  7.475056200000E-01
  47   6     1.080358900000E-01  5.540356300000E-01  2.483271400000E-01
  48   6     1.080358900000E-01  5.540356300000E-01  7.483271400000E-01
  49   6     5.540394200000E-01  1.081684600000E-01  2.506871000000E-01
  50   6     5.540394200000E-01  1.081684600000E-01  7.506871000000E-01
  51   6     6.071778500000E-01  5.355594000000E-02  2.518969300000E-01
  52   6     6.071778500000E-01  5.355594000000E-02  7.518969300000E-01
  53   6     3.927986700000E-01  9.466631600000E-01  2.520014900000E-01
  54   6     3.927986700000E-01  9.466631600000E-01  7.520014900000E-01
  55   6     4.462875800000E-01  5.360286000000E-02  2.516878400000E-01
  56   6     4.462875800000E-01  5.360286000000E-02  7.516878400000E-01
  57   6     5.537168500000E-01  9.466235600000E-01  2.524943800000E-01
  58   6     5.537168500000E-01  9.466235600000E-01  7.524943800000E-01
  59   6     4.459279100000E-01  8.919920600000E-01  2.516728900000E-01
  60   6     4.459279100000E-01  8.919920600000E-01  7.516728800000E-01
  61   6     5.540448700000E-01  4.458745500000E-01  2.493129400000E-01
  62   6     5.540448700000E-01  4.458745500000E-01  7.493129400000E-01
  63   6     6.072102200000E-01  5.536257800000E-01  2.481031000000E-01
  64   6     6.072102200000E-01  5.536257800000E-01  7.481031000000E-01
  65   6     3.928233700000E-01  4.461720300000E-01  2.479985400000E-01
  66   6     3.928233700000E-01  4.461720300000E-01  7.479985400000E-01
  67   6     4.462872600000E-01  3.926899900000E-01  2.483121800000E-01
  68   6     4.462872600000E-01  3.926899900000E-01  7.483121900000E-01
  69   6     5.537429600000E-01  6.070980000000E-01  2.475056500000E-01
  70   6     5.537429600000E-01  6.070980000000E-01  7.475056500000E-01
  71   6     4.459599800000E-01  5.539582300000E-01  2.483271400000E-01
  72   6     4.459599800000E-01  5.539582300000E-01  7.483271400000E-01
  73   8     5.607366800000E-01  2.803706300000E-01  2.496863500000E-01
  74   8     5.607366800000E-01  2.803706300000E-01  7.496863500000E-01
  75   8     7.196817000000E-01  2.803783300000E-01  2.522703400000E-01
  76   8     7.196817000000E-01  2.803783300000E-01  7.522703300000E-01
  77   8     7.196794200000E-01  4.393234600000E-01  2.483719600000E-01
  78   8     7.196794200000E-01  4.393234600000E-01  7.483719600000E-01
  79   8     2.803245100000E-01  7.196511100000E-01  2.496863600000E-01
  80   8     2.803245100000E-01  7.196511100000E-01  7.496863600000E-01
  81   8     2.803439700000E-01  5.606956100000E-01  2.522703400000E-01
  82   8     2.803439700000E-01  5.606956100000E-01  7.522703400000E-01
  83   8     4.392638400000E-01  7.196354200000E-01  2.483719500000E-01
  84   8     4.392638400000E-01  7.196354200000E-01  7.483719500000E-01

 *******************************************************************************

 << INFORMATION >>: FROM NOW ON, ALL COORDINATES REFER TO THE PRIMITIVE CELL

 *******************************************************************************

 LATTICE PARAMETERS  (ANGSTROMS AND DEGREES) - PRIMITIVE CELL
       A          B          C        ALPHA      BETA     GAMMA        VOLUME
   15.02361   15.02392    8.20000    90.00032  89.99994 119.99596   1602.948694

 COORDINATES OF THE EQUIVALENT ATOMS (FRACTIONAL UNITS)

 N. ATOM EQUIV AT. N.          X                  Y                  Z

   1   1   1    5 B    -3.86319460000E-01  2.27318220000E-01  2.50582530000E-01

   2   2   1    5 B    -3.86319460000E-01  2.27318220000E-01 -2.49417470000E-01

   3   3   1    5 B    -2.27263800000E-01  3.86377880000E-01  2.50582530000E-01

   4   4   1    5 B    -2.27263800000E-01  3.86377880000E-01 -2.49417470000E-01

   5   5   1    5 B    -3.86323730000E-01  3.86360670000E-01  2.49357750000E-01

   6   6   1    5 B    -3.86323730000E-01  3.86360670000E-01 -2.50642240000E-01

   7   7   1    5 B     2.27255250000E-01 -3.86366780000E-01  2.50582530000E-01

   8   8   1    5 B     2.27255250000E-01 -3.86366780000E-01 -2.49417460000E-01

   9   9   1    5 B     3.86363220000E-01 -3.86387550000E-01  2.50582530000E-01

  10  10   1    5 B     3.86363220000E-01 -3.86387550000E-01 -2.49417470000E-01

  11  11   1    5 B     3.86343500000E-01 -2.27248350000E-01  2.49357750000E-01

  12  12   1    5 B     3.86343500000E-01 -2.27248350000E-01 -2.50642240000E-01

  13  13   1    1 H    -9.69563800000E-02  3.08930050000E-01  2.48043320000E-01

  14  14   1    1 H    -9.69563800000E-02  3.08930050000E-01 -2.51956680000E-01

  15  15   1    1 H     9.66345300000E-02 -3.08946560000E-01  2.47655030000E-01

  16  16   1    1 H     9.66345300000E-02 -3.08946560000E-01 -2.52344970000E-01

  17  17   1    1 H    -9.70285800000E-02 -4.05927570000E-01  2.47595270000E-01

  18  18   1    1 H    -9.70285800000E-02 -4.05927570000E-01 -2.52404730000E-01

  19  19   1    1 H     9.67361800000E-02  4.05684940000E-01  2.47610170000E-01

  20  20   1    1 H     9.67361800000E-02  4.05684940000E-01 -2.52389820000E-01

  21  21   1    1 H    -3.08967600000E-01  9.70041200000E-02  2.51956700000E-01

  22  22   1    1 H    -3.08967600000E-01  9.70041200000E-02 -2.48043300000E-01

  23  23   1    1 H     3.08929720000E-01 -9.65626900000E-02  2.52345020000E-01

  24  24   1    1 H     3.08929720000E-01 -9.65626900000E-02 -2.47654980000E-01

  25  25   1    1 H     4.05869990000E-01  9.70499800000E-02  2.52404810000E-01

  26  26   1    1 H     4.05869990000E-01  9.70499800000E-02 -2.47595190000E-01

  27  27   1    1 H    -4.05687790000E-01 -9.66526800000E-02  2.52389810000E-01

  28  28   1    1 H    -4.05687790000E-01 -9.66526800000E-02 -2.47610190000E-01

  29  29   1    1 H    -3.08927260000E-01 -4.05945790000E-01  2.48043340000E-01

  30  30   1    1 H    -3.08927260000E-01 -4.05945790000E-01 -2.51956660000E-01

  31  31   1    1 H     3.08961830000E-01  4.05609330000E-01  2.47655010000E-01

  32  32   1    1 H     3.08961830000E-01  4.05609330000E-01 -2.52344990000E-01

  33  33   1    1 H     4.05840570000E-01  3.08823250000E-01  2.47595220000E-01

  34  34   1    1 H     4.05840570000E-01  3.08823250000E-01 -2.52404780000E-01

  35  35   1    1 H    -4.05709120000E-01 -3.09042070000E-01  2.47610220000E-01

  36  36   1    1 H    -4.05709120000E-01 -3.09042070000E-01 -2.52389780000E-01

  37  37   1    6 C    -1.08109690000E-01  4.45943690000E-01  2.49312940000E-01

  38  38   1    6 C    -1.08109690000E-01  4.45943690000E-01 -2.50687060000E-01

  39  39   1    6 C    -5.35108900000E-02  3.92785630000E-01  2.48103070000E-01

  40  40   1    6 C    -5.35108900000E-02  3.92785630000E-01 -2.51896920000E-01

  41  41   1    6 C     5.33881200000E-02 -3.92814700000E-01  2.47998560000E-01

  42  42   1    6 C     5.33881200000E-02 -3.92814700000E-01 -2.52001440000E-01

  43  43   1    6 C    -5.35478900000E-02 -4.46307810000E-01  2.48312220000E-01

  44  44   1    6 C    -5.35478900000E-02 -4.46307810000E-01 -2.51687780000E-01

  45  45   1    6 C     5.34263400000E-02  4.46249970000E-01  2.47505620000E-01

  46  46   1    6 C     5.34263400000E-02  4.46249970000E-01 -2.52494380000E-01

  47  47   1    6 C     1.08035890000E-01 -4.45964370000E-01  2.48327140000E-01

  48  48   1    6 C     1.08035890000E-01 -4.45964370000E-01 -2.51672860000E-01

  49  49   1    6 C    -4.45960580000E-01  1.08168460000E-01  2.50687100000E-01

  50  50   1    6 C    -4.45960580000E-01  1.08168460000E-01 -2.49312900000E-01

  51  51   1    6 C    -3.92822150000E-01  5.35559400000E-02  2.51896930000E-01

  52  52   1    6 C    -3.92822150000E-01  5.35559400000E-02 -2.48103070000E-01

  53  53   1    6 C     3.92798670000E-01 -5.33368400000E-02  2.52001490000E-01

  54  54   1    6 C     3.92798670000E-01 -5.33368400000E-02 -2.47998510000E-01

  55  55   1    6 C     4.46287580000E-01  5.36028600000E-02  2.51687840000E-01

  56  56   1    6 C     4.46287580000E-01  5.36028600000E-02 -2.48312160000E-01

  57  57   1    6 C    -4.46283150000E-01 -5.33764400000E-02  2.52494380000E-01

  58  58   1    6 C    -4.46283150000E-01 -5.33764400000E-02 -2.47505620000E-01

  59  59   1    6 C     4.45927910000E-01 -1.08007940000E-01  2.51672890000E-01

  60  60   1    6 C     4.45927910000E-01 -1.08007940000E-01 -2.48327120000E-01

  61  61   1    6 C    -4.45955130000E-01  4.45874550000E-01  2.49312940000E-01

  62  62   1    6 C    -4.45955130000E-01  4.45874550000E-01 -2.50687060000E-01

  63  63   1    6 C    -3.92789780000E-01 -4.46374220000E-01  2.48103100000E-01

  64  64   1    6 C    -3.92789780000E-01 -4.46374220000E-01 -2.51896900000E-01

  65  65   1    6 C     3.92823370000E-01  4.46172030000E-01  2.47998540000E-01

  66  66   1    6 C     3.92823370000E-01  4.46172030000E-01 -2.52001460000E-01

  67  67   1    6 C     4.46287260000E-01  3.92689990000E-01  2.48312180000E-01

  68  68   1    6 C     4.46287260000E-01  3.92689990000E-01 -2.51687810000E-01

  69  69   1    6 C    -4.46257040000E-01 -3.92902000000E-01  2.47505650000E-01

  70  70   1    6 C    -4.46257040000E-01 -3.92902000000E-01 -2.52494350000E-01

  71  71   1    6 C     4.45959980000E-01 -4.46041770000E-01  2.48327140000E-01

  72  72   1    6 C     4.45959980000E-01 -4.46041770000E-01 -2.51672860000E-01

  73  73   1    8 O    -4.39263320000E-01  2.80370630000E-01  2.49686350000E-01

  74  74   1    8 O    -4.39263320000E-01  2.80370630000E-01 -2.50313650000E-01

  75  75   1    8 O    -2.80318300000E-01  2.80378330000E-01  2.52270340000E-01

  76  76   1    8 O    -2.80318300000E-01  2.80378330000E-01 -2.47729670000E-01

  77  77   1    8 O    -2.80320580000E-01  4.39323460000E-01  2.48371960000E-01

  78  78   1    8 O    -2.80320580000E-01  4.39323460000E-01 -2.51628040000E-01

  79  79   1    8 O     2.80324510000E-01 -2.80348890000E-01  2.49686360000E-01

  80  80   1    8 O     2.80324510000E-01 -2.80348890000E-01 -2.50313640000E-01

  81  81   1    8 O     2.80343970000E-01 -4.39304390000E-01  2.52270340000E-01

  82  82   1    8 O     2.80343970000E-01 -4.39304390000E-01 -2.47729660000E-01

  83  83   1    8 O     4.39263840000E-01 -2.80364580000E-01  2.48371950000E-01

  84  84   1    8 O     4.39263840000E-01 -2.80364580000E-01 -2.51628050000E-01

 NUMBER OF SYMMETRY OPERATORS         :    1
 *******************************************************************************
 * GEOMETRY EDITING - INPUT COORDINATES ARE GIVEN IN ANGSTROM         
 *******************************************************************************

 GCALCO - MAX INDICES DIRECT LATTICE VECTOR    12    12    20
 NO.OF VECTORS CREATED 6999 STARS 3500 RMAX   262.87005 BOHR

 GEOMETRY FOR WAVE FUNCTION - DIMENSIONALITY OF THE SYSTEM    3
 (NON PERIODIC DIRECTION: LATTICE PARAMETER FORMALLY SET TO 500)
 *******************************************************************************
 LATTICE PARAMETERS (ANGSTROMS AND DEGREES) - BOHR = 0.5291772083 ANGSTROM
 PRIMITIVE CELL - CENTRING CODE 1/0 VOLUME=  1602.948694 - DENSITY  0.808 g/cm^3
         A              B              C           ALPHA      BETA       GAMMA 
    15.02361100    15.02391600     8.20000000    90.000323  89.999944 119.995964
 *******************************************************************************
 ATOMS IN THE ASYMMETRIC UNIT   84 - ATOMS IN THE UNIT CELL:   84
     ATOM                 X/A                 Y/B                 Z/C    
 *******************************************************************************
      1 T   5 B    -3.863194600000E-01  2.273182200000E-01  2.505825300000E-01
      2 T   5 B    -3.863194600000E-01  2.273182200000E-01 -2.494174700000E-01
      3 T   5 B    -2.272638000000E-01  3.863778800000E-01  2.505825300000E-01
      4 T   5 B    -2.272638000000E-01  3.863778800000E-01 -2.494174700000E-01
      5 T   5 B    -3.863237300000E-01  3.863606700000E-01  2.493577500000E-01
      6 T   5 B    -3.863237300000E-01  3.863606700000E-01 -2.506422400000E-01
      7 T   5 B     2.272552500000E-01 -3.863667800000E-01  2.505825300000E-01
      8 T   5 B     2.272552500000E-01 -3.863667800000E-01 -2.494174600000E-01
      9 T   5 B     3.863632200000E-01 -3.863875500000E-01  2.505825300000E-01
     10 T   5 B     3.863632200000E-01 -3.863875500000E-01 -2.494174700000E-01
     11 T   5 B     3.863435000000E-01 -2.272483500000E-01  2.493577500000E-01
     12 T   5 B     3.863435000000E-01 -2.272483500000E-01 -2.506422400000E-01
     13 T   1 H    -9.695638000000E-02  3.089300500000E-01  2.480433200000E-01
     14 T   1 H    -9.695638000000E-02  3.089300500000E-01 -2.519566800000E-01
     15 T   1 H     9.663453000000E-02 -3.089465600000E-01  2.476550300000E-01
     16 T   1 H     9.663453000000E-02 -3.089465600000E-01 -2.523449700000E-01
     17 T   1 H    -9.702858000000E-02 -4.059275700000E-01  2.475952700000E-01
     18 T   1 H    -9.702858000000E-02 -4.059275700000E-01 -2.524047300000E-01
     19 T   1 H     9.673618000000E-02  4.056849400000E-01  2.476101700000E-01
     20 T   1 H     9.673618000000E-02  4.056849400000E-01 -2.523898200000E-01
     21 T   1 H    -3.089676000000E-01  9.700412000000E-02  2.519567000000E-01
     22 T   1 H    -3.089676000000E-01  9.700412000000E-02 -2.480433000000E-01
     23 T   1 H     3.089297200000E-01 -9.656269000000E-02  2.523450200000E-01
     24 T   1 H     3.089297200000E-01 -9.656269000000E-02 -2.476549800000E-01
     25 T   1 H     4.058699900000E-01  9.704998000000E-02  2.524048100000E-01
     26 T   1 H     4.058699900000E-01  9.704998000000E-02 -2.475951900000E-01
     27 T   1 H    -4.056877900000E-01 -9.665268000000E-02  2.523898100000E-01
     28 T   1 H    -4.056877900000E-01 -9.665268000000E-02 -2.476101900000E-01
     29 T   1 H    -3.089272600000E-01 -4.059457900000E-01  2.480433400000E-01
     30 T   1 H    -3.089272600000E-01 -4.059457900000E-01 -2.519566600000E-01
     31 T   1 H     3.089618300000E-01  4.056093300000E-01  2.476550100000E-01
     32 T   1 H     3.089618300000E-01  4.056093300000E-01 -2.523449900000E-01
     33 T   1 H     4.058405700000E-01  3.088232500000E-01  2.475952200000E-01
     34 T   1 H     4.058405700000E-01  3.088232500000E-01 -2.524047800000E-01
     35 T   1 H    -4.057091200000E-01 -3.090420700000E-01  2.476102200000E-01
     36 T   1 H    -4.057091200000E-01 -3.090420700000E-01 -2.523897800000E-01
     37 T   6 C    -1.081096900000E-01  4.459436900000E-01  2.493129400000E-01
     38 T   6 C    -1.081096900000E-01  4.459436900000E-01 -2.506870600000E-01
     39 T   6 C    -5.351089000000E-02  3.927856300000E-01  2.481030700000E-01
     40 T   6 C    -5.351089000000E-02  3.927856300000E-01 -2.518969200000E-01
     41 T   6 C     5.338812000000E-02 -3.928147000000E-01  2.479985600000E-01
     42 T   6 C     5.338812000000E-02 -3.928147000000E-01 -2.520014400000E-01
     43 T   6 C    -5.354789000000E-02 -4.463078100000E-01  2.483122200000E-01
     44 T   6 C    -5.354789000000E-02 -4.463078100000E-01 -2.516877800000E-01
     45 T   6 C     5.342634000000E-02  4.462499700000E-01  2.475056200000E-01
     46 T   6 C     5.342634000000E-02  4.462499700000E-01 -2.524943800000E-01
     47 T   6 C     1.080358900000E-01 -4.459643700000E-01  2.483271400000E-01
     48 T   6 C     1.080358900000E-01 -4.459643700000E-01 -2.516728600000E-01
     49 T   6 C    -4.459605800000E-01  1.081684600000E-01  2.506871000000E-01
     50 T   6 C    -4.459605800000E-01  1.081684600000E-01 -2.493129000000E-01
     51 T   6 C    -3.928221500000E-01  5.355594000000E-02  2.518969300000E-01
     52 T   6 C    -3.928221500000E-01  5.355594000000E-02 -2.481030700000E-01
     53 T   6 C     3.927986700000E-01 -5.333684000000E-02  2.520014900000E-01
     54 T   6 C     3.927986700000E-01 -5.333684000000E-02 -2.479985100000E-01
     55 T   6 C     4.462875800000E-01  5.360286000000E-02  2.516878400000E-01
     56 T   6 C     4.462875800000E-01  5.360286000000E-02 -2.483121600000E-01
     57 T   6 C    -4.462831500000E-01 -5.337644000000E-02  2.524943800000E-01
     58 T   6 C    -4.462831500000E-01 -5.337644000000E-02 -2.475056200000E-01
     59 T   6 C     4.459279100000E-01 -1.080079400000E-01  2.516728900000E-01
     60 T   6 C     4.459279100000E-01 -1.080079400000E-01 -2.483271200000E-01
     61 T   6 C    -4.459551300000E-01  4.458745500000E-01  2.493129400000E-01
     62 T   6 C    -4.459551300000E-01  4.458745500000E-01 -2.506870600000E-01
     63 T   6 C    -3.927897800000E-01 -4.463742200000E-01  2.481031000000E-01
     64 T   6 C    -3.927897800000E-01 -4.463742200000E-01 -2.518969000000E-01
     65 T   6 C     3.928233700000E-01  4.461720300000E-01  2.479985400000E-01
     66 T   6 C     3.928233700000E-01  4.461720300000E-01 -2.520014600000E-01
     67 T   6 C     4.462872600000E-01  3.926899900000E-01  2.483121800000E-01
     68 T   6 C     4.462872600000E-01  3.926899900000E-01 -2.516878100000E-01
     69 T   6 C    -4.462570400000E-01 -3.929020000000E-01  2.475056500000E-01
     70 T   6 C    -4.462570400000E-01 -3.929020000000E-01 -2.524943500000E-01
     71 T   6 C     4.459599800000E-01 -4.460417700000E-01  2.483271400000E-01
     72 T   6 C     4.459599800000E-01 -4.460417700000E-01 -2.516728600000E-01
     73 T   8 O    -4.392633200000E-01  2.803706300000E-01  2.496863500000E-01
     74 T   8 O    -4.392633200000E-01  2.803706300000E-01 -2.503136500000E-01
     75 T   8 O    -2.803183000000E-01  2.803783300000E-01  2.522703400000E-01
     76 T   8 O    -2.803183000000E-01  2.803783300000E-01 -2.477296700000E-01
     77 T   8 O    -2.803205800000E-01  4.393234600000E-01  2.483719600000E-01
     78 T   8 O    -2.803205800000E-01  4.393234600000E-01 -2.516280400000E-01
     79 T   8 O     2.803245100000E-01 -2.803488900000E-01  2.496863600000E-01
     80 T   8 O     2.803245100000E-01 -2.803488900000E-01 -2.503136400000E-01
     81 T   8 O     2.803439700000E-01 -4.393043900000E-01  2.522703400000E-01
     82 T   8 O     2.803439700000E-01 -4.393043900000E-01 -2.477296600000E-01
     83 T   8 O     4.392638400000E-01 -2.803645800000E-01  2.483719500000E-01
     84 T   8 O     4.392638400000E-01 -2.803645800000E-01 -2.516280500000E-01

 T = ATOM BELONGING TO THE ASYMMETRIC UNIT

 ****    1 SYMMOPS - TRANSLATORS IN FRACTIONAL UNITS
 **** MATRICES AND TRANSLATORS IN THE CRYSTALLOGRAPHIC REFERENCE FRAME
   V INV                    ROTATION MATRICES                   TRANSLATORS
   1   1  1.00  0.00  0.00  0.00  1.00  0.00  0.00  0.00  1.00  0.00  0.00  0.00

 DIRECT LATTICE VECTORS CARTESIAN COMPONENTS (ANGSTROM)
          X                    Y                    Z
   0.130113578931E+02  -0.751088897922E+01   0.000000000000E+00
   0.000000000000E+00   0.150239160000E+02   0.000000000000E+00
  -0.174306773528E-04  -0.462267905665E-04   0.819999999985E+01


 CARTESIAN COORDINATES - PRIMITIVE CELL
 *******************************************************************************
 *      ATOM          X(ANGSTROM)         Y(ANGSTROM)         Z(ANGSTROM)
 *******************************************************************************
    1     5 B    -5.026545122936E+00  6.316800833494E+00  2.054776745963E+00
    2     5 B    -5.026536407597E+00  6.316823946890E+00 -2.045223253963E+00
    3     5 B    -2.957015005759E+00  7.511850400547E+00  2.054776745963E+00
    4     5 B    -2.957006290421E+00  7.511873513942E+00 -2.045223253963E+00
    5     5 B    -5.026600660085E+00 -6.317642629158E+00  2.044733549963E+00
    6     5 B    -5.026591944747E+00 -6.317619515763E+00 -2.055266367963E+00
    7     5 B     2.956895023003E+00 -7.511642584231E+00  2.054776745963E+00
    8     5 B     2.956903738341E+00 -7.511619470836E+00 -2.045223171963E+00
    9     5 B     5.027105764311E+00  6.316919070655E+00  2.054776745963E+00
   10     5 B     5.027114479649E+00  6.316942184051E+00 -2.045223253963E+00
   11     5 B     5.026849201682E+00 -6.315954784889E+00  2.044733549963E+00
   12     5 B     5.026857917020E+00 -6.315931671494E+00 -2.055266367963E+00
   13     1 H    -1.261538483758E+00  5.369556260836E+00  2.033955223963E+00
   14     1 H    -1.261529768420E+00  5.369579374231E+00 -2.066044775963E+00
   15     1 H     1.257342137862E+00 -5.367409840615E+00  2.030771245963E+00
   16     1 H     1.257350853201E+00 -5.367386727220E+00 -2.069228753962E+00
   17     1 H    -1.262477895988E+00 -5.369862267108E+00  2.030281213963E+00
   18     1 H    -1.262469180650E+00 -5.369839153713E+00 -2.069718785962E+00
   19     1 H     1.258664743174E+00  5.368390306548E+00  2.030403393963E+00
   20     1 H     1.258673458513E+00  5.368413419943E+00 -2.069596523962E+00
   21     1 H    -4.020092412735E+00  3.777991445159E+00  2.066044939963E+00
   22     1 H    -4.020083697396E+00  3.778014558555E+00 -2.033955059963E+00
   23     1 H     4.019590752177E+00 -3.771098237695E+00  2.069229163962E+00
   24     1 H     4.019599467516E+00 -3.771075124300E+00 -2.030770835963E+00
   25     1 H     5.280915298354E+00 -1.590385355428E+00  2.069719441962E+00
   26     1 H     5.280924013693E+00 -1.590362242033E+00 -2.030280557963E+00
   27     1 H    -5.278553427859E+00  1.594962538248E+00  2.069596441962E+00
   28     1 H    -5.278544712520E+00  1.594985651643E+00 -2.030403557963E+00
   29     1 H    -4.019567466345E+00 -3.778588563248E+00  2.033955387963E+00
   30     1 H    -4.019558751006E+00 -3.778565449852E+00 -2.066044611963E+00
   31     1 H     4.020008628629E+00  3.773251050494E+00  2.030771081963E+00
   32     1 H     4.020017343968E+00  3.773274163890E+00 -2.069228917962E+00
   33     1 H     5.280532588040E+00  1.591499656783E+00  2.030280803963E+00
   34     1 H     5.280541303378E+00  1.591522770178E+00 -2.069719195962E+00
   35     1 H    -5.278830876811E+00 -1.595797388196E+00  2.030403803963E+00
   36     1 H    -5.278822161472E+00 -1.595774274801E+00 -2.069596195962E+00
   37     6 C    -1.406658213991E+00  7.511808893520E+00  2.044366107963E+00
   38     6 C    -1.406649498652E+00  7.511832006916E+00 -2.055633891963E+00
   39     6 C    -6.962536655705E-01  6.303081196087E+00  2.034445173963E+00
   40     6 C    -6.962449502320E-01  6.303104309482E+00 -2.065554743963E+00
   41     6 C     6.946476137746E-01 -6.302618762672E+00  2.033588191963E+00
   42     6 C     6.946563291132E-01 -6.302595649276E+00 -2.066411807962E+00
   43     6 C    -6.967350894582E-01 -6.303110269400E+00  2.036160203963E+00
   44     6 C    -6.967263741195E-01 -6.303087156004E+00 -2.063839795963E+00
   45     6 C     6.951449164655E-01  6.303131314586E+00  2.029546083963E+00
   46     6 C     6.951536318042E-01  6.303154427981E+00 -2.070453915962E+00
   47     6 C     1.405689301575E+00 -7.511588288800E+00  2.036282547963E+00
   48     6 C     1.405698016913E+00 -7.511565175405E+00 -2.063717451963E+00
   49     6 C     7.208800810836E+00 -2.536226305300E+00  2.055634219963E+00
   50     6 C     7.208809526174E+00 -2.536203191905E+00 -2.044365779963E+00
   51     6 C    -5.111153972704E+00  3.755051856702E+00  2.065554825963E+00
   52     6 C    -5.111145257365E+00  3.755074970097E+00 -2.034445173963E+00
   53     6 C     5.110839682730E+00 -3.751607054639E+00  2.066412217962E+00
   54     6 C     5.110848398069E+00 -3.751583941244E+00 -2.033587781963E+00
   55     6 C     5.806803039517E+00 -2.546703234904E+00  2.063840287963E+00
   56     6 C     5.806811754855E+00 -2.546680121509E+00 -2.036159711963E+00
   57     6 C    -5.806754187439E+00  2.550048370001E+00  2.070453915962E+00
   58     6 C    -5.806745472100E+00  2.550071483396E+00 -2.029546083963E+00
   59     6 C     5.802123244684E+00 -4.972028876667E+00  2.063717697963E+00
   60     6 C     5.802131960023E+00 -4.972005763271E+00 -2.036282383963E+00
   61     6 C     7.208871746689E+00  2.537400752726E+00  2.044366107963E+00
   62     6 C     7.208880462027E+00  2.537423866122E+00 -2.055633891963E+00
   63     6 C    -5.110732728920E+00 -3.756099825105E+00  2.034445419963E+00
   64     6 C    -5.110724013581E+00 -3.756076711709E+00 -2.065554579963E+00
   65     6 C     5.111161133044E+00  3.752786915581E+00  2.033588027963E+00
   66     6 C     5.111169848383E+00  3.752810028977E+00 -2.066411971962E+00
   67     6 C     5.806798934722E+00  2.547715882427E+00  2.036159875963E+00
   68     6 C     5.806807650061E+00  2.547738995822E+00 -2.063840041963E+00
   69     6 C    -5.806414373927E+00 -2.551151001990E+00  2.029546329963E+00
   70     6 C    -5.806405658589E+00 -2.551127888595E+00 -2.070453669962E+00
   71     6 C     5.802540577250E+00  4.973054536708E+00  2.036282547963E+00
   72     6 C     5.802549292589E+00  4.973077650104E+00 -2.063717451963E+00
   73     8 O     7.295941275042E+00  6.223017340462E-04  2.047428069963E+00
   74     8 O     7.295949990381E+00  6.454151293294E-04 -2.052571929963E+00
   75     8 O    -3.647326122516E+00  6.317808446635E+00  2.068616787962E+00
   76     8 O    -3.647317407177E+00  6.317831560031E+00 -2.031383293963E+00
   77     8 O    -3.647355720461E+00 -6.318111966600E+00  2.036650071963E+00
   78     8 O    -3.647347005122E+00 -6.318088853204E+00 -2.063349927963E+00
   79     8 O     3.647398173603E+00 -6.317435989016E+00  2.047428151963E+00
   80     8 O     3.647406888942E+00 -6.317412875620E+00 -2.052571847963E+00
   81     8 O     3.647651329587E+00  6.318199649898E+00  2.068616787962E+00
   82     8 O     3.647660044926E+00  6.318222763293E+00 -2.031383211963E+00
   83     8 O    -7.295943190630E+00 -5.583363412392E-04  2.036649989963E+00
   84     8 O    -7.295934475291E+00 -5.352229459542E-04 -2.063350009963E+00

 *******************************************************************************
 STARTING BASIS SET HANDLING 
 *******************************************************************************

 Loading internal basis set: SOLDEF2MSVP         

 Please cite in your publication:
 L. Dona', J. G. Brandenburg and B. Civalleri, J. Chem. Phys., 151, 121101 (2019
 )                                                                              
                                                                                
                    

 *******************************************************************************
 LOCAL ATOMIC FUNCTIONS BASIS SET
 *******************************************************************************
   ATOM   X(AU)   Y(AU)   Z(AU)  N. TYPE  EXPONENT  S COEF   P COEF   D/F/G COEF
 *******************************************************************************
   1 B   -9.499  11.937   3.883
                                  1 S  
                                         2.410E+03 1.755E-03 0.000E+00 0.000E+00
                                         3.619E+02 1.344E-02 0.000E+00 0.000E+00
                                         8.231E+01 6.637E-02 0.000E+00 0.000E+00
                                         2.311E+01 2.303E-01 0.000E+00 0.000E+00
                                         7.252E+00 5.150E-01 0.000E+00 0.000E+00
                                  2 S  
                                         2.367E+00 1.000E+00 0.000E+00 0.000E+00
                                  3 S  
                                         5.533E-01 1.000E+00 0.000E+00 0.000E+00
                                  4 S  
                                         1.716E-01 1.000E+00 0.000E+00 0.000E+00
                           5-     7 P  
                                         6.002E+00 0.000E+00-3.555E-02 0.000E+00
                                         1.240E+00 0.000E+00-1.983E-01 0.000E+00
                                         3.367E-01 0.000E+00-5.048E-01 0.000E+00
                           8-    10 P  
                                         1.256E-01 0.000E+00 1.000E+00 0.000E+00
                          11-    15 D  
                                         8.880E-01 0.000E+00 0.000E+00 1.000E+00
   2 B   -9.499  11.937  -3.865
   3 B   -5.588  14.195   3.883
   4 B   -5.588  14.195  -3.865
   5 B   -9.499 -11.939   3.864
   6 B   -9.499 -11.939  -3.884
   7 B    5.588 -14.195   3.883
   8 B    5.588 -14.195  -3.865
   9 B    9.500  11.937   3.883
  10 B    9.500  11.937  -3.865
  11 B    9.499 -11.935   3.864
  12 B    9.499 -11.935  -3.884
  13 H   -2.384  10.147   3.844
                                181 S  
                                         1.874E+01 1.968E-02 0.000E+00 0.000E+00
                                         2.826E+00 1.380E-01 0.000E+00 0.000E+00
                                         6.401E-01 4.783E-01 0.000E+00 0.000E+00
                                182 S  
                                         1.756E-01 1.000E+00 0.000E+00 0.000E+00
  14 H   -2.384  10.147  -3.904
  15 H    2.376 -10.143   3.838
  16 H    2.376 -10.143  -3.910
  17 H   -2.386 -10.148   3.837
  18 H   -2.386 -10.148  -3.911
  19 H    2.379  10.145   3.837
  20 H    2.379  10.145  -3.911
  21 H   -7.597   7.139   3.904
  22 H   -7.597   7.139  -3.844
  23 H    7.596  -7.126   3.910
  24 H    7.596  -7.126  -3.838
  25 H    9.979  -3.005   3.911
  26 H    9.980  -3.005  -3.837
  27 H   -9.975   3.014   3.911
  28 H   -9.975   3.014  -3.837
  29 H   -7.596  -7.140   3.844
  30 H   -7.596  -7.140  -3.904
  31 H    7.597   7.130   3.838
  32 H    7.597   7.130  -3.910
  33 H    9.979   3.007   3.837
  34 H    9.979   3.008  -3.911
  35 H   -9.976  -3.016   3.837
  36 H   -9.976  -3.016  -3.911
  37 C   -2.658  14.195   3.863
                                229 S  
                                         3.624E+03 1.634E-03 0.000E+00 0.000E+00
                                         5.440E+02 1.252E-02 0.000E+00 0.000E+00
                                         1.237E+02 6.211E-02 0.000E+00 0.000E+00
                                         3.476E+01 2.182E-01 0.000E+00 0.000E+00
                                         1.093E+01 4.980E-01 0.000E+00 0.000E+00
                                230 S  
                                         3.574E+00 1.000E+00 0.000E+00 0.000E+00
                                231 S  
                                         7.742E-01 1.000E+00 0.000E+00 0.000E+00
                                232 S  
                                         2.330E-01 1.000E+00 0.000E+00 0.000E+00
                         233-   235 P  
                                         9.443E+00 0.000E+00 3.790E-02 0.000E+00
                                         2.002E+00 0.000E+00 2.082E-01 0.000E+00
                                         5.463E-01 0.000E+00 5.047E-01 0.000E+00
                         236-   238 P  
                                         1.820E-01 0.000E+00 1.000E+00 0.000E+00
                         239-   243 D  
                                         8.880E-01 0.000E+00 0.000E+00 1.000E+00
  38 C   -2.658  14.195  -3.885
  39 C   -1.316  11.911   3.845
  40 C   -1.316  11.911  -3.903
  41 C    1.313 -11.910   3.843
  42 C    1.313 -11.910  -3.905
  43 C   -1.317 -11.911   3.848
  44 C   -1.317 -11.911  -3.900
  45 C    1.314  11.911   3.835
  46 C    1.314  11.911  -3.913
  47 C    2.656 -14.195   3.848
  48 C    2.656 -14.195  -3.900
  49 C   13.623  -4.793   3.885
  50 C   13.623  -4.793  -3.863
  51 C   -9.659   7.096   3.903
  52 C   -9.659   7.096  -3.845
  53 C    9.658  -7.090   3.905
  54 C    9.658  -7.089  -3.843
  55 C   10.973  -4.813   3.900
  56 C   10.973  -4.813  -3.848
  57 C  -10.973   4.819   3.913
  58 C  -10.973   4.819  -3.835
  59 C   10.964  -9.396   3.900
  60 C   10.964  -9.396  -3.848
  61 C   13.623   4.795   3.863
  62 C   13.623   4.795  -3.885
  63 C   -9.658  -7.098   3.845
  64 C   -9.658  -7.098  -3.903
  65 C    9.659   7.092   3.843
  66 C    9.659   7.092  -3.905
  67 C   10.973   4.814   3.848
  68 C   10.973   4.815  -3.900
  69 C  -10.973  -4.821   3.835
  70 C  -10.973  -4.821  -3.913
  71 C   10.965   9.398   3.848
  72 C   10.965   9.398  -3.900
  73 O   13.787   0.001   3.869
                                769 S  
                                         6.773E+03 1.727E-03 0.000E+00 0.000E+00
                                         1.017E+03 1.325E-02 0.000E+00 0.000E+00
                                         2.313E+02 6.603E-02 0.000E+00 0.000E+00
                                         6.501E+01 2.353E-01 0.000E+00 0.000E+00
                                         2.050E+01 5.498E-01 0.000E+00 0.000E+00
                                770 S  
                                         6.716E+00 1.000E+00 0.000E+00 0.000E+00
                                771 S  
                                         1.147E+00 1.000E+00 0.000E+00 0.000E+00
                                772 S  
                                         3.342E-01 1.000E+00 0.000E+00 0.000E+00
                         773-   775 P  
                                         1.769E+01 0.000E+00 4.359E-02 0.000E+00
                                         3.854E+00 0.000E+00 2.318E-01 0.000E+00
                                         1.047E+00 0.000E+00 5.146E-01 0.000E+00
                         776-   778 P  
                                         2.759E-01 0.000E+00 1.000E+00 0.000E+00
                         779-   783 D  
                                         8.000E-01 0.000E+00 0.000E+00 1.000E+00
  74 O   13.787   0.001  -3.879
  75 O   -6.892  11.939   3.909
  76 O   -6.892  11.939  -3.839
  77 O   -6.893 -11.940   3.849
  78 O   -6.892 -11.939  -3.899
  79 O    6.893 -11.938   3.869
  80 O    6.893 -11.938  -3.879
  81 O    6.893  11.940   3.909
  82 O    6.893  11.940  -3.839
  83 O  -13.787  -0.001   3.849
  84 O  -13.787  -0.001  -3.899

 *******************************************************************************
 FINISHED BASIS SET HANDLING 
 *******************************************************************************

 INFORMATION **** SET_MPP **** PCRYSTAL CALCULATION
 INFORMATION **** READM2 **** NEW DEFAULT: FOCK/KS MATRIX MIXING SET TO 30 %
 INFORMATION **** READM2 **** NEW DEFAULT: FULL DIRECT SCF MODE
 INFORMATION **** READM2 **** NEW DEFAULT: COULOMB BIPOLAR BUFFER SET TO 32 Mb
 INFORMATION **** READM2 **** NEW DEFAULT: EXCHANGE BIPOLAR BUFFER SET TO 32 Mb

 *******************************************************************************
 NEW DEFAULT: DFT INTEGRATION GRID INCREASED TO XLGRID
 NEW DEFAULT: DIIS ACCELERATOR ACTIVE
 USE KEYWORD NODIIS TO TURN IT OFF
 *******************************************************************************

 WARNING **** RDDFTP **** HSEsol-HJS ACTIVE
 RANGE SEPARATION - OMEGA:   0.110000000000000     
 WARNING **** RDDFTP **** HSEsol-3c has to be combined with sol-def2-mSVP basis set
 *******************************************************************************
 N. OF ATOMS PER CELL        84  COULOMB OVERLAP TOL         (T1) 10**   -6
 NUMBER OF SHELLS           468  COULOMB PENETRATION TOL     (T2) 10**   -6
 NUMBER OF AO               948  EXCHANGE OVERLAP TOL        (T3) 10**   -6
 N. OF ELECTRONS PER CELL   396  EXCHANGE PSEUDO OVP (F(G))  (T4) 10**   -6
 CORE ELECTRONS PER CELL    120  EXCHANGE PSEUDO OVP (P(G))  (T5) 10**  -12
 N. OF SYMMETRY OPERATORS     1  POLE ORDER IN MONO ZONE                  4
 *******************************************************************************
 TYPE OF CALCULATION :  RESTRICTED CLOSED SHELL
 KOHN-SHAM HAMILTONIAN

 (EXCHANGE)[CORRELATION] FUNCTIONAL:(HSEsol GGA)[PBEsol]

 RANGE-SEPARATED HYBRID FUNCTIONAL 
 OMEGA (SHORT-RANGE)[LONG-RANGE]:(    0.1100)[    0.0000]

 HYBRID EXCHANGE - PERCENTAGE OF FOCK EXCHANGE    25.0000

 CAPPA:IS1  2;IS2  2;IS3  8; K PTS MONK NET  20; SYMMOPS:K SPACE   2;G SPACE   1

 *******************************************************************************
 MAX NUMBER OF SCF CYCLES      50  CONVERGENCE ON DELTAP        10**-16
 WEIGHT OF F(I) IN F(I+1)      30% CONVERGENCE ON ENERGY        10**- 6
 SHRINK. FACT.(MONKH.)    2  2  8  NUMBER OF K POINTS IN THE IBZ     20
 SHRINKING FACTOR(GILAT NET)    8  NUMBER OF K POINTS(GILAT NET)   1028
 *******************************************************************************
 *** K POINTS COORDINATES (OBLIQUE COORDINATES IN UNITS OF IS =  2)
   1-R(  0  0  0)   2-R(  1  0  0)   3-R(  0  1  0)   4-R(  1  1  0)
   5-C(  0  0  1)   6-C(  1  0  1)   7-C(  0  1  1)   8-C(  1  1  1)
   9-C(  0  0  2)  10-C(  1  0  2)  11-C(  0  1  2)  12-C(  1  1  2)
  13-C(  0  0  3)  14-C(  1  0  3)  15-C(  0  1  3)  16-C(  1  1  3)
  17-R(  0  0  4)  18-R(  1  0  4)  19-R(  0  1  4)  20-R(  1  1  4)

 DIRECT LATTICE VECTORS COMPON. (A.U.)     RECIP. LATTICE VECTORS COMPON. (A.U.) 
        X            Y            Z              X            Y            Z
   24.5879030  -14.1935232    0.0000000      0.2555397    0.0000000    0.0000005
    0.0000000   28.3910867    0.0000000      0.1277517    0.2213084    0.0000015
   -0.0000329   -0.0000874   15.4957543      0.0000000    0.0000000    0.4054779

 DISK SPACE FOR EIGENVECTORS (FTN 10)    28758528 REALS

 SYMMETRY ADAPTION OF THE BLOCH FUNCTIONS DISABLED
 TTTTTTTTTTTTTTTTTTTTTTTTTTTTTT gordsh1     TELAPSE        0.06 TCPU        0.06

 MATRIX SIZE: P(G)  652076, F(G)  139046, P(G) IRR  327940, F(G) IRR  140006
 MAX G-VECTOR INDEX FOR 1- AND 2-ELECTRON INTEGRALS  47

 TTTTTTTTTTTTTTTTTTTTTTTTTTTTTT INPUT       TELAPSE        2.88 TCPU        2.87

 NEIGHBORS OF THE NON-EQUIVALENT ATOMS

 N = NUMBER OF NEIGHBORS AT DISTANCE R
    ATOM  N     R/ANG      R/AU   NEIGHBORS (ATOM LABELS AND CELL INDICES)
   1 B    1     1.3791     2.6061   73 O   -1 0 0
   1 B    1     1.3793     2.6065   75 O    0 0 0
   1 B    1     1.5503     2.9297   49 C   -1 0 0
   1 B    1     2.3895     4.5155    5 B    0 1 0
   1 B    1     2.3898     4.5160    3 B    0 0 0
   1 B    1     2.5632     4.8437   51 C    0 0 0

   2 B    1     1.3791     2.6061   74 O   -1 0 0
   2 B    1     1.3793     2.6065   76 O    0 0 0
   2 B    1     1.5503     2.9297   50 C   -1 0 0
   2 B    1     2.3895     4.5155    6 B    0 1 0
   2 B    1     2.3898     4.5160    4 B    0 0 0
   2 B    1     2.5632     4.8437   52 C    0 0 0

   3 B    1     1.3793     2.6065   77 O    0 1 0
   3 B    1     1.3793     2.6065   75 O    0 0 0
   3 B    1     1.5504     2.9298   37 C    0 0 0
   3 B    1     2.3895     4.5156    5 B    0 1 0
   3 B    1     2.3898     4.5160    1 B    0 0 0
   3 B    1     2.5634     4.8440   43 C    0 1 0

   4 B    1     1.3793     2.6065   78 O    0 1 0
   4 B    1     1.3793     2.6065   76 O    0 0 0
   4 B    1     1.5504     2.9298   38 C    0 0 0
   4 B    1     2.3895     4.5156    6 B    0 1 0
   4 B    1     2.3898     4.5160    2 B    0 0 0
   4 B    1     2.5634     4.8440   44 C    0 1 0

   5 B    1     1.3791     2.6061   73 O   -1-1 0
   5 B    1     1.3793     2.6064   77 O    0 0 0
   5 B    1     1.5502     2.9294   61 C   -1-1 0
   5 B    1     2.3895     4.5155    1 B    0-1 0
   5 B    1     2.3895     4.5156    3 B    0-1 0
   5 B    1     2.5629     4.8433   63 C    0 0 0

   6 B    1     1.3791     2.6061   74 O   -1-1 0
   6 B    1     1.3793     2.6064   78 O    0 0 0
   6 B    1     1.5502     2.9294   62 C   -1-1 0
   6 B    1     2.3895     4.5155    2 B    0-1 0
   6 B    1     2.3895     4.5156    4 B    0-1 0
   6 B    1     2.5629     4.8433   64 C    0 0 0

   7 B    1     1.3795     2.6068   79 O    0 0 0
   7 B    1     1.3795     2.6070   81 O    0-1 0
   7 B    1     1.5513     2.9316   47 C    0 0 0
   7 B    1     2.3905     4.5174   11 B    0 0 0
   7 B    1     2.3905     4.5175    9 B    0-1 0
   7 B    1     2.5648     4.8468   45 C    0-1 0

   8 B    1     1.3795     2.6068   80 O    0 0 0
   8 B    1     1.3795     2.6070   82 O    0-1 0
   8 B    1     1.5513     2.9316   48 C    0 0 0
   8 B    1     2.3905     4.5174   12 B    0 0 0
   8 B    1     2.3905     4.5175   10 B    0-1 0
   8 B    1     2.5648     4.8468   46 C    0-1 0

   9 B    1     1.3795     2.6069   81 O    0 0 0
   9 B    1     1.3797     2.6072   83 O    1 1 0
   9 B    1     1.5516     2.9322   71 C    0 0 0
   9 B    1     2.3905     4.5175    7 B    0 1 0
   9 B    1     2.3911     4.5185   11 B    0 1 0
   9 B    1     2.5651     4.8473   69 C    1 1 0

  10 B    1     1.3795     2.6069   82 O    0 0 0
  10 B    1     1.3797     2.6072   84 O    1 1 0
  10 B    1     1.5516     2.9322   72 C    0 0 0
  10 B    1     2.3905     4.5175    8 B    0 1 0
  10 B    1     2.3911     4.5185   12 B    0 1 0
  10 B    1     2.5651     4.8473   70 C    1 1 0

  11 B    1     1.3795     2.6068   79 O    0 0 0
  11 B    1     1.3796     2.6071   83 O    1 0 0
  11 B    1     1.5516     2.9322   59 C    0 0 0
  11 B    1     2.3905     4.5174    7 B    0 0 0
  11 B    1     2.3911     4.5185    9 B    0-1 0
  11 B    1     2.5651     4.8473   57 C    1 0 0

  12 B    1     1.3795     2.6068   80 O    0 0 0
  12 B    1     1.3796     2.6071   84 O    1 0 0
  12 B    1     1.5516     2.9322   60 C    0 0 0
  12 B    1     2.3905     4.5174    8 B    0 0 0
  12 B    1     2.3911     4.5185   10 B    0-1 0
  12 B    1     2.5651     4.8473   58 C    1 0 0

  13 H    1     1.0913     2.0623   39 C    0 0 0
  13 H    1     2.1472     4.0576   37 C    0 0 0
  13 H    1     2.1680     4.0969   45 C    0 0 0
  13 H    1     2.5202     4.7625   19 H    0 0 0
  13 H    1     2.5676     4.8520   75 O    0 0 0
  13 H    1     2.7321     5.1630    3 B    0 0 0

  14 H    1     1.0913     2.0623   40 C    0 0 0
  14 H    1     2.1472     4.0576   38 C    0 0 0
  14 H    1     2.1680     4.0969   46 C    0 0 0
  14 H    1     2.5202     4.7625   20 H    0 0 0
  14 H    1     2.5676     4.8520   76 O    0 0 0
  14 H    1     2.7321     5.1630    4 B    0 0 0

  15 H    1     1.0914     2.0625   41 C    0 0 0
  15 H    1     2.1493     4.0616   47 C    0 0 0
  15 H    1     2.1666     4.0942   43 C    0 0 0
  15 H    1     2.5198     4.7618   17 H    0 0 0
  15 H    1     2.5720     4.8604   79 O    0 0 0
  15 H    1     2.7362     5.1707    7 B    0 0 0

  16 H    1     1.0914     2.0625   42 C    0 0 0
  16 H    1     2.1493     4.0616   48 C    0 0 0
  16 H    1     2.1666     4.0942   44 C    0 0 0
  16 H    1     2.5198     4.7618   18 H    0 0 0
  16 H    1     2.5720     4.8604   80 O    0 0 0
  16 H    1     2.7362     5.1707    8 B    0 0 0

  17 H    1     1.0914     2.0624   43 C    0 0 0
  17 H    1     2.1471     4.0575   37 C    0-1 0
  17 H    1     2.1680     4.0970   41 C    0 0 0
  17 H    1     2.5198     4.7618   15 H    0 0 0
  17 H    1     2.5665     4.8500   77 O    0 0 0
  17 H    1     2.7315     5.1618    3 B    0-1 0

  18 H    1     1.0914     2.0624   44 C    0 0 0
  18 H    1     2.1471     4.0575   38 C    0-1 0
  18 H    1     2.1680     4.0970   42 C    0 0 0
  18 H    1     2.5198     4.7618   16 H    0 0 0
  18 H    1     2.5665     4.8500   78 O    0 0 0
  18 H    1     2.7315     5.1618    4 B    0-1 0

  19 H    1     1.0915     2.0626   45 C    0 0 0
  19 H    1     2.1490     4.0610   47 C    0 1 0
  19 H    1     2.1669     4.0948   39 C    0 0 0
  19 H    1     2.5202     4.7625   13 H    0 0 0
  19 H    1     2.5712     4.8588   81 O    0 0 0
  19 H    1     2.7351     5.1686    7 B    0 1 0

  20 H    1     1.0915     2.0626   46 C    0 0 0
  20 H    1     2.1490     4.0610   48 C    0 1 0
  20 H    1     2.1669     4.0948   40 C    0 0 0
  20 H    1     2.5202     4.7625   14 H    0 0 0
  20 H    1     2.5712     4.8588   82 O    0 0 0
  20 H    1     2.7351     5.1686    8 B    0 1 0

  21 H    1     1.0913     2.0623   51 C    0 0 0
  21 H    1     2.1469     4.0571   49 C   -1 0 0
  21 H    1     2.1680     4.0968   57 C    0 0 0
  21 H    1     2.5198     4.7617   27 H    0 0 0
  21 H    1     2.5670     4.8510   75 O    0 0 0
  21 H    1     2.7310     5.1609    1 B    0 0 0

  22 H    1     1.0913     2.0623   52 C    0 0 0
  22 H    1     2.1469     4.0571   50 C   -1 0 0
  22 H    1     2.1680     4.0968   58 C    0 0 0
  22 H    1     2.5198     4.7617   28 H    0 0 0
  22 H    1     2.5670     4.8510   76 O    0 0 0
  22 H    1     2.7310     5.1609    2 B    0 0 0

  23 H    1     1.0914     2.0625   53 C    0 0 0
  23 H    1     2.1493     4.0617   59 C    0 0 0
  23 H    1     2.1664     4.0939   55 C    0 0 0
  23 H    1     2.5192     4.7606   25 H    0 0 0
  23 H    1     2.5735     4.8632   79 O    0 0 0
  23 H    1     2.7371     5.1723   11 B    0 0 0

  24 H    1     1.0914     2.0625   54 C    0 0 0
  24 H    1     2.1493     4.0617   60 C    0 0 0
  24 H    1     2.1664     4.0939   56 C    0 0 0
  24 H    1     2.5192     4.7606   26 H    0 0 0
  24 H    1     2.5735     4.8632   80 O    0 0 0
  24 H    1     2.7371     5.1723   12 B    0 0 0

  25 H    1     1.0914     2.0624   55 C    0 0 0
  25 H    1     2.1475     4.0581   49 C    0 0 0
  25 H    1     2.1679     4.0967   53 C    0 0 0
  25 H    1     2.5192     4.7606   23 H    0 0 0
  25 H    1     2.5675     4.8519   73 O    0 0 0
  25 H    1     2.7328     5.1643    1 B    1 0 0

  26 H    1     1.0914     2.0624   56 C    0 0 0
  26 H    1     2.1475     4.0581   50 C    0 0 0
  26 H    1     2.1679     4.0967   54 C    0 0 0
  26 H    1     2.5192     4.7606   24 H    0 0 0
  26 H    1     2.5675     4.8519   74 O    0 0 0
  26 H    1     2.7328     5.1643    2 B    1 0 0

  27 H    1     1.0914     2.0625   57 C    0 0 0
  27 H    1     2.1491     4.0612   59 C   -1 0 0
  27 H    1     2.1666     4.0942   51 C    0 0 0
  27 H    1     2.5198     4.7617   21 H    0 0 0
  27 H    1     2.5723     4.8609   83 O    0 0 0
  27 H    1     2.7355     5.1693   11 B   -1 0 0

  28 H    1     1.0914     2.0625   58 C    0 0 0
  28 H    1     2.1491     4.0612   60 C   -1 0 0
  28 H    1     2.1666     4.0942   52 C    0 0 0
  28 H    1     2.5198     4.7617   22 H    0 0 0
  28 H    1     2.5723     4.8609   84 O    0 0 0
  28 H    1     2.7355     5.1693   12 B   -1 0 0

  29 H    1     1.0914     2.0624   63 C    0 0 0
  29 H    1     2.1475     4.0582   61 C   -1-1 0
  29 H    1     2.1678     4.0966   69 C    0 0 0
  29 H    1     2.5200     4.7621   35 H    0 0 0
  29 H    1     2.5667     4.8503   77 O    0 0 0
  29 H    1     2.7315     5.1618    5 B    0 0 0

  30 H    1     1.0914     2.0624   64 C    0 0 0
  30 H    1     2.1475     4.0582   62 C   -1-1 0
  30 H    1     2.1678     4.0966   70 C    0 0 0
  30 H    1     2.5200     4.7621   36 H    0 0 0
  30 H    1     2.5667     4.8503   78 O    0 0 0
  30 H    1     2.7315     5.1618    6 B    0 0 0

  31 H    1     1.0913     2.0623   65 C    0 0 0
  31 H    1     2.1487     4.0605   71 C    0 0 0
  31 H    1     2.1667     4.0945   67 C    0 0 0
  31 H    1     2.5197     4.7616   33 H    0 0 0
  31 H    1     2.5723     4.8610   81 O    0 0 0
  31 H    1     2.7359     5.1701    9 B    0 0 0

  32 H    1     1.0913     2.0623   66 C    0 0 0
  32 H    1     2.1487     4.0605   72 C    0 0 0
  32 H    1     2.1667     4.0945   68 C    0 0 0
  32 H    1     2.5197     4.7616   34 H    0 0 0
  32 H    1     2.5723     4.8610   82 O    0 0 0
  32 H    1     2.7359     5.1701   10 B    0 0 0

  33 H    1     1.0915     2.0626   67 C    0 0 0
  33 H    1     2.1479     4.0589   61 C    0 0 0
  33 H    1     2.1679     4.0968   65 C    0 0 0
  33 H    1     2.5197     4.7616   31 H    0 0 0
  33 H    1     2.5677     4.8522   73 O    0 0 0
  33 H    1     2.7331     5.1648    5 B    1 1 0

  34 H    1     1.0915     2.0626   68 C    0 0 0
  34 H    1     2.1479     4.0589   62 C    0 0 0
  34 H    1     2.1679     4.0968   66 C    0 0 0
  34 H    1     2.5197     4.7616   32 H    0 0 0
  34 H    1     2.5677     4.8522   74 O    0 0 0
  34 H    1     2.7331     5.1648    6 B    1 1 0

  35 H    1     1.0914     2.0624   69 C    0 0 0
  35 H    1     2.1486     4.0602   71 C   -1-1 0
  35 H    1     2.1668     4.0947   63 C    0 0 0
  35 H    1     2.5200     4.7621   29 H    0 0 0
  35 H    1     2.5717     4.8598   83 O    0 0 0
  35 H    1     2.7349     5.1682    9 B   -1-1 0

  36 H    1     1.0914     2.0624   70 C    0 0 0
  36 H    1     2.1486     4.0602   72 C   -1-1 0
  36 H    1     2.1668     4.0947   64 C    0 0 0
  36 H    1     2.5200     4.7621   30 H    0 0 0
  36 H    1     2.5717     4.8598   84 O    0 0 0
  36 H    1     2.7349     5.1682   10 B   -1-1 0

  37 C    1     1.4020     2.6495   43 C    0 1 0
  37 C    1     1.4021     2.6495   39 C    0 0 0
  37 C    1     1.5504     2.9298    3 B    0 0 0
  37 C    1     2.1471     4.0575   17 H    0 1 0
  37 C    1     2.1472     4.0576   13 H    0 0 0
  37 C    1     2.4246     4.5817   41 C    0 1 0

  38 C    1     1.4020     2.6495   44 C    0 1 0
  38 C    1     1.4021     2.6495   40 C    0 0 0
  38 C    1     1.5504     2.9298    4 B    0 0 0
  38 C    1     2.1471     4.0575   18 H    0 1 0
  38 C    1     2.1472     4.0576   14 H    0 0 0
  38 C    1     2.4246     4.5817   42 C    0 1 0

  39 C    1     1.0913     2.0623   13 H    0 0 0
  39 C    1     1.3914     2.6294   45 C    0 0 0
  39 C    1     1.4021     2.6495   37 C    0 0 0
  39 C    1     2.1669     4.0948   19 H    0 0 0
  39 C    1     2.4177     4.5688   43 C    0 1 0
  39 C    1     2.4250     4.5825   47 C    0 1 0

  40 C    1     1.0913     2.0623   14 H    0 0 0
  40 C    1     1.3914     2.6294   46 C    0 0 0
  40 C    1     1.4021     2.6495   38 C    0 0 0
  40 C    1     2.1669     4.0948   20 H    0 0 0
  40 C    1     2.4177     4.5688   44 C    0 1 0
  40 C    1     2.4250     4.5825   48 C    0 1 0

  41 C    1     1.0914     2.0625   15 H    0 0 0
  41 C    1     1.3914     2.6293   43 C    0 0 0
  41 C    1     1.4026     2.6505   47 C    0 0 0
  41 C    1     2.1680     4.0970   17 H    0 0 0
  41 C    1     2.4182     4.5697   45 C    0-1 0
  41 C    1     2.4246     4.5817   37 C    0-1 0

  42 C    1     1.0914     2.0625   16 H    0 0 0
  42 C    1     1.3914     2.6293   44 C    0 0 0
  42 C    1     1.4026     2.6505   48 C    0 0 0
  42 C    1     2.1680     4.0970   18 H    0 0 0
  42 C    1     2.4182     4.5697   46 C    0-1 0
  42 C    1     2.4246     4.5817   38 C    0-1 0

  43 C    1     1.0914     2.0624   17 H    0 0 0
  43 C    1     1.3914     2.6293   41 C    0 0 0
  43 C    1     1.4020     2.6495   37 C    0-1 0
  43 C    1     2.1666     4.0942   15 H    0 0 0
  43 C    1     2.4177     4.5688   39 C    0-1 0
  43 C    1     2.4250     4.5826   47 C    0 0 0

  44 C    1     1.0914     2.0624   18 H    0 0 0
  44 C    1     1.3914     2.6293   42 C    0 0 0
  44 C    1     1.4020     2.6495   38 C    0-1 0
  44 C    1     2.1666     4.0942   16 H    0 0 0
  44 C    1     2.4177     4.5688   40 C    0-1 0
  44 C    1     2.4250     4.5826   48 C    0 0 0

  45 C    1     1.0915     2.0626   19 H    0 0 0
  45 C    1     1.3914     2.6294   39 C    0 0 0
  45 C    1     1.4025     2.6504   47 C    0 1 0
  45 C    1     2.1680     4.0969   13 H    0 0 0
  45 C    1     2.4182     4.5697   41 C    0 1 0
  45 C    1     2.4246     4.5818   37 C    0 0 0

  46 C    1     1.0915     2.0626   20 H    0 0 0
  46 C    1     1.3914     2.6294   40 C    0 0 0
  46 C    1     1.4025     2.6504   48 C    0 1 0
  46 C    1     2.1680     4.0969   14 H    0 0 0
  46 C    1     2.4182     4.5697   42 C    0 1 0
  46 C    1     2.4246     4.5818   38 C    0 0 0

  47 C    1     1.4025     2.6504   45 C    0-1 0
  47 C    1     1.4026     2.6505   41 C    0 0 0
  47 C    1     1.5513     2.9316    7 B    0 0 0
  47 C    1     2.1490     4.0610   19 H    0-1 0
  47 C    1     2.1493     4.0616   15 H    0 0 0
  47 C    1     2.4250     4.5825   39 C    0-1 0

  48 C    1     1.4025     2.6504   46 C    0-1 0
  48 C    1     1.4026     2.6505   42 C    0 0 0
  48 C    1     1.5513     2.9316    8 B    0 0 0
  48 C    1     2.1490     4.0610   20 H    0-1 0
  48 C    1     2.1493     4.0616   16 H    0 0 0
  48 C    1     2.4250     4.5825   40 C    0-1 0

  49 C    1     1.4020     2.6494   51 C    1 0 0
  49 C    1     1.4021     2.6495   55 C    0 0 0
  49 C    1     1.5503     2.9297    1 B    1 0 0
  49 C    1     2.1469     4.0571   21 H    1 0 0
  49 C    1     2.1475     4.0581   25 H    0 0 0
  49 C    1     2.4246     4.5818   53 C    0 0 0

  50 C    1     1.4020     2.6494   52 C    1 0 0
  50 C    1     1.4021     2.6495   56 C    0 0 0
  50 C    1     1.5503     2.9297    2 B    1 0 0
  50 C    1     2.1469     4.0571   22 H    1 0 0
  50 C    1     2.1475     4.0581   26 H    0 0 0
  50 C    1     2.4246     4.5818   54 C    0 0 0

  51 C    1     1.0913     2.0623   21 H    0 0 0
  51 C    1     1.3914     2.6293   57 C    0 0 0
  51 C    1     1.4020     2.6494   49 C   -1 0 0
  51 C    1     2.1666     4.0942   27 H    0 0 0
  51 C    1     2.4175     4.5684   55 C   -1 0 0
  51 C    1     2.4251     4.5828   59 C   -1 0 0

  52 C    1     1.0913     2.0623   22 H    0 0 0
  52 C    1     1.3914     2.6293   58 C    0 0 0
  52 C    1     1.4020     2.6494   50 C   -1 0 0
  52 C    1     2.1666     4.0942   28 H    0 0 0
  52 C    1     2.4175     4.5684   56 C   -1 0 0
  52 C    1     2.4251     4.5828   60 C   -1 0 0

  53 C    1     1.0914     2.0625   23 H    0 0 0
  53 C    1     1.3915     2.6295   55 C    0 0 0
  53 C    1     1.4026     2.6505   59 C    0 0 0
  53 C    1     2.1679     4.0967   25 H    0 0 0
  53 C    1     2.4179     4.5691   57 C    1 0 0
  53 C    1     2.4246     4.5818   49 C    0 0 0

  54 C    1     1.0914     2.0625   24 H    0 0 0
  54 C    1     1.3915     2.6295   56 C    0 0 0
  54 C    1     1.4026     2.6505   60 C    0 0 0
  54 C    1     2.1679     4.0967   26 H    0 0 0
  54 C    1     2.4179     4.5691   58 C    1 0 0
  54 C    1     2.4246     4.5818   50 C    0 0 0

  55 C    1     1.0914     2.0624   25 H    0 0 0
  55 C    1     1.3915     2.6295   53 C    0 0 0
  55 C    1     1.4021     2.6495   49 C    0 0 0
  55 C    1     2.1664     4.0939   23 H    0 0 0
  55 C    1     2.4175     4.5684   51 C    1 0 0
  55 C    1     2.4253     4.5832   59 C    0 0 0

  56 C    1     1.0914     2.0624   26 H    0 0 0
  56 C    1     1.3915     2.6295   54 C    0 0 0
  56 C    1     1.4021     2.6495   50 C    0 0 0
  56 C    1     2.1664     4.0939   24 H    0 0 0
  56 C    1     2.4175     4.5684   52 C    1 0 0
  56 C    1     2.4253     4.5832   60 C    0 0 0

  57 C    1     1.0914     2.0625   27 H    0 0 0
  57 C    1     1.3914     2.6293   51 C    0 0 0
  57 C    1     1.4025     2.6504   59 C   -1 0 0
  57 C    1     2.1680     4.0968   21 H    0 0 0
  57 C    1     2.4179     4.5691   53 C   -1 0 0
  57 C    1     2.4247     4.5819   49 C   -1 0 0

  58 C    1     1.0914     2.0625   28 H    0 0 0
  58 C    1     1.3914     2.6293   52 C    0 0 0
  58 C    1     1.4025     2.6504   60 C   -1 0 0
  58 C    1     2.1680     4.0968   22 H    0 0 0
  58 C    1     2.4179     4.5691   54 C   -1 0 0
  58 C    1     2.4247     4.5819   50 C   -1 0 0

  59 C    1     1.4025     2.6504   57 C    1 0 0
  59 C    1     1.4026     2.6505   53 C    0 0 0
  59 C    1     1.5516     2.9322   11 B    0 0 0
  59 C    1     2.1491     4.0612   27 H    1 0 0
  59 C    1     2.1493     4.0617   23 H    0 0 0
  59 C    1     2.4251     4.5828   51 C    1 0 0

  60 C    1     1.4025     2.6504   58 C    1 0 0
  60 C    1     1.4026     2.6505   54 C    0 0 0
  60 C    1     1.5516     2.9322   12 B    0 0 0
  60 C    1     2.1491     4.0612   28 H    1 0 0
  60 C    1     2.1493     4.0617   24 H    0 0 0
  60 C    1     2.4251     4.5828   52 C    1 0 0

  61 C    1     1.4021     2.6496   63 C    1 1 0
  61 C    1     1.4021     2.6497   67 C    0 0 0
  61 C    1     1.5502     2.9294    5 B    1 1 0
  61 C    1     2.1475     4.0582   29 H    1 1 0
  61 C    1     2.1479     4.0589   33 H    0 0 0
  61 C    1     2.4244     4.5814   65 C    0 0 0

  62 C    1     1.4021     2.6496   64 C    1 1 0
  62 C    1     1.4021     2.6497   68 C    0 0 0
  62 C    1     1.5502     2.9294    6 B    1 1 0
  62 C    1     2.1475     4.0582   30 H    1 1 0
  62 C    1     2.1479     4.0589   34 H    0 0 0
  62 C    1     2.4244     4.5814   66 C    0 0 0

  63 C    1     1.0914     2.0624   29 H    0 0 0
  63 C    1     1.3914     2.6293   69 C    0 0 0
  63 C    1     1.4021     2.6496   61 C   -1-1 0
  63 C    1     2.1668     4.0947   35 H    0 0 0
  63 C    1     2.4179     4.5692   67 C   -1-1 0
  63 C    1     2.4251     4.5827   71 C   -1-1 0

  64 C    1     1.0914     2.0624   30 H    0 0 0
  64 C    1     1.3914     2.6293   70 C    0 0 0
  64 C    1     1.4021     2.6496   62 C   -1-1 0
  64 C    1     2.1668     4.0947   36 H    0 0 0
  64 C    1     2.4179     4.5692   68 C   -1-1 0
  64 C    1     2.4251     4.5827   72 C   -1-1 0

  65 C    1     1.0913     2.0623   31 H    0 0 0
  65 C    1     1.3914     2.6294   67 C    0 0 0
  65 C    1     1.4025     2.6504   71 C    0 0 0
  65 C    1     2.1679     4.0968   33 H    0 0 0
  65 C    1     2.4178     4.5690   69 C    1 1 0
  65 C    1     2.4244     4.5814   61 C    0 0 0

  66 C    1     1.0913     2.0623   32 H    0 0 0
  66 C    1     1.3914     2.6294   68 C    0 0 0
  66 C    1     1.4025     2.6504   72 C    0 0 0
  66 C    1     2.1679     4.0968   34 H    0 0 0
  66 C    1     2.4178     4.5690   70 C    1 1 0
  66 C    1     2.4244     4.5814   62 C    0 0 0

  67 C    1     1.0915     2.0626   33 H    0 0 0
  67 C    1     1.3914     2.6294   65 C    0 0 0
  67 C    1     1.4021     2.6497   61 C    0 0 0
  67 C    1     2.1667     4.0945   31 H    0 0 0
  67 C    1     2.4179     4.5692   63 C    1 1 0
  67 C    1     2.4253     4.5832   71 C    0 0 0

  68 C    1     1.0915     2.0626   34 H    0 0 0
  68 C    1     1.3914     2.6294   66 C    0 0 0
  68 C    1     1.4021     2.6497   62 C    0 0 0
  68 C    1     2.1667     4.0945   32 H    0 0 0
  68 C    1     2.4179     4.5692   64 C    1 1 0
  68 C    1     2.4253     4.5832   72 C    0 0 0

  69 C    1     1.0914     2.0624   35 H    0 0 0
  69 C    1     1.3914     2.6293   63 C    0 0 0
  69 C    1     1.4025     2.6503   71 C   -1-1 0
  69 C    1     2.1678     4.0966   29 H    0 0 0
  69 C    1     2.4178     4.5690   65 C   -1-1 0
  69 C    1     2.4245     4.5817   61 C   -1-1 0

  70 C    1     1.0914     2.0624   36 H    0 0 0
  70 C    1     1.3914     2.6293   64 C    0 0 0
  70 C    1     1.4025     2.6503   72 C   -1-1 0
  70 C    1     2.1678     4.0966   30 H    0 0 0
  70 C    1     2.4178     4.5690   66 C   -1-1 0
  70 C    1     2.4245     4.5817   62 C   -1-1 0

  71 C    1     1.4025     2.6503   69 C    1 1 0
  71 C    1     1.4025     2.6504   65 C    0 0 0
  71 C    1     1.5516     2.9322    9 B    0 0 0
  71 C    1     2.1486     4.0602   35 H    1 1 0
  71 C    1     2.1487     4.0605   31 H    0 0 0
  71 C    1     2.4251     4.5827   63 C    1 1 0

  72 C    1     1.4025     2.6503   70 C    1 1 0
  72 C    1     1.4025     2.6504   66 C    0 0 0
  72 C    1     1.5516     2.9322   10 B    0 0 0
  72 C    1     2.1486     4.0602   36 H    1 1 0
  72 C    1     2.1487     4.0605   32 H    0 0 0
  72 C    1     2.4251     4.5827   64 C    1 1 0

  73 O    1     1.3791     2.6061    1 B    1 0 0
  73 O    1     1.3791     2.6061    5 B    1 1 0
  73 O    1     2.3880     4.5126   75 O    1 0 0
  73 O    1     2.3882     4.5130   77 O    1 1 0
  73 O    1     2.5383     4.7966   61 C    0 0 0
  73 O    1     2.5384     4.7968   49 C    0 0 0

  74 O    1     1.3791     2.6061    2 B    1 0 0
  74 O    1     1.3791     2.6061    6 B    1 1 0
  74 O    1     2.3880     4.5126   76 O    1 0 0
  74 O    1     2.3882     4.5130   78 O    1 1 0
  74 O    1     2.5383     4.7966   62 C    0 0 0
  74 O    1     2.5384     4.7968   50 C    0 0 0

  75 O    1     1.3793     2.6065    1 B    0 0 0
  75 O    1     1.3793     2.6065    3 B    0 0 0
  75 O    1     2.3880     4.5126   73 O   -1 0 0
  75 O    1     2.3882     4.5131   77 O    0 1 0
  75 O    1     2.5391     4.7981   37 C    0 0 0
  75 O    1     2.5395     4.7990   49 C   -1 0 0

  76 O    1     1.3793     2.6065    2 B    0 0 0
  76 O    1     1.3793     2.6065    4 B    0 0 0
  76 O    1     2.3880     4.5126   74 O   -1 0 0
  76 O    1     2.3882     4.5131   78 O    0 1 0
  76 O    1     2.5391     4.7981   38 C    0 0 0
  76 O    1     2.5395     4.7990   50 C   -1 0 0

  77 O    1     1.3793     2.6064    5 B    0 0 0
  77 O    1     1.3793     2.6065    3 B    0-1 0
  77 O    1     2.3882     4.5130   73 O   -1-1 0
  77 O    1     2.3882     4.5131   75 O    0-1 0
  77 O    1     2.5390     4.7980   37 C    0-1 0
  77 O    1     2.5391     4.7982   61 C   -1-1 0

  78 O    1     1.3793     2.6064    6 B    0 0 0
  78 O    1     1.3793     2.6065    4 B    0-1 0
  78 O    1     2.3882     4.5130   74 O   -1-1 0
  78 O    1     2.3882     4.5131   76 O    0-1 0
  78 O    1     2.5390     4.7980   38 C    0-1 0
  78 O    1     2.5391     4.7982   62 C   -1-1 0

  79 O    1     1.3795     2.6068   11 B    0 0 0
  79 O    1     1.3795     2.6068    7 B    0 0 0
  79 O    1     2.3880     4.5126   83 O    1 0 0
  79 O    1     2.3884     4.5134   81 O    0-1 0
  79 O    1     2.5400     4.7998   47 C    0 0 0
  79 O    1     2.5403     4.8005   59 C    0 0 0

  80 O    1     1.3795     2.6068   12 B    0 0 0
  80 O    1     1.3795     2.6068    8 B    0 0 0
  80 O    1     2.3880     4.5126   84 O    1 0 0
  80 O    1     2.3884     4.5134   82 O    0-1 0
  80 O    1     2.5400     4.7998   48 C    0 0 0
  80 O    1     2.5403     4.8005   60 C    0 0 0

  81 O    1     1.3795     2.6069    9 B    0 0 0
  81 O    1     1.3795     2.6070    7 B    0 1 0
  81 O    1     2.3881     4.5128   83 O    1 1 0
  81 O    1     2.3884     4.5134   79 O    0 1 0
  81 O    1     2.5404     4.8006   47 C    0 1 0
  81 O    1     2.5405     4.8008   71 C    0 0 0

  82 O    1     1.3795     2.6069   10 B    0 0 0
  82 O    1     1.3795     2.6070    8 B    0 1 0
  82 O    1     2.3881     4.5128   84 O    1 1 0
  82 O    1     2.3884     4.5134   80 O    0 1 0
  82 O    1     2.5404     4.8006   48 C    0 1 0
  82 O    1     2.5405     4.8008   72 C    0 0 0

  83 O    1     1.3796     2.6071   11 B   -1 0 0
  83 O    1     1.3797     2.6072    9 B   -1-1 0
  83 O    1     2.3880     4.5126   79 O   -1 0 0
  83 O    1     2.3881     4.5128   81 O   -1-1 0
  83 O    1     2.5409     4.8016   71 C   -1-1 0
  83 O    1     2.5410     4.8019   59 C   -1 0 0

  84 O    1     1.3796     2.6071   12 B   -1 0 0
  84 O    1     1.3797     2.6072   10 B   -1-1 0
  84 O    1     2.3880     4.5126   80 O   -1 0 0
  84 O    1     2.3881     4.5128   82 O   -1-1 0
  84 O    1     2.5409     4.8016   72 C   -1-1 0
  84 O    1     2.5410     4.8019   60 C   -1 0 0


 SYMMETRY ALLOWED INTERNAL DEGREE(S) OF FREEDOM: 249
 TTTTTTTTTTTTTTTTTTTTTTTTTTTTTT SYMM        TELAPSE        2.88 TCPU        2.88
 TTTTTTTTTTTTTTTTTTTTTTTTTTTTTT INT_SCREEN  TELAPSE        3.07 TCPU        3.07

 DFT PARAMETERS

     ATOM       ELECTRONS   NET CHARGE   R(ANGSTROM)
   1   5  B       5.0000      0.0000     0.89000000
  13   1  H       1.0000      0.0000     1.11000000
  37   6  C       6.0000      0.0000     0.77000000
  73   8  O       8.0000      0.0000     0.74000000

 SIZE OF GRID=    2631205
 TTTTTTTTTTTTTTTTTTTTTTTTTTTTTT MAKE_GRID2  TELAPSE       23.61 TCPU       23.58
 BECKE WEIGHT FUNCTION
 RADSAFE =     2.00
 TOLERANCES - DENSITY:10**- 6; POTENTIAL:10**- 9; GRID WGT:10**-14

 RADIAL INTEGRATION  - INTERVALS (POINTS,UPPER LIMIT):            1( 75,  4.0*R)

 ANGULAR INTEGRATION - INTERVALS (ACCURACY LEVEL [N. POINTS] UPPER LIMIT):
  1(  4[  86]   0.2)  2(  8[ 194]   0.5)  3( 12[ 350]   0.9)  4( 16[ 974]   3.5)
  5( 12[ 350]9999.0)
 TTTTTTTTTTTTTTTTTTTTTTTTTTTTTT INT_CALC    TELAPSE       23.87 TCPU       23.84
 EEEEEEEEEE INT_CALC TERMINATION  DATE 19 02 2026 TIME 20:25:41.8

 *******************************************************************************
 cof-1_z41_L000_serr                                                             
 CRYSTAL - SCF - TYPE OF CALCULATION :  RESTRICTED CLOSED SHELL
 *******************************************************************************

 CAPPA:IS1  2;IS2  2;IS3  8; K PTS MONK NET  20; SYMMOPS:K SPACE   2;G SPACE   1

 TTTTTTTTTTTTTTTTTTTTTTTTTTTTTT SDIK        TELAPSE       26.48 TCPU       50.60

 AAAAAAAAAAAAAAAAAAAAAAAAAAAAAAAAAAAAAAAAAAAAAAAAAAAAAAAAAAAAAAAAAAAAAAAAAAAAAAA
         ATOMIC WAVEFUNCTION(S)


 NUCLEAR CHARGE  5.0  SYMMETRY SPECIES            S    P
 N. ELECTRONS    5.0  NUMBER OF PRIMITIVE GTOS    8    4
                      NUMBER OF CONTRACTED GTOS   4    2
                      NUMBER OF CLOSED SHELLS     2    0
                      OPEN SHELL OCCUPATION       0    1

  ZNUC  SCFIT    TOTAL HF ENERGY   KINETIC ENERGY   VIRIAL THEOREM ACCURACY
   5.0    11    -2.451164084E+01  2.462155050E+01 -1.995536038E+00  1.5E-06

 NUCLEAR CHARGE  1.0  SYMMETRY SPECIES            S
 N. ELECTRONS    1.0  NUMBER OF PRIMITIVE GTOS    4
                      NUMBER OF CONTRACTED GTOS   2
                      NUMBER OF CLOSED SHELLS     0
                      OPEN SHELL OCCUPATION       1

  ZNUC  SCFIT    TOTAL HF ENERGY   KINETIC ENERGY   VIRIAL THEOREM ACCURACY
   1.0     1    -4.977266687E-01  5.190767460E-01 -1.958869132E+00  0.0E+00

 NUCLEAR CHARGE  6.0  SYMMETRY SPECIES            S    P
 N. ELECTRONS    6.0  NUMBER OF PRIMITIVE GTOS    8    4
                      NUMBER OF CONTRACTED GTOS   4    2
                      NUMBER OF CLOSED SHELLS     2    0
                      OPEN SHELL OCCUPATION       0    2

  ZNUC  SCFIT    TOTAL HF ENERGY   KINETIC ENERGY   VIRIAL THEOREM ACCURACY
   6.0     9    -3.766704647E+01  3.775180683E+01 -1.997754800E+00  1.1E-06

 NUCLEAR CHARGE  8.0  SYMMETRY SPECIES            S    P
 N. ELECTRONS    8.0  NUMBER OF PRIMITIVE GTOS    8    4
                      NUMBER OF CONTRACTED GTOS   4    2
                      NUMBER OF CLOSED SHELLS     2    0
                      OPEN SHELL OCCUPATION       0    4

  ZNUC  SCFIT    TOTAL HF ENERGY   KINETIC ENERGY   VIRIAL THEOREM ACCURACY
   8.0    12    -7.477373220E+01  7.477365593E+01 -2.000001020E+00  3.8E-06

 AAAAAAAAAAAAAAAAAAAAAAAAAAAAAAAAAAAAAAAAAAAAAAAAAAAAAAAAAAAAAAAAAAAAAAAAAAAAAAA

 CHARGE NORMALIZATION FACTOR   1.00000000
 TOTAL ATOMIC CHARGES:
   5.0000000   5.0000000   5.0000000   5.0000000   5.0000000   5.0000000
   5.0000000   5.0000000   5.0000000   5.0000000   5.0000000   5.0000000
   1.0000000   1.0000000   1.0000000   1.0000000   1.0000000   1.0000000
   1.0000000   1.0000000   1.0000000   1.0000000   1.0000000   1.0000000
   1.0000000   1.0000000   1.0000000   1.0000000   1.0000000   1.0000000
   1.0000000   1.0000000   1.0000000   1.0000000   1.0000000   1.0000000
   6.0000000   6.0000000   6.0000000   6.0000000   6.0000000   6.0000000
   6.0000000   6.0000000   6.0000000   6.0000000   6.0000000   6.0000000
   6.0000000   6.0000000   6.0000000   6.0000000   6.0000000   6.0000000
   6.0000000   6.0000000   6.0000000   6.0000000   6.0000000   6.0000000
   6.0000000   6.0000000   6.0000000   6.0000000   6.0000000   6.0000000
   6.0000000   6.0000000   6.0000000   6.0000000   6.0000000   6.0000000
   8.0000000   8.0000000   8.0000000   8.0000000   8.0000000   8.0000000
   8.0000000   8.0000000   8.0000000   8.0000000   8.0000000   8.0000000
 TTTTTTTTTTTTTTTTTTTTTTTTTTTTTT MOQGAD      TELAPSE       26.58 TCPU       52.51
 TTTTTTTTTTTTTTTTTTTTTTTTTTTTTT SHELLXN     TELAPSE       45.38 TCPU      648.99
 TTTTTTTTTTTTTTTTTTTTTTTTTTTTTT MONMO3      TELAPSE       46.02 TCPU      669.56
 NUMERICALLY INTEGRATED DENSITY    395.9997306570
 TTTTTTTTTTTTTTTTTTTTTTTTTTTTTT NUMDFT      TELAPSE       47.63 TCPU      720.88
 CYC   0 ETOT(AU) -2.591914090239E+03 DETOT -2.59E+03 tst  0.00E+00 PX  1.00E+00
 TTTTTTTTTTTTTTTTTTTTTTTTTTTTTT DIIS        TELAPSE       47.85 TCPU      726.91
 TTTTTTTTTTTTTTTTTTTTTTTTTTTTTT FDIK        TELAPSE       50.08 TCPU      797.71
 INSULATING STATE
 TOP OF VALENCE BANDS -    BAND    198; K    1; EIG -3.0766584E-01 AU
 BOTTOM OF VIRTUAL BANDS - BAND    199; K    1; EIG -1.6601537E-01 AU
 DIRECT ENERGY BAND GAP:   3.8545 eV
 TTTTTTTTTTTTTTTTTTTTTTTTTTTTTT PDIG        TELAPSE       51.76 TCPU      804.65
 CHARGE NORMALIZATION FACTOR   1.00000000
 TOTAL ATOMIC CHARGES:
   4.1507977   4.1507977   4.1506469   4.1506469   4.1508798   4.1508798
   4.1505421   4.1505421   4.1503254   4.1503253   4.1504912   4.1504912
   0.7855635   0.7855634   0.7856764   0.7856764   0.7855219   0.7855219
   0.7856385   0.7856385   0.7855431   0.7855431   0.7857062   0.7857062
   0.7855330   0.7855330   0.7856701   0.7856701   0.7855236   0.7855236
   0.7857039   0.7857039   0.7855149   0.7855149   0.7856706   0.7856706
   6.0482163   6.0482163   6.2674073   6.2674073   6.2673606   6.2673606
   6.2673521   6.2673521   6.2672882   6.2672882   6.0474691   6.0474691
   6.0482738   6.0482738   6.2673937   6.2673937   6.2674638   6.2674638
   6.2672967   6.2672967   6.2674722   6.2674722   6.0470328   6.0470328
   6.0485769   6.0485769   6.2671226   6.2671226   6.2676679   6.2676679
   6.2670315   6.2670315   6.2676415   6.2676416   6.0469948   6.0469948
   8.6953943   8.6953943   8.6955041   8.6955041   8.6954468   8.6954468
   8.6958149   8.6958149   8.6958425   8.6958425   8.6959868   8.6959868
 TTTTTTTTTTTTTTTTTTTTTTTTTTTTTT MOQGAD      TELAPSE       51.87 TCPU      804.75
 TTTTTTTTTTTTTTTTTTTTTTTTTTTTTT SHELLXN     TELAPSE       70.90 TCPU     1411.80
 TTTTTTTTTTTTTTTTTTTTTTTTTTTTTT MONMO3      TELAPSE       71.52 TCPU     1431.71
 NUMERICALLY INTEGRATED DENSITY    395.9997949751
 TTTTTTTTTTTTTTTTTTTTTTTTTTTTTT NUMDFT      TELAPSE       73.12 TCPU     1482.70
 CYC   1 ETOT(AU) -2.577611482008E+03 DETOT  1.43E+01 tst  0.00E+00 PX  1.00E+00
 TTTTTTTTTTTTTTTTTTTTTTTTTTTTTT DIIS        TELAPSE       73.36 TCPU     1489.72
 DIIS TEST: 0.22908E+01 AT SCF   CYCLE   1 - MIX   30 %
 TTTTTTTTTTTTTTTTTTTTTTTTTTTTTT FDIK        TELAPSE       75.47 TCPU     1556.84
 INSULATING STATE
 TOP OF VALENCE BANDS -    BAND    198; K    1; EIG -2.1130030E-01 AU
 BOTTOM OF VIRTUAL BANDS - BAND    199; K    1; EIG -8.9342203E-02 AU
 DIRECT ENERGY BAND GAP:   3.3187 eV
 TTTTTTTTTTTTTTTTTTTTTTTTTTTTTT PDIG        TELAPSE       77.16 TCPU     1563.81
 CHARGE NORMALIZATION FACTOR   1.00000000
 TOTAL ATOMIC CHARGES:
   4.7118904   4.7118904   4.7118351   4.7118351   4.7118280   4.7118280
   4.7122420   4.7122420   4.7122139   4.7122139   4.7122972   4.7122972
   0.9189992   0.9189992   0.9190651   0.9190651   0.9189699   0.9189699
   0.9190065   0.9190065   0.9189977   0.9189977   0.9190697   0.9190697
   0.9189798   0.9189798   0.9190477   0.9190477   0.9189575   0.9189575
   0.9190824   0.9190824   0.9189376   0.9189376   0.9190635   0.9190635
   5.8627848   5.8627848   6.1236503   6.1236503   6.1241992   6.1241992
   6.1235218   6.1235218   6.1241927   6.1241927   5.8656017   5.8656017
   5.8626361   5.8626361   6.1233583   6.1233583   6.1242075   6.1242075
   6.1236070   6.1236070   6.1240818   6.1240818   5.8660600   5.8660600
   5.8627379   5.8627379   6.1235972   6.1235972   6.1240362   6.1240362
   6.1238559   6.1238559   6.1239598   6.1239598   5.8658114   5.8658114
   8.3377866   8.3377866   8.3381610   8.3381610   8.3381196   8.3381196
   8.3376502   8.3376502   8.3378325   8.3378325   8.3380672   8.3380672
 TTTTTTTTTTTTTTTTTTTTTTTTTTTTTT MOQGAD      TELAPSE       77.27 TCPU     1563.91
 TTTTTTTTTTTTTTTTTTTTTTTTTTTTTT SHELLXN     TELAPSE       96.01 TCPU     2161.81
 TTTTTTTTTTTTTTTTTTTTTTTTTTTTTT MONMO3      TELAPSE       96.62 TCPU     2181.17
 NUMERICALLY INTEGRATED DENSITY    395.9997624489
 TTTTTTTTTTTTTTTTTTTTTTTTTTTTTT NUMDFT      TELAPSE       98.20 TCPU     2231.46
 CYC   2 ETOT(AU) -2.578001697004E+03 DETOT -3.90E-01 tst  4.75E-03 PX  1.57E-01
 TTTTTTTTTTTTTTTTTTTTTTTTTTTTTT DIIS        TELAPSE       98.41 TCPU     2238.19
 DIIS TEST: 0.97889E+00 AT SCF   CYCLE   2 - DIIS ACTIVE - HISTORY:     2 CYCLES
 TTTTTTTTTTTTTTTTTTTTTTTTTTTTTT FDIK        TELAPSE      100.48 TCPU     2304.24
 INSULATING STATE
 TOP OF VALENCE BANDS -    BAND    198; K    1; EIG -2.2724872E-01 AU
 BOTTOM OF VIRTUAL BANDS - BAND    199; K    1; EIG -8.5016261E-02 AU
 DIRECT ENERGY BAND GAP:   3.8703 eV
 TTTTTTTTTTTTTTTTTTTTTTTTTTTTTT PDIG        TELAPSE      102.15 TCPU     2311.17
 CHARGE NORMALIZATION FACTOR   1.00000000
 TOTAL ATOMIC CHARGES:
   4.4970910   4.4970910   4.4969715   4.4969715   4.4970776   4.4970776
   4.4964750   4.4964750   4.4962807   4.4962807   4.4963720   4.4963720
   0.8916973   0.8916973   0.8918271   0.8918271   0.8916554   0.8916554
   0.8917758   0.8917758   0.8916405   0.8916405   0.8918711   0.8918711
   0.8916844   0.8916844   0.8917902   0.8917902   0.8916538   0.8916538
   0.8918349   0.8918349   0.8916934   0.8916934   0.8917726   0.8917726
   5.8912009   5.8912009   6.1605646   6.1605646   6.1598012   6.1598012
   6.1604917   6.1604917   6.1597242   6.1597242   5.8896449   5.8896449
   5.8914082   5.8914082   6.1605443   6.1605443   6.1597744   6.1597744
   6.1605734   6.1605734   6.1597421   6.1597421   5.8893476   5.8893476
   5.8915379   5.8915379   6.1604181   6.1604181   6.1598768   6.1598768
   6.1604553   6.1604553   6.1598332   6.1598332   5.8893265   5.8893266
   8.5089346   8.5089346   8.5090969   8.5090969   8.5090719   8.5090719
   8.5090680   8.5090680   8.5091390   8.5091390   8.5092599   8.5092599
 TTTTTTTTTTTTTTTTTTTTTTTTTTTTTT MOQGAD      TELAPSE      102.25 TCPU     2311.27
 TTTTTTTTTTTTTTTTTTTTTTTTTTTTTT SHELLXN     TELAPSE      120.78 TCPU     2902.24
 TTTTTTTTTTTTTTTTTTTTTTTTTTTTTT MONMO3      TELAPSE      121.40 TCPU     2921.94
 NUMERICALLY INTEGRATED DENSITY    395.9997648621
 TTTTTTTTTTTTTTTTTTTTTTTTTTTTTT NUMDFT      TELAPSE      122.98 TCPU     2972.44
 CYC   3 ETOT(AU) -2.578204380406E+03 DETOT -2.03E-01 tst  7.50E-04 PX  5.99E-02
 TTTTTTTTTTTTTTTTTTTTTTTTTTTTTT DIIS        TELAPSE      123.18 TCPU     2978.71
 DIIS TEST: 0.21483E-01 AT SCF   CYCLE   3 - DIIS ACTIVE - HISTORY:     3 CYCLES
 TTTTTTTTTTTTTTTTTTTTTTTTTTTTTT FDIK        TELAPSE      125.24 TCPU     3044.61
 INSULATING STATE
 TOP OF VALENCE BANDS -    BAND    198; K    1; EIG -2.3700446E-01 AU
 BOTTOM OF VIRTUAL BANDS - BAND    199; K    1; EIG -9.4453197E-02 AU
 DIRECT ENERGY BAND GAP:   3.8790 eV
 TTTTTTTTTTTTTTTTTTTTTTTTTTTTTT PDIG        TELAPSE      126.89 TCPU     3051.54
 CHARGE NORMALIZATION FACTOR   1.00000000
 TOTAL ATOMIC CHARGES:
   4.5041992   4.5041992   4.5041251   4.5041251   4.5042075   4.5042075
   4.5046149   4.5046150   4.5044454   4.5044454   4.5045673   4.5045673
   0.8754048   0.8754048   0.8754455   0.8754455   0.8753690   0.8753690
   0.8753828   0.8753828   0.8753958   0.8753958   0.8754514   0.8754514
   0.8754083   0.8754083   0.8753966   0.8753966   0.8753748   0.8753748
   0.8754421   0.8754421   0.8753858   0.8753858   0.8754005   0.8754005
   5.9413345   5.9413345   6.1597109   6.1597109   6.1610738   6.1610738
   6.1596129   6.1596129   6.1610852   6.1610852   5.9458049   5.9458049
   5.9411143   5.9411143   6.1594775   6.1594775   6.1611934   6.1611934
   6.1595218   6.1595218   6.1611876   6.1611876   5.9460816   5.9460816
   5.9413418   5.9413418   6.1595257   6.1595257   6.1611644   6.1611644
   6.1595734   6.1595734   6.1611652   6.1611652   5.9458730   5.9458730
   8.4802788   8.4802788   8.4805747   8.4805747   8.4805308   8.4805308
   8.4804244   8.4804244   8.4805410   8.4805410   8.4807917   8.4807917
 TTTTTTTTTTTTTTTTTTTTTTTTTTTTTT MOQGAD      TELAPSE      126.99 TCPU     3051.64
 TTTTTTTTTTTTTTTTTTTTTTTTTTTTTT SHELLXN     TELAPSE      145.38 TCPU     3638.06
 TTTTTTTTTTTTTTTTTTTTTTTTTTTTTT MONMO3      TELAPSE      145.99 TCPU     3657.71
 NUMERICALLY INTEGRATED DENSITY    395.9997681623
 TTTTTTTTTTTTTTTTTTTTTTTTTTTTTT NUMDFT      TELAPSE      147.57 TCPU     3708.14
 CYC   4 ETOT(AU) -2.578208671352E+03 DETOT -4.29E-03 tst  2.90E-05 PX  1.22E-02
 TTTTTTTTTTTTTTTTTTTTTTTTTTTTTT DIIS        TELAPSE      147.78 TCPU     3714.88
 DIIS TEST: 0.76436E-02 AT SCF   CYCLE   4 - DIIS ACTIVE - HISTORY:     4 CYCLES
 TTTTTTTTTTTTTTTTTTTTTTTTTTTTTT FDIK        TELAPSE      149.84 TCPU     3780.14
 INSULATING STATE
 TOP OF VALENCE BANDS -    BAND    198; K    1; EIG -2.3530508E-01 AU
 BOTTOM OF VIRTUAL BANDS - BAND    199; K    1; EIG -9.3420666E-02 AU
 DIRECT ENERGY BAND GAP:   3.8609 eV
 TTTTTTTTTTTTTTTTTTTTTTTTTTTTTT PDIG        TELAPSE      151.47 TCPU     3787.06
 CHARGE NORMALIZATION FACTOR   1.00000000
 TOTAL ATOMIC CHARGES:
   4.5061130   4.5061130   4.5060123   4.5060123   4.5061053   4.5061053
   4.5056140   4.5056140   4.5054408   4.5054408   4.5055420   4.5055420
   0.8787192   0.8787192   0.8789058   0.8789058   0.8786749   0.8786749
   0.8788550   0.8788550   0.8786738   0.8786738   0.8789445   0.8789445
   0.8786941   0.8786941   0.8788826   0.8788826   0.8786704   0.8786704
   0.8789209   0.8789209   0.8786896   0.8786896   0.8788719   0.8788719
   5.9209976   5.9209976   6.1641081   6.1641081   6.1628070   6.1628070
   6.1640349   6.1640349   6.1627568   6.1627568   5.9181027   5.9181027
   5.9211816   5.9211816   6.1640373   6.1640373   6.1627863   6.1627863
   6.1641385   6.1641385   6.1627078   6.1627078   5.9179178   5.9179178
   5.9212842   5.9212842   6.1639802   6.1639802   6.1628434   6.1628434
   6.1640944   6.1640944   6.1627621   6.1627621   5.9178672   5.9178672
   8.4901110   8.4901110   8.4903056   8.4903056   8.4902675   8.4902675
   8.4900821   8.4900821   8.4901786   8.4901786   8.4903172   8.4903172
 TTTTTTTTTTTTTTTTTTTTTTTTTTTTTT MOQGAD      TELAPSE      151.57 TCPU     3787.16
 TTTTTTTTTTTTTTTTTTTTTTTTTTTTTT SHELLXN     TELAPSE      169.94 TCPU     4372.91
 TTTTTTTTTTTTTTTTTTTTTTTTTTTTTT MONMO3      TELAPSE      170.55 TCPU     4392.39
 NUMERICALLY INTEGRATED DENSITY    395.9997681770
 TTTTTTTTTTTTTTTTTTTTTTTTTTTTTT NUMDFT      TELAPSE      172.10 TCPU     4442.15
 CYC   5 ETOT(AU) -2.578210355566E+03 DETOT -1.68E-03 tst  6.37E-06 PX  7.28E-03
 TTTTTTTTTTTTTTTTTTTTTTTTTTTTTT DIIS        TELAPSE      172.34 TCPU     4448.96
 DIIS TEST: 0.24915E-03 AT SCF   CYCLE   5 - DIIS ACTIVE - HISTORY:     5 CYCLES
 TTTTTTTTTTTTTTTTTTTTTTTTTTTTTT FDIK        TELAPSE      174.33 TCPU     4512.20
 INSULATING STATE
 TOP OF VALENCE BANDS -    BAND    198; K    1; EIG -2.3506965E-01 AU
 BOTTOM OF VIRTUAL BANDS - BAND    199; K    1; EIG -9.2835773E-02 AU
 DIRECT ENERGY BAND GAP:   3.8704 eV
 TTTTTTTTTTTTTTTTTTTTTTTTTTTTTT PDIG        TELAPSE      175.97 TCPU     4519.13
 CHARGE NORMALIZATION FACTOR   1.00000000
 TOTAL ATOMIC CHARGES:
   4.5051869   4.5051869   4.5051029   4.5051029   4.5051871   4.5051871
   4.5057201   4.5057201   4.5055512   4.5055512   4.5056639   4.5056639
   0.8798124   0.8798124   0.8797829   0.8797829   0.8797757   0.8797757
   0.8797244   0.8797244   0.8797908   0.8797908   0.8797980   0.8797980
   0.8798159   0.8798159   0.8797325   0.8797325   0.8797796   0.8797796
   0.8797829   0.8797829   0.8798028   0.8798028   0.8797312   0.8797312
   5.9172313   5.9172313   6.1613861   6.1613861   6.1636716   6.1636716
   6.1612939   6.1612939   6.1636441   6.1636441   5.9240035   5.9240035
   5.9170620   5.9170620   6.1612082   6.1612082   6.1637581   6.1637581
   6.1611896   6.1611896   6.1637957   6.1637957   5.9241750   5.9241749
   5.9172904   5.9172904   6.1612106   6.1612106   6.1637566   6.1637566
   6.1611883   6.1611883   6.1638056   6.1638056   5.9239993   5.9239993
   8.4891198   8.4891198   8.4893940   8.4893940   8.4893638   8.4893638
   8.4894301   8.4894301   8.4895224   8.4895224   8.4897591   8.4897591
 TTTTTTTTTTTTTTTTTTTTTTTTTTTTTT MOQGAD      TELAPSE      176.07 TCPU     4519.23
 TTTTTTTTTTTTTTTTTTTTTTTTTTTTTT SHELLXN     TELAPSE      194.73 TCPU     5114.59
 TTTTTTTTTTTTTTTTTTTTTTTTTTTTTT MONMO3      TELAPSE      195.36 TCPU     5134.62
 NUMERICALLY INTEGRATED DENSITY    395.9997679167
 TTTTTTTTTTTTTTTTTTTTTTTTTTTTTT NUMDFT      TELAPSE      196.96 TCPU     5185.73
 CYC   6 ETOT(AU) -2.578210349435E+03 DETOT  6.13E-06 tst  1.51E-06 PX  1.43E-03
 TTTTTTTTTTTTTTTTTTTTTTTTTTTTTT DIIS        TELAPSE      197.33 TCPU     5192.83
 DIIS TEST: 0.25456E-03 AT SCF   CYCLE   6 - DIIS ACTIVE - HISTORY:     6 CYCLES
 TTTTTTTTTTTTTTTTTTTTTTTTTTTTTT FDIK        TELAPSE      199.47 TCPU     5260.57
 INSULATING STATE
 TOP OF VALENCE BANDS -    BAND    198; K    1; EIG -2.3506907E-01 AU
 BOTTOM OF VIRTUAL BANDS - BAND    199; K    1; EIG -9.2864902E-02 AU
 DIRECT ENERGY BAND GAP:   3.8696 eV
 TTTTTTTTTTTTTTTTTTTTTTTTTTTTTT PDIG        TELAPSE      201.15 TCPU     5267.52
 CHARGE NORMALIZATION FACTOR   1.00000000
 TOTAL ATOMIC CHARGES:
   4.5056774   4.5056775   4.5055843   4.5055843   4.5056737   4.5056737
   4.5054717   4.5054717   4.5052991   4.5052991   4.5054068   4.5054069
   0.8797270   0.8797270   0.8798545   0.8798545   0.8796873   0.8796873
   0.8797988   0.8797988   0.8796952   0.8796952   0.8798798   0.8798798
   0.8797160   0.8797160   0.8798181   0.8798181   0.8796880   0.8796880
   0.8798600   0.8798600   0.8797068   0.8797068   0.8798122   0.8798122
   5.9209387   5.9209387   6.1625240   6.1625240   6.1622339   6.1622339
   6.1624361   6.1624361   6.1622030   6.1622030   5.9208488   5.9208488
   5.9209566   5.9209566   6.1623893   6.1623893   6.1622758   6.1622758
   6.1624569   6.1624569   6.1622316   6.1622316   5.9208334   5.9208334
   5.9211219   5.9211219   6.1623601   6.1623601   6.1623068   6.1623068
   6.1624369   6.1624369   6.1622614   6.1622614   5.9207197   5.9207197
   8.4891859   8.4891859   8.4894144   8.4894144   8.4893770   8.4893770
   8.4892509   8.4892509   8.4893497   8.4893497   8.4895303   8.4895303
 TTTTTTTTTTTTTTTTTTTTTTTTTTTTTT MOQGAD      TELAPSE      201.25 TCPU     5267.62
 TTTTTTTTTTTTTTTTTTTTTTTTTTTTTT SHELLXN     TELAPSE      219.51 TCPU     5849.93
 TTTTTTTTTTTTTTTTTTTTTTTTTTTTTT MONMO3      TELAPSE      220.11 TCPU     5869.15
 NUMERICALLY INTEGRATED DENSITY    395.9997679051
 TTTTTTTTTTTTTTTTTTTTTTTTTTTTTT NUMDFT      TELAPSE      221.67 TCPU     5918.95
 CYC   7 ETOT(AU) -2.578210415148E+03 DETOT -6.57E-05 tst  7.46E-07 PX  9.48E-04
 TTTTTTTTTTTTTTTTTTTTTTTTTTTTTT DIIS        TELAPSE      222.05 TCPU     5925.98
 DIIS TEST: 0.53627E-05 AT SCF   CYCLE   7 - DIIS ACTIVE - HISTORY:     7 CYCLES
 TTTTTTTTTTTTTTTTTTTTTTTTTTTTTT FDIK        TELAPSE      224.11 TCPU     5991.19
 INSULATING STATE
 TOP OF VALENCE BANDS -    BAND    198; K    1; EIG -2.3507967E-01 AU
 BOTTOM OF VIRTUAL BANDS - BAND    199; K    1; EIG -9.2934794E-02 AU
 DIRECT ENERGY BAND GAP:   3.8680 eV
 TTTTTTTTTTTTTTTTTTTTTTTTTTTTTT PDIG        TELAPSE      225.78 TCPU     5998.14
 CHARGE NORMALIZATION FACTOR   1.00000000
 TOTAL ATOMIC CHARGES:
   4.5058108   4.5058108   4.5057152   4.5057152   4.5058056   4.5058056
   4.5056910   4.5056910   4.5055184   4.5055184   4.5056238   4.5056238
   0.8796671   0.8796671   0.8797714   0.8797714   0.8796255   0.8796255
   0.8797176   0.8797176   0.8796299   0.8796299   0.8798020   0.8798020
   0.8796522   0.8796522   0.8797387   0.8797387   0.8796239   0.8796239
   0.8797811   0.8797811   0.8796448   0.8796448   0.8797311   0.8797311
   5.9204324   5.9204324   6.1623643   6.1623643   6.1623939   6.1623939
   6.1622853   6.1622853   6.1623532   6.1623532   5.9211394   5.9211394
   5.9204962   5.9204962   6.1622568   6.1622568   6.1624092   6.1624092
   6.1623194   6.1623194   6.1623689   6.1623689   5.9210785   5.9210785
   5.9206414   5.9206414   6.1622214   6.1622214   6.1624459   6.1624459
   6.1622912   6.1622912   6.1624073   6.1624073   5.9209842   5.9209842
   8.4892516   8.4892516   8.4894750   8.4894750   8.4894385   8.4894385
   8.4893431   8.4893431   8.4894400   8.4894400   8.4896129   8.4896129
 TTTTTTTTTTTTTTTTTTTTTTTTTTTTTT MOQGAD      TELAPSE      225.88 TCPU     5998.24
 TTTTTTTTTTTTTTTTTTTTTTTTTTTTTT SHELLXN     TELAPSE      244.05 TCPU     6577.76
 TTTTTTTTTTTTTTTTTTTTTTTTTTTTTT MONMO3      TELAPSE      244.65 TCPU     6597.09
 NUMERICALLY INTEGRATED DENSITY    395.9997679154
 TTTTTTTTTTTTTTTTTTTTTTTTTTTTTT NUMDFT      TELAPSE      246.21 TCPU     6646.90
 CYC   8 ETOT(AU) -2.578210416141E+03 DETOT -9.93E-07 tst  8.85E-09 PX  1.34E-04
 TTTTTTTTTTTTTTTTTTTTTTTTTTTTTT DIIS        TELAPSE      246.62 TCPU     6653.97
 DIIS TEST: 0.91854E-07 AT SCF   CYCLE   8 - DIIS ACTIVE - HISTORY:     8 CYCLES
 TTTTTTTTTTTTTTTTTTTTTTTTTTTTTT FDIK        TELAPSE      248.68 TCPU     6719.18
 INSULATING STATE
 TOP OF VALENCE BANDS -    BAND    198; K    1; EIG -2.3509179E-01 AU
 BOTTOM OF VIRTUAL BANDS - BAND    199; K    1; EIG -9.2924527E-02 AU
 DIRECT ENERGY BAND GAP:   3.8686 eV
 TTTTTTTTTTTTTTTTTTTTTTTTTTTTTT PDIG        TELAPSE      250.35 TCPU     6726.13
 CHARGE NORMALIZATION FACTOR   1.00000000
 TOTAL ATOMIC CHARGES:
   4.5057802   4.5057802   4.5056897   4.5056897   4.5057776   4.5057776
   4.5056565   4.5056565   4.5054855   4.5054855   4.5055939   4.5055939
   0.8796468   0.8796468   0.8797597   0.8797597   0.8796076   0.8796076
   0.8797035   0.8797035   0.8796169   0.8796169   0.8797831   0.8797831
   0.8796383   0.8796383   0.8797207   0.8797207   0.8796088   0.8796088
   0.8797642   0.8797642   0.8796283   0.8796283   0.8797157   0.8797157
   5.9204380   5.9204380   6.1624605   6.1624605   6.1624312   6.1624312
   6.1623719   6.1623719   6.1624007   6.1624007   5.9210368   5.9210368
   5.9204205   5.9204205   6.1623179   6.1623179   6.1624813   6.1624813
   6.1623683   6.1623683   6.1624541   6.1624541   5.9210570   5.9210569
   5.9205967   5.9205967   6.1622951   6.1622951   6.1625056   6.1625056
   6.1623523   6.1623523   6.1624797   6.1624797   5.9209322   5.9209322
   8.4892205   8.4892205   8.4894573   8.4894573   8.4894219   8.4894219
   8.4893131   8.4893131   8.4894098   8.4894098   8.4896008   8.4896008
 TTTTTTTTTTTTTTTTTTTTTTTTTTTTTT MOQGAD      TELAPSE      250.45 TCPU     6726.23
 TTTTTTTTTTTTTTTTTTTTTTTTTTTTTT SHELLXN     TELAPSE      268.59 TCPU     7305.09
 +++ ENERGIES IN A.U. +++
 ::: EXT EL-POLE                                  -2.4156221754188E+03
 ::: EXT EL-SPHEROPOLE                             2.7892380064758E+01
 ::: BIELET ZONE E-E                               4.2640110352579E+03
 ::: TOTAL E-E                                     1.8762812399038E+03
 ::: TOTAL E-N + N-E                              -7.4124496047243E+03
 ::: TOTAL N-N                                     6.6551923288162E+02
 ::: KINETIC ENERGY                                2.5598659888397E+03
 ::: PSEUDO TOTAL   ENERGY                        -2.3107831430991E+03
 ::: VIRIAL COEFFICIENT                            1.0511395584025E+00
 TTTTTTTTTTTTTTTTTTTTTTTTTTTTTT MONMO3      TELAPSE      269.20 TCPU     7324.34
 NUMERICALLY INTEGRATED DENSITY    395.9997679105
 EXCHANGE ENERGY: -0.252047182226E+03  CORRELATION ENERGY: -0.153800909672E+02
 TTTTTTTTTTTTTTTTTTTTTTTTTTTTTT NUMDFT      TELAPSE      270.75 TCPU     7373.86
 CYC   9 ETOT(AU) -2.578210416292E+03 DETOT -1.51E-07 tst  3.33E-10 PX  1.34E-04

 == SCF ENDED - CONVERGENCE ON ENERGY      E(AU) -2.5782104162920E+03 CYCLES   9


 ENERGY EXPRESSION=HARTREE+FOCK EXCH*0.00000+(HSESOL     EXCH)*1.00000+PBESOL     CORR


 TOTAL ENERGY(DFT)(AU)(  9) -2.5782104162920E+03 DE-1.5E-07 tester 3.3E-10
 TTTTTTTTTTTTTTTTTTTTTTTTTTTTTT EDFT        TELAPSE      270.75 TCPU     7373.87
 
 INFORMATION **** DFTD3 ENERGY **** CALCULATE DFTD3 ENERGY

           DFT-D V3(BJ)
 DF                                         hsesol3c  
 parameters
 s6       :    1.0000
 s8       :    0.0000
 a1       :    0.5196
 a2       :    4.9385
 k1 k3    :   16.0000   -4.0000
 Cutoff   :   50.2022
 CN-Cutoff:   21.1671
 ABC-Cutoff:   21.1671
 
 Edisp /kcal,au:   -50.9138 -0.08113631

 E6    /kcal :   -54.2889
 E8    /kcal :     0.0000
 E6(ABC) "   :   3.375099
 
 INFORMATION **** DFTD3 ENERGY **** NORMAL TERMINATION OF DFTD3 MODULE

 GCP ENERGY CALCULATION
  level        hsesol3c            basis:hsesol3c
  Nbf            948
  Atoms           84

  Parameters: 
  sigma     1.0000
  eta       1.4281
  alpha     0.2936
  beta      1.9467

  dmp_scal      4.0000
  dmp_exp       6.0000
 cutoffs: 
   distance [bohr] 60.0
   noise    [a.u.] 2.2E-16
 SR-damping   T
 ** gCP correction **
  Egcp:        0.1659271018 / (a.u.) ||     104.1208 / (kcal/mol)
 INFORMATION **** GCP **** NORMAL TERMINATION OF GCP MODULE

 *******************************************************************************

 DFT-D3-GCP DISPERSION AND COUNTERPOISE CORRECTION

 D3 DISPERSION ENERGY (AU)      -8.1136307935932E-02
 GCP ENERGY (AU)                 1.6592710180378E-01
 TOTAL ENERGY + DISP + GCP (AU) -2.5781256254982E+03

 *******************************************************************************

 EIGENVECTORS IN FORTRAN UNIT 10
 TTTTTTTTTTTTTTTTTTTTTTTTTTTTTT END         TELAPSE      273.60 TCPU     7382.59
 EEEEEEEEEE TERMINATION  DATE 19 02 2026 TIME 20:29:51.6
