 Default number of threads is:           32

         
 *******************************************************************************
 *                                                                             *
 *                               CRYSTAL23                                     *
 *                      public : 1.0.1 - October 2022                          *
 *                       HTTP://WWW.CRYSTAL.UNITO.IT                           *
 *                                                                             *
 *                              MAIN AUTHORS                                   *
 *                                                                             *
 *  R. DOVESI(1,11), V.R. SAUNDERS(2), C. ROETTI(1,11), R. ORLANDO(1,11),      *
 *  C.M. ZICOVICH-WILSON(1,3), F. PASCALE(4), B. CIVALLERI(1,11),              *
 *  K. DOLL(5), N.M. HARRISON(6), I.J. BUSH(7), Ph. D'ARCO(8),                 *
 *  M. LLUNELL(9), M. CAUSA'(10), Y. NOEL(8), L. MASCHIO(1,11), A. ERBA(1,11)  *
 *  M. RE'RAT(14), S. CASASSA(1,11), B.G. SEARLE(2), J.K. DESMARAIS(1)         *
 *                                                                             *
 *        CONTRIBUTIONS TO THE CODE HAVE ALSO BEEN GIVEN BY                    *
 *                                                                             *
 *  M. FERRABONE(1,11), M. DE LA PIERRE(1,11), M. FERRERO(1,11),               *
 *  J. BAIMA(1,11), E. ALBANESE(1,11), M.F. PEINTINGER(12), R. BAST(13),       *
 *  B. KIRTMAN(15), V. LACIVITA(1,11), R. DEMICHELIS(1,16)                     *
 *  G. BRANDEBURG(17), S. SALUSTRO(1,11), G. SANSONE(1,11)                     *
 *  M.T. RUGGIERO(18), L.E. DAGA(1), L. DONA'(1), A. COSSARD(1)                *
 *                                                                             *
 * (1) THEORETICAL CHEMISTRY GROUP - UNIVERSITA' DI TORINO - TORINO (ITALY)    *
 * (2) SCIENTIFIC COMPUTING DEPARTMENT - STFC DARESBURY (UK)                   *
 * (3) UNIVERSIDAD AUTONOMA DEL ESTADO DE MORELOS - CUERNAVACA (MEXICO)        *
 * (4) UNIVERSITE' DE LORRAINE - NANCY (FRANCE)                                *
 * (5) UNIVERSITAET STUTTGART- STUTTGART (GERMANY)                             *
 * (6) IMPERIAL COLLEGE - LONDON (UK)                                          *
 * (7) SCIENTIFIC COMPUTING DEPARTMENT - STFC RAL (UK)                         *
 * (8) UPMC - SORBONNE UNIVERSITES - PARIS (FRANCE)                            *
 * (9) UNIVERSIDAD DE BARCELONA - BARCELONA (SPAIN)                            *
 *(10) UNIVERSITA' DI NAPOLI "FEDERICO II" - NAPOLI (ITALY)                    *
 *(11) NIS - NANOSTRUCTURED INTERFACES AND SURFACES - TORINO (ITALY)           *
 *(12) MPI FUER CHEMISCHE ENERGIEKONVERSION - MUELHEIM AN DER RUHR (GERMANY)   *
 *(13) UNIVERSITY OF TROMSO - TROMSO (NORWAY)                                  *
 *(14) UNIVERSITE' DE PAU ET DES PAYS DE L'ADOUR - PAU (FRANCE)                *
 *(15) UNIVERSITY OF CALIFORNIA SANTA BARBARA - SANTA BARBARA (USA)            *
 *(16) CURTIN UNIVERSITY - PERTH (AUSTRALIA)                                   *
 *(17) UNIVERSITY COLLEGE LONDON - LONDON (UK)                                 *
 *(18) UNIVERSITY OF VERMONT - BURLINGTON (USA)                                *
 *                                                                             *
 *******************************************************************************
 EEEEEEEEEE STARTING  DATE 19 02 2026 TIME 18:57:40.6
 cof-1_z38_L040_incl                                                             

 CRYSTAL CALCULATION
 (INPUT ACCORDING TO THE INTERNATIONAL TABLES FOR X-RAY CRYSTALLOGRAPHY)
 CRYSTAL FAMILY                       :  TRICLINIC   
 CRYSTAL CLASS  (GROTH - 1921)        :  TRICLINIC PEDIAL                     

 SPACE GROUP (NONCENTROSYMMETRIC)     :  P 1             

 LATTICE PARAMETERS  (ANGSTROMS AND DEGREES) - CONVENTIONAL CELL
        A           B           C        ALPHA        BETA       GAMMA
    15.02361    15.02392     5.51725    51.10541    89.99996   119.99596


 NUMBER OF IRREDUCIBLE ATOMS IN THE CONVENTIONAL CELL:   42

 INPUT COORDINATES

 ATOM AT. N.              COORDINATES
   1   5     5.366412700000E-01  7.322402000000E-02  5.012539000000E-01
   2   5     6.956969300000E-01  2.322836700000E-01  5.012539200000E-01
   3   5     5.370432000000E-01  2.330789400000E-01  4.986109900000E-01
   4   5     1.502159800000E-01  4.595390100000E-01  5.012539200000E-01
   5   5     3.093239500000E-01  4.595182400000E-01  5.012539100000E-01
   6   5     3.097104300000E-01  6.194699200000E-01  4.986109900000E-01
   7   1     8.268464800000E-01  1.565202800000E-01  4.957745900000E-01
   8   1     2.056617000000E-02  5.389012500000E-01  4.949367100000E-01
   9   1     8.269228800000E-01  4.419598800000E-01  4.948077600000E-01
  10   1     2.068269000000E-02  2.535625000000E-01  4.948399200000E-01
  11   1     6.135373800000E-01 -5.800167000000E-02  5.042192000000E-01
  12   1     2.313059200000E-01  7.481739200000E-01  5.050571400000E-01
  13   1     3.282263600000E-01 -5.825307000000E-02  5.051861700000E-01
  14   1     5.166735500000E-01  7.480542200000E-01  5.051537900000E-01
  15   1     6.148755900000E-01  4.416444200000E-01  4.957746400000E-01
  16   1     2.328934800000E-01  2.534571600000E-01  4.949366600000E-01
  17   1     3.297920400000E-01  1.567107300000E-01  4.948076600000E-01
  18   1     5.182373800000E-01  5.388354600000E-01  4.948400200000E-01
  19   6     8.152721000000E-01  2.926916900000E-01  4.985142900000E-01
  20   6     8.702721500000E-01  2.403362200000E-01  4.959035300000E-01
  21   6    -2.279417000000E-02  4.548052200000E-01  4.956780100000E-01
  22   6     8.701657900000E-01  4.011040400000E-01  4.963548500000E-01
  23   6    -2.259247000000E-02  2.941968900000E-01  4.946143000000E-01
  24   6     3.174462000000E-02  4.014375800000E-01  4.963870500000E-01
  25   6     4.769654700000E-01 -4.599511000000E-02  5.014795400000E-01
  26   6     5.297026500000E-01 -1.014102100000E-01  5.040902400000E-01
  27   6     3.152888000000E-01  7.916276600000E-01  5.043158600000E-01
  28   6     3.688817300000E-01 -1.012245800000E-01  5.036390400000E-01
  29   6     4.760435100000E-01  7.912610900000E-01  5.053794500000E-01
  30   6     3.685270200000E-01  7.371745400000E-01  5.036067700000E-01
  31   6     4.774266600000E-01  2.926225500000E-01  4.985142800000E-01
  32   6     5.309932500000E-01  4.011763500000E-01  4.959035900000E-01
  33   6     3.166410800000E-01  2.937919700000E-01  4.956779500000E-01
  34   6     3.700009500000E-01  2.401018600000E-01  4.963547700000E-01
  35   6     4.777241400000E-01  4.550449000000E-01  4.946143700000E-01
  36   6     3.696687100000E-01  4.013601800000E-01  4.963870500000E-01
  37   8     4.839946300000E-01  1.268709200000E-01  4.993200500000E-01
  38   8     6.420826700000E-01  1.251644800000E-01  5.048959900000E-01
  39   8     6.433732900000E-01  2.866956800000E-01  4.964837600000E-01
  40   8     2.035824500000E-01  5.661513900000E-01  4.993200800000E-01
  41   8     2.027449400000E-01  4.054817600000E-01  5.048959900000E-01
  42   8     3.629577100000E-01  5.670076500000E-01  4.964837400000E-01

 *******************************************************************************

 << INFORMATION >>: FROM NOW ON, ALL COORDINATES REFER TO THE PRIMITIVE CELL

 *******************************************************************************

 LATTICE PARAMETERS  (ANGSTROMS AND DEGREES) - PRIMITIVE CELL
       A          B          C        ALPHA      BETA     GAMMA        VOLUME
   15.02361   15.02392    5.51725    51.10541  89.99996 119.99596    742.834559

 COORDINATES OF THE EQUIVALENT ATOMS (FRACTIONAL UNITS)

 N. ATOM EQUIV AT. N.          X                  Y                  Z

   1   1   1    5 B    -4.63358730000E-01  7.32240200000E-02 -4.98746100000E-01

   2   2   1    5 B    -3.04303070000E-01  2.32283670000E-01 -4.98746080000E-01

   3   3   1    5 B    -4.62956800000E-01  2.33078940000E-01  4.98610990000E-01

   4   4   1    5 B     1.50215980000E-01  4.59539010000E-01 -4.98746080000E-01

   5   5   1    5 B     3.09323950000E-01  4.59518240000E-01 -4.98746090000E-01

   6   6   1    5 B     3.09710430000E-01 -3.80530080000E-01  4.98610990000E-01

   7   7   1    1 H    -1.73153520000E-01  1.56520280000E-01  4.95774590000E-01

   8   8   1    1 H     2.05661700000E-02 -4.61098750000E-01  4.94936710000E-01

   9   9   1    1 H    -1.73077120000E-01  4.41959880000E-01  4.94807760000E-01

  10  10   1    1 H     2.06826900000E-02  2.53562500000E-01  4.94839920000E-01

  11  11   1    1 H    -3.86462620000E-01 -5.80016700000E-02 -4.95780800000E-01

  12  12   1    1 H     2.31305920000E-01 -2.51826080000E-01 -4.94942860000E-01

  13  13   1    1 H     3.28226360000E-01 -5.82530700000E-02 -4.94813830000E-01

  14  14   1    1 H    -4.83326450000E-01 -2.51945780000E-01 -4.94846210000E-01

  15  15   1    1 H    -3.85124410000E-01  4.41644420000E-01  4.95774640000E-01

  16  16   1    1 H     2.32893480000E-01  2.53457160000E-01  4.94936660000E-01

  17  17   1    1 H     3.29792040000E-01  1.56710730000E-01  4.94807660000E-01

  18  18   1    1 H    -4.81762620000E-01 -4.61164540000E-01  4.94840020000E-01

  19  19   1    6 C    -1.84727900000E-01  2.92691690000E-01  4.98514290000E-01

  20  20   1    6 C    -1.29727850000E-01  2.40336220000E-01  4.95903530000E-01

  21  21   1    6 C    -2.27941700000E-02  4.54805220000E-01  4.95678010000E-01

  22  22   1    6 C    -1.29834210000E-01  4.01104040000E-01  4.96354850000E-01

  23  23   1    6 C    -2.25924700000E-02  2.94196890000E-01  4.94614300000E-01

  24  24   1    6 C     3.17446200000E-02  4.01437580000E-01  4.96387050000E-01

  25  25   1    6 C     4.76965470000E-01 -4.59951100000E-02 -4.98520460000E-01

  26  26   1    6 C    -4.70297350000E-01 -1.01410210000E-01 -4.95909760000E-01

  27  27   1    6 C     3.15288800000E-01 -2.08372340000E-01 -4.95684140000E-01

  28  28   1    6 C     3.68881730000E-01 -1.01224580000E-01 -4.96360960000E-01

  29  29   1    6 C     4.76043510000E-01 -2.08738910000E-01 -4.94620550000E-01

  30  30   1    6 C     3.68527020000E-01 -2.62825460000E-01 -4.96393230000E-01

  31  31   1    6 C     4.77426660000E-01  2.92622550000E-01  4.98514280000E-01

  32  32   1    6 C    -4.69006750000E-01  4.01176350000E-01  4.95903590000E-01

  33  33   1    6 C     3.16641080000E-01  2.93791970000E-01  4.95677950000E-01

  34  34   1    6 C     3.70000950000E-01  2.40101860000E-01  4.96354770000E-01

  35  35   1    6 C     4.77724140000E-01  4.55044900000E-01  4.94614370000E-01

  36  36   1    6 C     3.69668710000E-01  4.01360180000E-01  4.96387050000E-01

  37  37   1    8 O     4.83994630000E-01  1.26870920000E-01  4.99320050000E-01

  38  38   1    8 O    -3.57917330000E-01  1.25164480000E-01 -4.95104010000E-01

  39  39   1    8 O    -3.56626710000E-01  2.86695680000E-01  4.96483760000E-01

  40  40   1    8 O     2.03582450000E-01 -4.33848610000E-01  4.99320080000E-01

  41  41   1    8 O     2.02744940000E-01  4.05481760000E-01 -4.95104010000E-01

  42  42   1    8 O     3.62957710000E-01 -4.32992350000E-01  4.96483740000E-01

 NUMBER OF SYMMETRY OPERATORS         :    1
 *******************************************************************************
 * GEOMETRY EDITING - INPUT COORDINATES ARE GIVEN IN ANGSTROM         
 *******************************************************************************

 GCALCO - MAX INDICES DIRECT LATTICE VECTOR     9    12    28
 NO.OF VECTORS CREATED 6999 STARS 3500 RMAX   203.09924 BOHR

 GEOMETRY FOR WAVE FUNCTION - DIMENSIONALITY OF THE SYSTEM    3
 (NON PERIODIC DIRECTION: LATTICE PARAMETER FORMALLY SET TO 500)
 *******************************************************************************
 LATTICE PARAMETERS (ANGSTROMS AND DEGREES) - BOHR = 0.5291772083 ANGSTROM
 PRIMITIVE CELL - CENTRING CODE 1/0 VOLUME=   742.834559 - DENSITY  0.872 g/cm^3
         A              B              C           ALPHA      BETA       GAMMA 
    15.02361100    15.02391600     5.51724600    51.105409  89.999961 119.995964
 *******************************************************************************
 ATOMS IN THE ASYMMETRIC UNIT   42 - ATOMS IN THE UNIT CELL:   42
     ATOM                 X/A                 Y/B                 Z/C    
 *******************************************************************************
      1 T   5 B    -4.633587300000E-01  7.322402000000E-02 -4.987461000000E-01
      2 T   5 B    -3.043030700000E-01  2.322836700000E-01 -4.987460800000E-01
      3 T   5 B    -4.629568000000E-01  2.330789400000E-01  4.986109900000E-01
      4 T   5 B     1.502159800000E-01  4.595390100000E-01 -4.987460800000E-01
      5 T   5 B     3.093239500000E-01  4.595182400000E-01 -4.987460900000E-01
      6 T   5 B     3.097104300000E-01 -3.805300800000E-01  4.986109900000E-01
      7 T   1 H    -1.731535200000E-01  1.565202800000E-01  4.957745900000E-01
      8 T   1 H     2.056617000000E-02 -4.610987500000E-01  4.949367100000E-01
      9 T   1 H    -1.730771200000E-01  4.419598800000E-01  4.948077600000E-01
     10 T   1 H     2.068269000000E-02  2.535625000000E-01  4.948399200000E-01
     11 T   1 H    -3.864626200000E-01 -5.800167000000E-02 -4.957808000000E-01
     12 T   1 H     2.313059200000E-01 -2.518260800000E-01 -4.949428600000E-01
     13 T   1 H     3.282263600000E-01 -5.825307000000E-02 -4.948138300000E-01
     14 T   1 H    -4.833264500000E-01 -2.519457800000E-01 -4.948462100000E-01
     15 T   1 H    -3.851244100000E-01  4.416444200000E-01  4.957746400000E-01
     16 T   1 H     2.328934800000E-01  2.534571600000E-01  4.949366600000E-01
     17 T   1 H     3.297920400000E-01  1.567107300000E-01  4.948076600000E-01
     18 T   1 H    -4.817626200000E-01 -4.611645400000E-01  4.948400200000E-01
     19 T   6 C    -1.847279000000E-01  2.926916900000E-01  4.985142900000E-01
     20 T   6 C    -1.297278500000E-01  2.403362200000E-01  4.959035300000E-01
     21 T   6 C    -2.279417000000E-02  4.548052200000E-01  4.956780100000E-01
     22 T   6 C    -1.298342100000E-01  4.011040400000E-01  4.963548500000E-01
     23 T   6 C    -2.259247000000E-02  2.941968900000E-01  4.946143000000E-01
     24 T   6 C     3.174462000000E-02  4.014375800000E-01  4.963870500000E-01
     25 T   6 C     4.769654700000E-01 -4.599511000000E-02 -4.985204600000E-01
     26 T   6 C    -4.702973500000E-01 -1.014102100000E-01 -4.959097600000E-01
     27 T   6 C     3.152888000000E-01 -2.083723400000E-01 -4.956841400000E-01
     28 T   6 C     3.688817300000E-01 -1.012245800000E-01 -4.963609600000E-01
     29 T   6 C     4.760435100000E-01 -2.087389100000E-01 -4.946205500000E-01
     30 T   6 C     3.685270200000E-01 -2.628254600000E-01 -4.963932300000E-01
     31 T   6 C     4.774266600000E-01  2.926225500000E-01  4.985142800000E-01
     32 T   6 C    -4.690067500000E-01  4.011763500000E-01  4.959035900000E-01
     33 T   6 C     3.166410800000E-01  2.937919700000E-01  4.956779500000E-01
     34 T   6 C     3.700009500000E-01  2.401018600000E-01  4.963547700000E-01
     35 T   6 C     4.777241400000E-01  4.550449000000E-01  4.946143700000E-01
     36 T   6 C     3.696687100000E-01  4.013601800000E-01  4.963870500000E-01
     37 T   8 O     4.839946300000E-01  1.268709200000E-01  4.993200500000E-01
     38 T   8 O    -3.579173300000E-01  1.251644800000E-01 -4.951040100000E-01
     39 T   8 O    -3.566267100000E-01  2.866956800000E-01  4.964837600000E-01
     40 T   8 O     2.035824500000E-01 -4.338486100000E-01  4.993200800000E-01
     41 T   8 O     2.027449400000E-01  4.054817600000E-01 -4.951040100000E-01
     42 T   8 O     3.629577100000E-01 -4.329923500000E-01  4.964837400000E-01

 T = ATOM BELONGING TO THE ASYMMETRIC UNIT

 ****    1 SYMMOPS - TRANSLATORS IN FRACTIONAL UNITS
 **** MATRICES AND TRANSLATORS IN THE CRYSTALLOGRAPHIC REFERENCE FRAME
   V INV                    ROTATION MATRICES                   TRANSLATORS
   1   1  1.00 -0.00  0.00  0.00  1.00  0.00  0.00  0.00  1.00  0.00  0.00  0.00

 DIRECT LATTICE VECTORS CARTESIAN COMPONENTS (ANGSTROM)
          X                    Y                    Z
   0.130113578931E+02  -0.751088897922E+01   0.000000000000E+00
   0.000000000000E+00   0.150239160000E+02   0.000000000000E+00
   0.199974808352E+01   0.346422130082E+01   0.380002392176E+01


 CARTESIAN COORDINATES - PRIMITIVE CELL
 *******************************************************************************
 *      ATOM          X(ANGSTROM)         Y(ANGSTROM)         Z(ANGSTROM)
 *******************************************************************************
    1     5 B    -7.026292826540E+00  2.852580640922E+00 -1.895247110882E+00
    2     5 B    -4.956762669369E+00  4.047630127020E+00 -1.895247034882E+00
    3     5 B     5.985009567387E+00 -2.268835924754E+00 -1.905290232105E+00
    4     5 B     9.571473593934E-01  4.048053142242E+00 -1.895247034882E+00
    5     5 B     3.027358080704E+00  2.852698762486E+00 -1.895247072882E+00
    6     5 B     3.027101536097E+00  5.243740898732E+00 -1.905290232105E+00
    7     1 H    -3.261286216472E+00  1.905335998360E+00 -1.916068619957E+00
    8     1 H     1.257342535645E+00 -5.367408813962E+00  1.880771337755E+00
    9     1 H    -1.262477481649E+00 -5.369861272344E+00  1.880281324670E+00
   10     1 H    -7.410830200694E-01  1.904170002908E+00 -1.919620388316E+00
   11     1 H    -4.020092082235E+00  3.777992508420E+00  1.916045021808E+00
   12     1 H     4.019591155686E+00 -3.771097255365E+00  1.919229213853E+00
   13     1 H     5.280915715173E+00 -1.590384289440E+00  1.919719530940E+00
   14     1 H    -5.278553096695E+00  1.594963590903E+00  1.919596486165E+00
   15     1 H    -4.019567145665E+00 -3.778587577060E+00  1.883955491800E+00
   16     1 H     2.020260973018E+00  3.090308284834E-01 -1.919252774002E+00
   17     1 H     3.280784848997E+00 -1.872720620090E+00 -1.919742977088E+00
   18     1 H    -5.278830486673E+00 -1.595796420200E+00  1.880403913442E+00
   19     6 C    -3.406405907218E+00  4.047588634083E+00 -1.905657694419E+00
   20     6 C    -2.696001434838E+00  2.838860930857E+00 -1.915578644873E+00
   21     6 C    -1.305100036724E+00  5.257076921655E+00 -1.916435626267E+00
   22     6 C    -2.696482796559E+00  5.256585484550E+00 -1.913863618076E+00
   23     6 C    -1.304602797871E+00  2.838910989687E+00 -1.920477749713E+00
   24     6 C    -5.940584195990E-01  4.048107455897E+00 -1.913741257306E+00
   25     6 C     7.208801181839E+00 -2.536225256747E+00  1.905634248271E+00
   26     6 C    -5.111153645645E+00  3.755052853431E+00  1.915554970724E+00
   27     6 C     5.110840090996E+00 -3.751605961520E+00  1.916412332121E+00
   28     6 C     5.806803414265E+00 -2.546702217254E+00  1.913840399930E+00
   29     6 C    -5.806753825192E+00  2.550049432246E+00  1.920453999564E+00
   30     6 C     1.802627456598E+00  3.123445531467E+00 -5.686330070353E+00
   31     6 C     5.209124033464E+00 -9.268195413538E-01 -1.905657732419E+00
   32     6 C     5.900877384741E+00  2.927069129339E-01 -1.915578416871E+00
   33     6 C     3.111413362560E+00  2.885666925316E-01 -1.916435854269E+00
   34     6 C     3.807051197755E+00 -9.165044153937E-01 -1.913863922078E+00
   35     6 C     5.205195814662E+00  1.497655711022E+00 -1.920477483712E+00
   36     6 C     3.802792856076E+00  1.508834281405E+00 -1.913741257306E+00
   37     8 O     5.296193578778E+00 -3.463598035228E+00 -1.902595787143E+00
   38     8 O    -5.647073771898E+00  2.853588105507E+00 -1.881407081757E+00
   39     8 O    -1.647607226955E+00 -2.853889642559E+00  5.686674086519E+00
   40     8 O     1.647650407219E+00  5.242259702819E+00 -1.902595673143E+00
   41     8 O     1.647903680206E+00  2.853979308770E+00 -1.881407081757E+00
   42     8 O     3.715666988898E+00  4.048248487795E+00 -1.913373832993E+00

 *******************************************************************************
 STARTING BASIS SET HANDLING 
 *******************************************************************************

 Loading internal basis set: SOLDEF2MSVP         

 Please cite in your publication:
 L. Dona', J. G. Brandenburg and B. Civalleri, J. Chem. Phys., 151, 121101 (2019
 )                                                                              
                                                                                
                    

 *******************************************************************************
 LOCAL ATOMIC FUNCTIONS BASIS SET
 *******************************************************************************
   ATOM   X(AU)   Y(AU)   Z(AU)  N. TYPE  EXPONENT  S COEF   P COEF   D/F/G COEF
 *******************************************************************************
   1 B  -13.278   5.391  -3.581
                                  1 S  
                                         2.410E+03 1.755E-03 0.000E+00 0.000E+00
                                         3.619E+02 1.344E-02 0.000E+00 0.000E+00
                                         8.231E+01 6.637E-02 0.000E+00 0.000E+00
                                         2.311E+01 2.303E-01 0.000E+00 0.000E+00
                                         7.252E+00 5.150E-01 0.000E+00 0.000E+00
                                  2 S  
                                         2.367E+00 1.000E+00 0.000E+00 0.000E+00
                                  3 S  
                                         5.533E-01 1.000E+00 0.000E+00 0.000E+00
                                  4 S  
                                         1.716E-01 1.000E+00 0.000E+00 0.000E+00
                           5-     7 P  
                                         6.002E+00 0.000E+00-3.555E-02 0.000E+00
                                         1.240E+00 0.000E+00-1.983E-01 0.000E+00
                                         3.367E-01 0.000E+00-5.048E-01 0.000E+00
                           8-    10 P  
                                         1.256E-01 0.000E+00 1.000E+00 0.000E+00
                          11-    15 D  
                                         8.880E-01 0.000E+00 0.000E+00 1.000E+00
   2 B   -9.367   7.649  -3.581
   3 B   11.310  -4.287  -3.600
   4 B    1.809   7.650  -3.581
   5 B    5.721   5.391  -3.581
   6 B    5.720   9.909  -3.600
   7 H   -6.163   3.601  -3.621
                                 91 S  
                                         1.874E+01 1.968E-02 0.000E+00 0.000E+00
                                         2.826E+00 1.380E-01 0.000E+00 0.000E+00
                                         6.401E-01 4.783E-01 0.000E+00 0.000E+00
                                 92 S  
                                         1.756E-01 1.000E+00 0.000E+00 0.000E+00
   8 H    2.376 -10.143   3.554
   9 H   -2.386 -10.148   3.553
  10 H   -1.400   3.598  -3.628
  11 H   -7.597   7.139   3.621
  12 H    7.596  -7.126   3.627
  13 H    9.979  -3.005   3.628
  14 H   -9.975   3.014   3.628
  15 H   -7.596  -7.140   3.560
  16 H    3.818   0.584  -3.627
  17 H    6.200  -3.539  -3.628
  18 H   -9.976  -3.016   3.553
  19 C   -6.437   7.649  -3.601
                                115 S  
                                         3.624E+03 1.634E-03 0.000E+00 0.000E+00
                                         5.440E+02 1.252E-02 0.000E+00 0.000E+00
                                         1.237E+02 6.211E-02 0.000E+00 0.000E+00
                                         3.476E+01 2.182E-01 0.000E+00 0.000E+00
                                         1.093E+01 4.980E-01 0.000E+00 0.000E+00
                                116 S  
                                         3.574E+00 1.000E+00 0.000E+00 0.000E+00
                                117 S  
                                         7.742E-01 1.000E+00 0.000E+00 0.000E+00
                                118 S  
                                         2.330E-01 1.000E+00 0.000E+00 0.000E+00
                         119-   121 P  
                                         9.443E+00 0.000E+00 3.790E-02 0.000E+00
                                         2.002E+00 0.000E+00 2.082E-01 0.000E+00
                                         5.463E-01 0.000E+00 5.047E-01 0.000E+00
                         122-   124 P  
                                         1.820E-01 0.000E+00 1.000E+00 0.000E+00
                         125-   129 D  
                                         8.880E-01 0.000E+00 0.000E+00 1.000E+00
  20 C   -5.095   5.365  -3.620
  21 C   -2.466   9.934  -3.622
  22 C   -5.096   9.934  -3.617
  23 C   -2.465   5.365  -3.629
  24 C   -1.123   7.650  -3.616
  25 C   13.623  -4.793   3.601
  26 C   -9.659   7.096   3.620
  27 C    9.658  -7.090   3.621
  28 C   10.973  -4.813   3.617
  29 C  -10.973   4.819   3.629
  30 C    3.406   5.902 -10.746
  31 C    9.844  -1.751  -3.601
  32 C   11.151   0.553  -3.620
  33 C    5.880   0.545  -3.622
  34 C    7.194  -1.732  -3.617
  35 C    9.836   2.830  -3.629
  36 C    7.186   2.851  -3.616
  37 O   10.008  -6.545  -3.595
                                385 S  
                                         6.773E+03 1.727E-03 0.000E+00 0.000E+00
                                         1.017E+03 1.325E-02 0.000E+00 0.000E+00
                                         2.313E+02 6.603E-02 0.000E+00 0.000E+00
                                         6.501E+01 2.353E-01 0.000E+00 0.000E+00
                                         2.050E+01 5.498E-01 0.000E+00 0.000E+00
                                386 S  
                                         6.716E+00 1.000E+00 0.000E+00 0.000E+00
                                387 S  
                                         1.147E+00 1.000E+00 0.000E+00 0.000E+00
                                388 S  
                                         3.342E-01 1.000E+00 0.000E+00 0.000E+00
                         389-   391 P  
                                         1.769E+01 0.000E+00 4.359E-02 0.000E+00
                                         3.854E+00 0.000E+00 2.318E-01 0.000E+00
                                         1.047E+00 0.000E+00 5.146E-01 0.000E+00
                         392-   394 P  
                                         2.759E-01 0.000E+00 1.000E+00 0.000E+00
                         395-   399 D  
                                         8.000E-01 0.000E+00 0.000E+00 1.000E+00
  38 O  -10.671   5.393  -3.555
  39 O   -3.114  -5.393  10.746
  40 O    3.114   9.906  -3.595
  41 O    3.114   5.393  -3.555
  42 O    7.022   7.650  -3.616

 *******************************************************************************
 FINISHED BASIS SET HANDLING 
 *******************************************************************************

 INFORMATION **** SET_MPP **** PCRYSTAL CALCULATION
 INFORMATION **** READM2 **** NEW DEFAULT: FOCK/KS MATRIX MIXING SET TO 30 %
 INFORMATION **** READM2 **** NEW DEFAULT: FULL DIRECT SCF MODE
 INFORMATION **** READM2 **** NEW DEFAULT: COULOMB BIPOLAR BUFFER SET TO 32 Mb
 INFORMATION **** READM2 **** NEW DEFAULT: EXCHANGE BIPOLAR BUFFER SET TO 32 Mb

 *******************************************************************************
 NEW DEFAULT: DFT INTEGRATION GRID INCREASED TO XLGRID
 NEW DEFAULT: DIIS ACCELERATOR ACTIVE
 USE KEYWORD NODIIS TO TURN IT OFF
 *******************************************************************************

 WARNING **** RDDFTP **** HSEsol-HJS ACTIVE
 RANGE SEPARATION - OMEGA:   0.110000000000000     
 WARNING **** RDDFTP **** HSEsol-3c has to be combined with sol-def2-mSVP basis set
 *******************************************************************************
 N. OF ATOMS PER CELL        42  COULOMB OVERLAP TOL         (T1) 10**   -6
 NUMBER OF SHELLS           234  COULOMB PENETRATION TOL     (T2) 10**   -6
 NUMBER OF AO               474  EXCHANGE OVERLAP TOL        (T3) 10**   -6
 N. OF ELECTRONS PER CELL   198  EXCHANGE PSEUDO OVP (F(G))  (T4) 10**   -6
 CORE ELECTRONS PER CELL     60  EXCHANGE PSEUDO OVP (P(G))  (T5) 10**  -12
 N. OF SYMMETRY OPERATORS     1  POLE ORDER IN MONO ZONE                  4
 *******************************************************************************
 TYPE OF CALCULATION :  RESTRICTED CLOSED SHELL
 KOHN-SHAM HAMILTONIAN

 (EXCHANGE)[CORRELATION] FUNCTIONAL:(HSEsol GGA)[PBEsol]

 RANGE-SEPARATED HYBRID FUNCTIONAL 
 OMEGA (SHORT-RANGE)[LONG-RANGE]:(    0.1100)[    0.0000]

 HYBRID EXCHANGE - PERCENTAGE OF FOCK EXCHANGE    25.0000

 CAPPA:IS1  2;IS2  2;IS3  8; K PTS MONK NET  20; SYMMOPS:K SPACE   2;G SPACE   1

 *******************************************************************************
 MAX NUMBER OF SCF CYCLES      50  CONVERGENCE ON DELTAP        10**-16
 WEIGHT OF F(I) IN F(I+1)      30% CONVERGENCE ON ENERGY        10**- 6
 SHRINK. FACT.(MONKH.)    2  2  8  NUMBER OF K POINTS IN THE IBZ     20
 SHRINKING FACTOR(GILAT NET)    8  NUMBER OF K POINTS(GILAT NET)   1028
 *******************************************************************************
 *** K POINTS COORDINATES (OBLIQUE COORDINATES IN UNITS OF IS =  2)
   1-R(  0  0  0)   2-R(  1  0  0)   3-R(  0  1  0)   4-R(  1  1  0)
   5-C(  0  0  1)   6-C(  1  0  1)   7-C(  0  1  1)   8-C(  1  1  1)
   9-C(  0  0  2)  10-C(  1  0  2)  11-C(  0  1  2)  12-C(  1  1  2)
  13-C(  0  0  3)  14-C(  1  0  3)  15-C(  0  1  3)  16-C(  1  1  3)
  17-R(  0  0  4)  18-R(  1  0  4)  19-R(  0  1  4)  20-R(  1  1  4)

 DIRECT LATTICE VECTORS COMPON. (A.U.)     RECIP. LATTICE VECTORS COMPON. (A.U.) 
        X            Y            Z              X            Y            Z
   24.5879030  -14.1935232    0.0000000      0.2555397    0.0000000   -0.1344768
    0.0000000   28.3910867    0.0000000      0.1277517    0.2213084   -0.2689805
    3.7789762    6.5464295    7.1810045      0.0000000    0.0000000    0.8749730

 DISK SPACE FOR EIGENVECTORS (FTN 10)     7189632 REALS

 SYMMETRY ADAPTION OF THE BLOCH FUNCTIONS DISABLED
 TTTTTTTTTTTTTTTTTTTTTTTTTTTTTT gordsh1     TELAPSE        0.04 TCPU        0.04

 MATRIX SIZE: P(G)  325718, F(G)   66897, P(G) IRR  163996, F(G) IRR   67521
 MAX G-VECTOR INDEX FOR 1- AND 2-ELECTRON INTEGRALS  49

 TTTTTTTTTTTTTTTTTTTTTTTTTTTTTT INPUT       TELAPSE        0.36 TCPU        0.36

 NEIGHBORS OF THE NON-EQUIVALENT ATOMS

 N = NUMBER OF NEIGHBORS AT DISTANCE R
    ATOM  N     R/ANG      R/AU   NEIGHBORS (ATOM LABELS AND CELL INDICES)
   1 B    1     1.3791     2.6061   37 O   -1 0 0
   1 B    1     1.3793     2.6065   38 O    0 0 0
   1 B    1     1.5503     2.9297   25 C   -1 0-1
   1 B    1     2.3895     4.5155    3 B   -1 0 0
   1 B    1     2.3898     4.5160    2 B    0 0 0
   1 B    1     2.5632     4.8437   26 C    0 0-1

   2 B    1     1.3793     2.6065   39 O    0 1-2
   2 B    1     1.3793     2.6065   38 O    0 0 0
   2 B    1     1.5504     2.9298   19 C    0 0 0
   2 B    1     2.3895     4.5156    3 B   -1 0 0
   2 B    1     2.3898     4.5160    1 B    0 0 0
   2 B    1     2.5634     4.8440   22 C    0 0 0

   3 B    1     1.3791     2.6061   37 O    0 0 0
   3 B    1     1.3793     2.6064   39 O    1 1-2
   3 B    1     1.5502     2.9294   31 C    0 0 0
   3 B    1     2.3895     4.5155    1 B    1 0 0
   3 B    1     2.3895     4.5156    2 B    1 0 0
   3 B    1     2.5629     4.8433   32 C    0 0 0

   4 B    1     1.3795     2.6068   40 O    0 0 0
   4 B    1     1.3795     2.6070   41 O    0 0 0
   4 B    1     1.5513     2.9316   24 C    0 0 0
   4 B    1     2.3905     4.5174    6 B    0 0 0
   4 B    1     2.3905     4.5175    5 B    0 0 0
   4 B    1     2.5648     4.8468   23 C    0 0 0

   5 B    1     1.3795     2.6069   41 O    0 0 0
   5 B    1     1.3797     2.6072   42 O    0 0 0
   5 B    1     1.5516     2.9322   36 C    0 0 0
   5 B    1     2.3905     4.5175    4 B    0 0 0
   5 B    1     2.3911     4.5185    6 B    0 0 0
   5 B    1     2.5651     4.8473   35 C    0 0 0

   6 B    1     1.3795     2.6068   40 O    0 0 0
   6 B    1     1.3796     2.6071   42 O    0 0 0
   6 B    1     1.5516     2.9322   30 C    0 0 1
   6 B    1     2.3905     4.5174    4 B    0 0 0
   6 B    1     2.3911     4.5185    5 B    0 0 0
   6 B    1     2.5651     4.8473   29 C    1 1-1

   7 H    1     1.0913     2.0623   20 C    0 0 0
   7 H    1     2.1472     4.0576   19 C    0 0 0
   7 H    1     2.1680     4.0969   23 C    0 0 0
   7 H    1     2.5202     4.7625   10 H    0 0 0
   7 H    1     2.5676     4.8520   38 O    0 0 0
   7 H    1     2.7321     5.1630    2 B    0 0 0

   8 H    1     1.0914     2.0625   21 C    0-1 1
   8 H    1     2.1493     4.0616   24 C    0-1 1
   8 H    1     2.1666     4.0942   22 C    0-1 1
   8 H    1     2.5198     4.7618    9 H    0 0 0
   8 H    1     2.5720     4.8604   40 O    0-1 1
   8 H    1     2.7362     5.1707    4 B    0-1 1

   9 H    1     1.0914     2.0624   22 C    0-1 1
   9 H    1     2.1471     4.0575   19 C    0-1 1
   9 H    1     2.1680     4.0970   21 C    0-1 1
   9 H    1     2.5198     4.7618    8 H    0 0 0
   9 H    1     2.5665     4.8500   39 O    0 0-1
   9 H    1     2.7315     5.1618    2 B    0-1 1

  10 H    1     1.0915     2.0626   23 C    0 0 0
  10 H    1     2.1490     4.0610   24 C    0 0 0
  10 H    1     2.1669     4.0948   20 C    0 0 0
  10 H    1     2.5202     4.7625    7 H    0 0 0
  10 H    1     2.5712     4.8588   41 O    0 0 0
  10 H    1     2.7351     5.1686    4 B    0 0 0

  11 H    1     1.0913     2.0623   26 C    0 0 0
  11 H    1     2.1469     4.0571   25 C   -1 0 0
  11 H    1     2.1680     4.0968   29 C    0 0 0
  11 H    1     2.5198     4.7617   14 H    0 0 0
  11 H    1     2.5670     4.8510   38 O    0 0 1
  11 H    1     2.7310     5.1609    1 B    0 0 1

  12 H    1     1.0914     2.0625   27 C    0 0 0
  12 H    1     2.1493     4.0617   30 C    0-1 2
  12 H    1     2.1664     4.0939   28 C    0 0 0
  12 H    1     2.5192     4.7606   13 H    0 0 0
  12 H    1     2.5735     4.8632   40 O    0-1 1
  12 H    1     2.7371     5.1723    6 B    0-1 1

  13 H    1     1.0914     2.0624   28 C    0 0 0
  13 H    1     2.1475     4.0581   25 C    0 0 0
  13 H    1     2.1679     4.0967   27 C    0 0 0
  13 H    1     2.5192     4.7606   12 H    0 0 0
  13 H    1     2.5675     4.8519   37 O    0 0 1
  13 H    1     2.7328     5.1643    1 B    1 0 1

  14 H    1     1.0914     2.0625   29 C    0 0 0
  14 H    1     2.1491     4.0612   30 C   -1-1 2
  14 H    1     2.1666     4.0942   26 C    0 0 0
  14 H    1     2.5198     4.7617   11 H    0 0 0
  14 H    1     2.5723     4.8609   42 O   -1-1 1
  14 H    1     2.7355     5.1693    6 B   -1-1 1

  15 H    1     1.0914     2.0624   32 C   -1-1 1
  15 H    1     2.1475     4.0582   31 C   -1-1 1
  15 H    1     2.1678     4.0966   35 C   -1-1 1
  15 H    1     2.5200     4.7621   18 H    0 0 0
  15 H    1     2.5667     4.8503   39 O    0 0-1
  15 H    1     2.7315     5.1618    3 B   -1-1 1

  16 H    1     1.0913     2.0623   33 C    0 0 0
  16 H    1     2.1487     4.0605   36 C    0 0 0
  16 H    1     2.1667     4.0945   34 C    0 0 0
  16 H    1     2.5197     4.7616   17 H    0 0 0
  16 H    1     2.5723     4.8610   41 O    0 0 0
  16 H    1     2.7359     5.1701    5 B    0 0 0

  17 H    1     1.0915     2.0626   34 C    0 0 0
  17 H    1     2.1479     4.0589   31 C    0 0 0
  17 H    1     2.1679     4.0968   33 C    0 0 0
  17 H    1     2.5197     4.7616   16 H    0 0 0
  17 H    1     2.5677     4.8522   37 O    0 0 0
  17 H    1     2.7331     5.1648    3 B    0 0 0

  18 H    1     1.0914     2.0624   35 C   -1-1 1
  18 H    1     2.1486     4.0602   36 C   -1-1 1
  18 H    1     2.1668     4.0947   32 C   -1-1 1
  18 H    1     2.5200     4.7621   15 H    0 0 0
  18 H    1     2.5717     4.8598   42 O   -1-1 1
  18 H    1     2.7349     5.1682    5 B   -1-1 1

  19 C    1     1.4020     2.6495   22 C    0 0 0
  19 C    1     1.4021     2.6495   20 C    0 0 0
  19 C    1     1.5504     2.9298    2 B    0 0 0
  19 C    1     2.1471     4.0575    9 H    0 1-1
  19 C    1     2.1472     4.0576    7 H    0 0 0
  19 C    1     2.4246     4.5817   21 C    0 0 0

  20 C    1     1.0913     2.0623    7 H    0 0 0
  20 C    1     1.3914     2.6294   23 C    0 0 0
  20 C    1     1.4021     2.6495   19 C    0 0 0
  20 C    1     2.1669     4.0948   10 H    0 0 0
  20 C    1     2.4177     4.5688   22 C    0 0 0
  20 C    1     2.4250     4.5825   24 C    0 0 0

  21 C    1     1.0914     2.0625    8 H    0 1-1
  21 C    1     1.3914     2.6293   22 C    0 0 0
  21 C    1     1.4026     2.6505   24 C    0 0 0
  21 C    1     2.1680     4.0970    9 H    0 1-1
  21 C    1     2.4182     4.5697   23 C    0 0 0
  21 C    1     2.4246     4.5817   19 C    0 0 0

  22 C    1     1.0914     2.0624    9 H    0 1-1
  22 C    1     1.3914     2.6293   21 C    0 0 0
  22 C    1     1.4020     2.6495   19 C    0 0 0
  22 C    1     2.1666     4.0942    8 H    0 1-1
  22 C    1     2.4177     4.5688   20 C    0 0 0
  22 C    1     2.4250     4.5826   24 C    0 0 0

  23 C    1     1.0915     2.0626   10 H    0 0 0
  23 C    1     1.3914     2.6294   20 C    0 0 0
  23 C    1     1.4025     2.6504   24 C    0 0 0
  23 C    1     2.1680     4.0969    7 H    0 0 0
  23 C    1     2.4182     4.5697   21 C    0 0 0
  23 C    1     2.4246     4.5818   19 C    0 0 0

  24 C    1     1.4025     2.6504   23 C    0 0 0
  24 C    1     1.4026     2.6505   21 C    0 0 0
  24 C    1     1.5513     2.9316    4 B    0 0 0
  24 C    1     2.1490     4.0610   10 H    0 0 0
  24 C    1     2.1493     4.0616    8 H    0 1-1
  24 C    1     2.4250     4.5825   20 C    0 0 0

  25 C    1     1.4020     2.6494   26 C    1 0 0
  25 C    1     1.4021     2.6495   28 C    0 0 0
  25 C    1     1.5503     2.9297    1 B    1 0 1
  25 C    1     2.1469     4.0571   11 H    1 0 0
  25 C    1     2.1475     4.0581   13 H    0 0 0
  25 C    1     2.4246     4.5818   27 C    0 0 0

  26 C    1     1.0913     2.0623   11 H    0 0 0
  26 C    1     1.3914     2.6293   29 C    0 0 0
  26 C    1     1.4020     2.6494   25 C   -1 0 0
  26 C    1     2.1666     4.0942   14 H    0 0 0
  26 C    1     2.4175     4.5684   28 C   -1 0 0
  26 C    1     2.4251     4.5828   30 C   -1-1 2

  27 C    1     1.0914     2.0625   12 H    0 0 0
  27 C    1     1.3915     2.6295   28 C    0 0 0
  27 C    1     1.4026     2.6505   30 C    0-1 2
  27 C    1     2.1679     4.0967   13 H    0 0 0
  27 C    1     2.4179     4.5691   29 C    1 0 0
  27 C    1     2.4246     4.5818   25 C    0 0 0

  28 C    1     1.0914     2.0624   13 H    0 0 0
  28 C    1     1.3915     2.6295   27 C    0 0 0
  28 C    1     1.4021     2.6495   25 C    0 0 0
  28 C    1     2.1664     4.0939   12 H    0 0 0
  28 C    1     2.4175     4.5684   26 C    1 0 0
  28 C    1     2.4253     4.5832   30 C    0-1 2

  29 C    1     1.0914     2.0625   14 H    0 0 0
  29 C    1     1.3914     2.6293   26 C    0 0 0
  29 C    1     1.4025     2.6504   30 C   -1-1 2
  29 C    1     2.1680     4.0968   11 H    0 0 0
  29 C    1     2.4179     4.5691   27 C   -1 0 0
  29 C    1     2.4247     4.5819   25 C   -1 0 0

  30 C    1     1.4025     2.6504   29 C    1 1-2
  30 C    1     1.4026     2.6505   27 C    0 1-2
  30 C    1     1.5516     2.9322    6 B    0 0-1
  30 C    1     2.1491     4.0612   14 H    1 1-2
  30 C    1     2.1493     4.0617   12 H    0 1-2
  30 C    1     2.4251     4.5828   26 C    1 1-2

  31 C    1     1.4021     2.6496   32 C    0 0 0
  31 C    1     1.4021     2.6497   34 C    0 0 0
  31 C    1     1.5502     2.9294    3 B    0 0 0
  31 C    1     2.1475     4.0582   15 H    1 1-1
  31 C    1     2.1479     4.0589   17 H    0 0 0
  31 C    1     2.4244     4.5814   33 C    0 0 0

  32 C    1     1.0914     2.0624   15 H    1 1-1
  32 C    1     1.3914     2.6293   35 C    0 0 0
  32 C    1     1.4021     2.6496   31 C    0 0 0
  32 C    1     2.1668     4.0947   18 H    1 1-1
  32 C    1     2.4179     4.5692   34 C    0 0 0
  32 C    1     2.4251     4.5827   36 C    0 0 0

  33 C    1     1.0913     2.0623   16 H    0 0 0
  33 C    1     1.3914     2.6294   34 C    0 0 0
  33 C    1     1.4025     2.6504   36 C    0 0 0
  33 C    1     2.1679     4.0968   17 H    0 0 0
  33 C    1     2.4178     4.5690   35 C    0 0 0
  33 C    1     2.4244     4.5814   31 C    0 0 0

  34 C    1     1.0915     2.0626   17 H    0 0 0
  34 C    1     1.3914     2.6294   33 C    0 0 0
  34 C    1     1.4021     2.6497   31 C    0 0 0
  34 C    1     2.1667     4.0945   16 H    0 0 0
  34 C    1     2.4179     4.5692   32 C    0 0 0
  34 C    1     2.4253     4.5832   36 C    0 0 0

  35 C    1     1.0914     2.0624   18 H    1 1-1
  35 C    1     1.3914     2.6293   32 C    0 0 0
  35 C    1     1.4025     2.6503   36 C    0 0 0
  35 C    1     2.1678     4.0966   15 H    1 1-1
  35 C    1     2.4178     4.5690   33 C    0 0 0
  35 C    1     2.4245     4.5817   31 C    0 0 0

  36 C    1     1.4025     2.6503   35 C    0 0 0
  36 C    1     1.4025     2.6504   33 C    0 0 0
  36 C    1     1.5516     2.9322    5 B    0 0 0
  36 C    1     2.1486     4.0602   18 H    1 1-1
  36 C    1     2.1487     4.0605   16 H    0 0 0
  36 C    1     2.4251     4.5827   32 C    0 0 0

  37 O    1     1.3791     2.6061    1 B    1 0 0
  37 O    1     1.3791     2.6061    3 B    0 0 0
  37 O    1     2.3880     4.5126   38 O    1 0 0
  37 O    1     2.3882     4.5130   39 O    1 1-2
  37 O    1     2.5383     4.7966   31 C    0 0 0
  37 O    1     2.5384     4.7968   25 C    0 0-1

  38 O    1     1.3793     2.6065    1 B    0 0 0
  38 O    1     1.3793     2.6065    2 B    0 0 0
  38 O    1     2.3880     4.5126   37 O   -1 0 0
  38 O    1     2.3882     4.5131   39 O    0 1-2
  38 O    1     2.5391     4.7981   19 C    0 0 0
  38 O    1     2.5395     4.7990   25 C   -1 0-1

  39 O    1     1.3793     2.6064    3 B   -1-1 2
  39 O    1     1.3793     2.6065    2 B    0-1 2
  39 O    1     2.3882     4.5130   37 O   -1-1 2
  39 O    1     2.3882     4.5131   38 O    0-1 2
  39 O    1     2.5390     4.7980   19 C    0-1 2
  39 O    1     2.5391     4.7982   31 C   -1-1 2

  40 O    1     1.3795     2.6068    6 B    0 0 0
  40 O    1     1.3795     2.6068    4 B    0 0 0
  40 O    1     2.3880     4.5126   42 O    0 0 0
  40 O    1     2.3884     4.5134   41 O    0 0 0
  40 O    1     2.5400     4.7998   24 C    0 0 0
  40 O    1     2.5403     4.8005   30 C    0 0 1

  41 O    1     1.3795     2.6069    5 B    0 0 0
  41 O    1     1.3795     2.6070    4 B    0 0 0
  41 O    1     2.3881     4.5128   42 O    0 0 0
  41 O    1     2.3884     4.5134   40 O    0 0 0
  41 O    1     2.5404     4.8006   24 C    0 0 0
  41 O    1     2.5405     4.8008   36 C    0 0 0

  42 O    1     1.3796     2.6071    6 B    0 0 0
  42 O    1     1.3797     2.6072    5 B    0 0 0
  42 O    1     2.3880     4.5126   40 O    0 0 0
  42 O    1     2.3881     4.5128   41 O    0 0 0
  42 O    1     2.5409     4.8016   36 C    0 0 0
  42 O    1     2.5410     4.8019   30 C    0 0 1


 SYMMETRY ALLOWED INTERNAL DEGREE(S) OF FREEDOM: 123
 TTTTTTTTTTTTTTTTTTTTTTTTTTTTTT SYMM        TELAPSE        0.36 TCPU        0.36
 TTTTTTTTTTTTTTTTTTTTTTTTTTTTTT INT_SCREEN  TELAPSE        0.40 TCPU        0.39

 DFT PARAMETERS

     ATOM       ELECTRONS   NET CHARGE   R(ANGSTROM)
   1   5  B       5.0000      0.0000     0.89000000
   7   1  H       1.0000      0.0000     1.11000000
  19   6  C       6.0000      0.0000     0.77000000
  37   8  O       8.0000      0.0000     0.74000000

 SIZE OF GRID=    1302134
 TTTTTTTTTTTTTTTTTTTTTTTTTTTTTT MAKE_GRID2  TELAPSE        9.49 TCPU        9.48
 BECKE WEIGHT FUNCTION
 RADSAFE =     2.00
 TOLERANCES - DENSITY:10**- 6; POTENTIAL:10**- 9; GRID WGT:10**-14

 RADIAL INTEGRATION  - INTERVALS (POINTS,UPPER LIMIT):            1( 75,  4.0*R)

 ANGULAR INTEGRATION - INTERVALS (ACCURACY LEVEL [N. POINTS] UPPER LIMIT):
  1(  4[  86]   0.2)  2(  8[ 194]   0.5)  3( 12[ 350]   0.9)  4( 16[ 974]   3.5)
  5( 12[ 350]9999.0)
 TTTTTTTTTTTTTTTTTTTTTTTTTTTTTT INT_CALC    TELAPSE        9.58 TCPU        9.57
 EEEEEEEEEE INT_CALC TERMINATION  DATE 19 02 2026 TIME 18:57:50.2

 *******************************************************************************
 cof-1_z38_L040_incl                                                             
 CRYSTAL - SCF - TYPE OF CALCULATION :  RESTRICTED CLOSED SHELL
 *******************************************************************************

 CAPPA:IS1  2;IS2  2;IS3  8; K PTS MONK NET  20; SYMMOPS:K SPACE   2;G SPACE   1

 TTTTTTTTTTTTTTTTTTTTTTTTTTTTTT SDIK        TELAPSE       10.21 TCPU       15.88

 AAAAAAAAAAAAAAAAAAAAAAAAAAAAAAAAAAAAAAAAAAAAAAAAAAAAAAAAAAAAAAAAAAAAAAAAAAAAAAA
         ATOMIC WAVEFUNCTION(S)


 NUCLEAR CHARGE  5.0  SYMMETRY SPECIES            S    P
 N. ELECTRONS    5.0  NUMBER OF PRIMITIVE GTOS    8    4
                      NUMBER OF CONTRACTED GTOS   4    2
                      NUMBER OF CLOSED SHELLS     2    0
                      OPEN SHELL OCCUPATION       0    1

  ZNUC  SCFIT    TOTAL HF ENERGY   KINETIC ENERGY   VIRIAL THEOREM ACCURACY
   5.0    11    -2.451164084E+01  2.462155050E+01 -1.995536038E+00  1.5E-06

 NUCLEAR CHARGE  1.0  SYMMETRY SPECIES            S
 N. ELECTRONS    1.0  NUMBER OF PRIMITIVE GTOS    4
                      NUMBER OF CONTRACTED GTOS   2
                      NUMBER OF CLOSED SHELLS     0
                      OPEN SHELL OCCUPATION       1

  ZNUC  SCFIT    TOTAL HF ENERGY   KINETIC ENERGY   VIRIAL THEOREM ACCURACY
   1.0     1    -4.977266687E-01  5.190767460E-01 -1.958869132E+00  0.0E+00

 NUCLEAR CHARGE  6.0  SYMMETRY SPECIES            S    P
 N. ELECTRONS    6.0  NUMBER OF PRIMITIVE GTOS    8    4
                      NUMBER OF CONTRACTED GTOS   4    2
                      NUMBER OF CLOSED SHELLS     2    0
                      OPEN SHELL OCCUPATION       0    2

  ZNUC  SCFIT    TOTAL HF ENERGY   KINETIC ENERGY   VIRIAL THEOREM ACCURACY
   6.0     9    -3.766704647E+01  3.775180683E+01 -1.997754800E+00  1.1E-06

 NUCLEAR CHARGE  8.0  SYMMETRY SPECIES            S    P
 N. ELECTRONS    8.0  NUMBER OF PRIMITIVE GTOS    8    4
                      NUMBER OF CONTRACTED GTOS   4    2
                      NUMBER OF CLOSED SHELLS     2    0
                      OPEN SHELL OCCUPATION       0    4

  ZNUC  SCFIT    TOTAL HF ENERGY   KINETIC ENERGY   VIRIAL THEOREM ACCURACY
   8.0    12    -7.477373220E+01  7.477365593E+01 -2.000001020E+00  3.8E-06

 AAAAAAAAAAAAAAAAAAAAAAAAAAAAAAAAAAAAAAAAAAAAAAAAAAAAAAAAAAAAAAAAAAAAAAAAAAAAAAA

 CHARGE NORMALIZATION FACTOR   1.00000000
 TOTAL ATOMIC CHARGES:
   5.0000000   5.0000000   5.0000000   5.0000000   5.0000000   5.0000000
   1.0000000   1.0000000   1.0000000   1.0000000   1.0000000   1.0000000
   1.0000000   1.0000000   1.0000000   1.0000000   1.0000000   1.0000000
   6.0000000   6.0000000   6.0000000   6.0000000   6.0000000   6.0000000
   6.0000000   6.0000000   6.0000000   6.0000000   6.0000000   6.0000000
   6.0000000   6.0000000   6.0000000   6.0000000   6.0000000   6.0000000
   8.0000000   8.0000000   8.0000000   8.0000000   8.0000000   8.0000000
 TTTTTTTTTTTTTTTTTTTTTTTTTTTTTT MOQGAD      TELAPSE       10.25 TCPU       16.95
 TTTTTTTTTTTTTTTTTTTTTTTTTTTTTT SHELLXN     TELAPSE       17.77 TCPU      252.50
 TTTTTTTTTTTTTTTTTTTTTTTTTTTTTT MONMO3      TELAPSE       17.92 TCPU      257.27
 NUMERICALLY INTEGRATED DENSITY    197.9999685687
 TTTTTTTTTTTTTTTTTTTTTTTTTTTTTT NUMDFT      TELAPSE       18.51 TCPU      276.14
 CYC   0 ETOT(AU) -1.295959127757E+03 DETOT -1.30E+03 tst  0.00E+00 PX  1.00E+00
 TTTTTTTTTTTTTTTTTTTTTTTTTTTTTT DIIS        TELAPSE       18.55 TCPU      277.25
 TTTTTTTTTTTTTTTTTTTTTTTTTTTTTT FDIK        TELAPSE       19.34 TCPU      301.90
 INSULATING STATE
 TOP OF VALENCE BANDS -    BAND     99; K   17; EIG -3.1254206E-01 AU
 TOP OF VALENCE BANDS -    BAND     99; K    1; EIG -3.1478324E-01 AU
 BOTTOM OF VIRTUAL BANDS - BAND    100; K   17; EIG -1.6068641E-01 AU
 DIRECT ENERGY BAND GAP:   4.1322 eV
 BOTTOM OF VIRTUAL BANDS - BAND    100; K    1; EIG -1.5855848E-01 AU
 TTTTTTTTTTTTTTTTTTTTTTTTTTTTTT PDIG        TELAPSE       19.65 TCPU      307.87
 CHARGE NORMALIZATION FACTOR   1.00000000
 TOTAL ATOMIC CHARGES:
   4.1505769   4.1640884   4.1643668   4.1637436   4.1634939   4.1505981
   0.7853052   0.7854454   0.7847906   0.7848571   0.7857830   0.7859471
   0.7857828   0.7859166   0.7847694   0.7849104   0.7852555   0.7854343
   6.0439740   6.2663043   6.2662372   6.2651922   6.2652257   6.0433999
   6.0475928   6.2643870   6.2645619   6.2643070   6.2646013   6.0461802
   6.0443713   6.2649627   6.2656007   6.2659247   6.2665107   6.0429633
   8.6938680   8.6940375   8.6945194   8.6945041   8.6949899   8.6947194
 TTTTTTTTTTTTTTTTTTTTTTTTTTTTTT MOQGAD      TELAPSE       19.70 TCPU      307.92
 TTTTTTTTTTTTTTTTTTTTTTTTTTTTTT SHELLXN     TELAPSE       27.41 TCPU      552.41
 TTTTTTTTTTTTTTTTTTTTTTTTTTTTTT MONMO3      TELAPSE       27.55 TCPU      557.17
 NUMERICALLY INTEGRATED DENSITY    197.9999779084
 TTTTTTTTTTTTTTTTTTTTTTTTTTTTTT NUMDFT      TELAPSE       28.15 TCPU      576.31
 CYC   1 ETOT(AU) -1.288823945263E+03 DETOT  7.14E+00 tst  0.00E+00 PX  1.00E+00
 TTTTTTTTTTTTTTTTTTTTTTTTTTTTTT DIIS        TELAPSE       28.20 TCPU      577.74
 DIIS TEST: 0.10927E+01 AT SCF   CYCLE   1 - MIX   30 %
 TTTTTTTTTTTTTTTTTTTTTTTTTTTTTT FDIK        TELAPSE       28.69 TCPU      593.52
 INSULATING STATE
 TOP OF VALENCE BANDS -    BAND     99; K   17; EIG -2.2509248E-01 AU
 TOP OF VALENCE BANDS -    BAND     99; K    1; EIG -2.2961232E-01 AU
 BOTTOM OF VIRTUAL BANDS - BAND    100; K   17; EIG -8.4806803E-02 AU
 DIRECT ENERGY BAND GAP:   3.8174 eV
 BOTTOM OF VIRTUAL BANDS - BAND    100; K    1; EIG -8.0956801E-02 AU
 TTTTTTTTTTTTTTTTTTTTTTTTTTTTTT PDIG        TELAPSE       29.01 TCPU      599.68
 CHARGE NORMALIZATION FACTOR   1.00000000
 TOTAL ATOMIC CHARGES:
   4.6735126   4.7001307   4.7001159   4.7000845   4.7002531   4.6733726
   0.9061718   0.9062662   0.9159807   0.9162947   0.9008237   0.9005319
   0.9008121   0.9005156   0.9160116   0.9163501   0.9061282   0.9061456
   5.8700449   6.1317149   6.1322362   6.1417527   6.1418757   5.8725858
   5.8922465   6.1436667   6.1451909   6.1445332   6.1439624   5.8940343
   5.8697469   6.1412692   6.1423471   6.1321163   6.1319774   5.8727814
   8.3311371   8.3313055   8.3460513   8.3310056   8.3458342   8.3310821
 TTTTTTTTTTTTTTTTTTTTTTTTTTTTTT MOQGAD      TELAPSE       29.05 TCPU      599.72
 TTTTTTTTTTTTTTTTTTTTTTTTTTTTTT SHELLXN     TELAPSE       36.73 TCPU      844.38
 TTTTTTTTTTTTTTTTTTTTTTTTTTTTTT MONMO3      TELAPSE       36.88 TCPU      849.14
 NUMERICALLY INTEGRATED DENSITY    197.9999728440
 TTTTTTTTTTTTTTTTTTTTTTTTTTTTTT NUMDFT      TELAPSE       37.48 TCPU      868.26
 CYC   2 ETOT(AU) -1.289017953248E+03 DETOT -1.94E-01 tst  3.51E-03 PX  1.59E-01
 TTTTTTTTTTTTTTTTTTTTTTTTTTTTTT DIIS        TELAPSE       37.53 TCPU      869.87
 DIIS TEST: 0.44809E+00 AT SCF   CYCLE   2 - DIIS ACTIVE - HISTORY:     2 CYCLES
 TTTTTTTTTTTTTTTTTTTTTTTTTTTTTT FDIK        TELAPSE       38.02 TCPU      885.59
 INSULATING STATE
 TOP OF VALENCE BANDS -    BAND     99; K   17; EIG -2.3713927E-01 AU
 TOP OF VALENCE BANDS -    BAND     99; K    1; EIG -2.4009611E-01 AU
 BOTTOM OF VIRTUAL BANDS - BAND    100; K   17; EIG -8.0603766E-02 AU
 DIRECT ENERGY BAND GAP:   4.2595 eV
 BOTTOM OF VIRTUAL BANDS - BAND    100; K    1; EIG -7.7022340E-02 AU
 TTTTTTTTTTTTTTTTTTTTTTTTTTTTTT PDIG        TELAPSE       38.33 TCPU      891.75
 CHARGE NORMALIZATION FACTOR   1.00000000
 TOTAL ATOMIC CHARGES:
   4.4732318   4.4986060   4.4986511   4.4980953   4.4979880   4.4731639
   0.8858115   0.8860662   0.8933457   0.8935699   0.8829610   0.8830041
   0.8831039   0.8828135   0.8932870   0.8937049   0.8858339   0.8859290
   5.8934033   6.1629925   6.1627583   6.1567191   6.1557435   5.8932058
   5.9087062   6.1633659   6.1631462   6.1631233   6.1632800   5.9081642
   5.8937360   6.1566647   6.1558435   6.1626812   6.1630533   5.8928929
   8.5156395   8.5159889   8.5135955   8.5161314   8.5134911   8.5165068
 TTTTTTTTTTTTTTTTTTTTTTTTTTTTTT MOQGAD      TELAPSE       38.37 TCPU      891.80
 TTTTTTTTTTTTTTTTTTTTTTTTTTTTTT SHELLXN     TELAPSE       46.05 TCPU     1136.51
 TTTTTTTTTTTTTTTTTTTTTTTTTTTTTT MONMO3      TELAPSE       46.20 TCPU     1141.27
 NUMERICALLY INTEGRATED DENSITY    197.9999726814
 TTTTTTTTTTTTTTTTTTTTTTTTTTTTTT NUMDFT      TELAPSE       46.80 TCPU     1160.46
 CYC   3 ETOT(AU) -1.289110456617E+03 DETOT -9.25E-02 tst  6.63E-04 PX  6.58E-02
 TTTTTTTTTTTTTTTTTTTTTTTTTTTTTT DIIS        TELAPSE       46.86 TCPU     1162.33
 DIIS TEST: 0.14628E-01 AT SCF   CYCLE   3 - DIIS ACTIVE - HISTORY:     3 CYCLES
 TTTTTTTTTTTTTTTTTTTTTTTTTTTTTT FDIK        TELAPSE       47.35 TCPU     1178.08
 INSULATING STATE
 TOP OF VALENCE BANDS -    BAND     99; K   17; EIG -2.4693300E-01 AU
 TOP OF VALENCE BANDS -    BAND     99; K    1; EIG -2.5172772E-01 AU
 BOTTOM OF VIRTUAL BANDS - BAND    100; K   17; EIG -8.9458080E-02 AU
 DIRECT ENERGY BAND GAP:   4.2851 eV
 BOTTOM OF VIRTUAL BANDS - BAND    100; K    1; EIG -8.4973754E-02 AU
 TTTTTTTTTTTTTTTTTTTTTTTTTTTTTT PDIG        TELAPSE       47.66 TCPU     1184.24
 CHARGE NORMALIZATION FACTOR   1.00000000
 TOTAL ATOMIC CHARGES:
   4.4796897   4.5026392   4.5026432   4.5023613   4.5023270   4.4798029
   0.8691473   0.8693248   0.8755484   0.8757471   0.8639299   0.8637338
   0.8639041   0.8637127   0.8756122   0.8757883   0.8691467   0.8692246
   5.9385914   6.1651029   6.1653743   6.1700311   6.1705285   5.9409580
   5.9580679   6.1731382   6.1748404   6.1740223   6.1737144   5.9590819
   5.9386062   6.1693975   6.1711617   6.1652682   6.1652293   5.9409060
   8.4767636   8.4768193   8.4871665   8.4767714   8.4873741   8.4768017
 TTTTTTTTTTTTTTTTTTTTTTTTTTTTTT MOQGAD      TELAPSE       47.71 TCPU     1184.29
 TTTTTTTTTTTTTTTTTTTTTTTTTTTTTT SHELLXN     TELAPSE       55.38 TCPU     1428.91
 TTTTTTTTTTTTTTTTTTTTTTTTTTTTTT MONMO3      TELAPSE       55.53 TCPU     1433.66
 NUMERICALLY INTEGRATED DENSITY    197.9999733101
 TTTTTTTTTTTTTTTTTTTTTTTTTTTTTT NUMDFT      TELAPSE       56.13 TCPU     1452.85
 CYC   4 ETOT(AU) -1.289113601166E+03 DETOT -3.14E-03 tst  2.99E-05 PX  1.41E-02
 TTTTTTTTTTTTTTTTTTTTTTTTTTTTTT DIIS        TELAPSE       56.19 TCPU     1454.73
 DIIS TEST: 0.41559E-02 AT SCF   CYCLE   4 - DIIS ACTIVE - HISTORY:     4 CYCLES
 TTTTTTTTTTTTTTTTTTTTTTTTTTTTTT FDIK        TELAPSE       56.68 TCPU     1470.49
 INSULATING STATE
 TOP OF VALENCE BANDS -    BAND     99; K   17; EIG -2.4531960E-01 AU
 TOP OF VALENCE BANDS -    BAND     99; K    1; EIG -2.4952958E-01 AU
 BOTTOM OF VIRTUAL BANDS - BAND    100; K   17; EIG -8.8822616E-02 AU
 DIRECT ENERGY BAND GAP:   4.2585 eV
 BOTTOM OF VIRTUAL BANDS - BAND    100; K    1; EIG -8.4873143E-02 AU
 TTTTTTTTTTTTTTTTTTTTTTTTTTTTTT PDIG        TELAPSE       56.99 TCPU     1476.65
 CHARGE NORMALIZATION FACTOR   1.00000000
 TOTAL ATOMIC CHARGES:
   4.4799268   4.5053128   4.5053435   4.5049822   4.5049394   4.4798670
   0.8716279   0.8718365   0.8790818   0.8793855   0.8674979   0.8674994
   0.8676001   0.8673476   0.8790593   0.8795065   0.8716388   0.8717162
   5.9232522   6.1672730   6.1671438   6.1680437   6.1670035   5.9230535
   5.9406129   6.1727706   6.1727686   6.1726686   6.1726887   5.9400952
   5.9233564   6.1678580   6.1671982   6.1670486   6.1673846   5.9229186
   8.4890499   8.4893643   8.4927326   8.4893552   8.4925127   8.4896774
 TTTTTTTTTTTTTTTTTTTTTTTTTTTTTT MOQGAD      TELAPSE       57.04 TCPU     1476.70
 TTTTTTTTTTTTTTTTTTTTTTTTTTTTTT SHELLXN     TELAPSE       64.71 TCPU     1721.26
 TTTTTTTTTTTTTTTTTTTTTTTTTTTTTT MONMO3      TELAPSE       64.86 TCPU     1726.02
 NUMERICALLY INTEGRATED DENSITY    197.9999732576
 TTTTTTTTTTTTTTTTTTTTTTTTTTTTTT NUMDFT      TELAPSE       65.46 TCPU     1745.16
 CYC   5 ETOT(AU) -1.289114548690E+03 DETOT -9.48E-04 tst  7.08E-06 PX  6.44E-03
 TTTTTTTTTTTTTTTTTTTTTTTTTTTTTT DIIS        TELAPSE       65.53 TCPU     1747.38
 DIIS TEST: 0.59410E-04 AT SCF   CYCLE   5 - DIIS ACTIVE - HISTORY:     5 CYCLES
 TTTTTTTTTTTTTTTTTTTTTTTTTTTTTT FDIK        TELAPSE       66.02 TCPU     1763.20
 INSULATING STATE
 TOP OF VALENCE BANDS -    BAND     99; K   17; EIG -2.4509430E-01 AU
 TOP OF VALENCE BANDS -    BAND     99; K    1; EIG -2.4930300E-01 AU
 BOTTOM OF VIRTUAL BANDS - BAND    100; K   17; EIG -8.8334848E-02 AU
 DIRECT ENERGY BAND GAP:   4.2656 eV
 BOTTOM OF VIRTUAL BANDS - BAND    100; K    1; EIG -8.4380534E-02 AU
 TTTTTTTTTTTTTTTTTTTTTTTTTTTTTT PDIG        TELAPSE       66.34 TCPU     1769.36
 CHARGE NORMALIZATION FACTOR   1.00000000
 TOTAL ATOMIC CHARGES:
   4.4806718   4.5047589   4.5047834   4.5044140   4.5043750   4.4807102
   0.8726488   0.8728366   0.8800235   0.8801761   0.8686230   0.8683964
   0.8686057   0.8683673   0.8800639   0.8802315   0.8726377   0.8727378
   5.9215072   6.1661760   6.1664641   6.1665749   6.1674360   5.9243567
   5.9397144   6.1710200   6.1727873   6.1719039   6.1717100   5.9410682
   5.9217308   6.1660390   6.1679867   6.1663564   6.1662938   5.9241120
   8.4880695   8.4881105   8.4944056   8.4881722   8.4947471   8.4881965
 TTTTTTTTTTTTTTTTTTTTTTTTTTTTTT MOQGAD      TELAPSE       66.39 TCPU     1769.41
 TTTTTTTTTTTTTTTTTTTTTTTTTTTTTT SHELLXN     TELAPSE       74.06 TCPU     2013.98
 TTTTTTTTTTTTTTTTTTTTTTTTTTTTTT MONMO3      TELAPSE       74.20 TCPU     2018.73
 NUMERICALLY INTEGRATED DENSITY    197.9999732245
 TTTTTTTTTTTTTTTTTTTTTTTTTTTTTT NUMDFT      TELAPSE       74.80 TCPU     2037.89
 CYC   6 ETOT(AU) -1.289114562875E+03 DETOT -1.42E-05 tst  9.50E-08 PX  8.61E-04
 TTTTTTTTTTTTTTTTTTTTTTTTTTTTTT DIIS        TELAPSE       74.87 TCPU     2040.10
 DIIS TEST: 0.17747E-04 AT SCF   CYCLE   6 - DIIS ACTIVE - HISTORY:     6 CYCLES
 TTTTTTTTTTTTTTTTTTTTTTTTTTTTTT FDIK        TELAPSE       75.37 TCPU     2055.85
 INSULATING STATE
 TOP OF VALENCE BANDS -    BAND     99; K   17; EIG -2.4510464E-01 AU
 TOP OF VALENCE BANDS -    BAND     99; K    1; EIG -2.4930525E-01 AU
 BOTTOM OF VIRTUAL BANDS - BAND    100; K   17; EIG -8.8384115E-02 AU
 DIRECT ENERGY BAND GAP:   4.2646 eV
 BOTTOM OF VIRTUAL BANDS - BAND    100; K    1; EIG -8.4412825E-02 AU
 TTTTTTTTTTTTTTTTTTTTTTTTTTTTTT PDIG        TELAPSE       75.68 TCPU     2062.01
 CHARGE NORMALIZATION FACTOR   1.00000000
 TOTAL ATOMIC CHARGES:
   4.4803442   4.5050717   4.5050992   4.5047366   4.5046888   4.4803301
   0.8725957   0.8728082   0.8799031   0.8801945   0.8684334   0.8684029
   0.8685171   0.8682723   0.8798989   0.8802949   0.8726071   0.8726865
   5.9229846   6.1664470   6.1663704   6.1673481   6.1664386   5.9230769
   5.9405249   6.1718625   6.1721052   6.1719227   6.1718553   5.9401766
   5.9230452   6.1670583   6.1667407   6.1662736   6.1665594   5.9229914
   8.4884293   8.4887073   8.4933409   8.4886975   8.4931816   8.4889770
 TTTTTTTTTTTTTTTTTTTTTTTTTTTTTT MOQGAD      TELAPSE       75.73 TCPU     2062.06
 TTTTTTTTTTTTTTTTTTTTTTTTTTTTTT SHELLXN     TELAPSE       83.40 TCPU     2306.61
 TTTTTTTTTTTTTTTTTTTTTTTTTTTTTT MONMO3      TELAPSE       83.55 TCPU     2311.37
 NUMERICALLY INTEGRATED DENSITY    197.9999732216
 TTTTTTTTTTTTTTTTTTTTTTTTTTTTTT NUMDFT      TELAPSE       84.14 TCPU     2330.50
 CYC   7 ETOT(AU) -1.289114566458E+03 DETOT -3.58E-06 tst  7.94E-08 PX  5.89E-04
 TTTTTTTTTTTTTTTTTTTTTTTTTTTTTT DIIS        TELAPSE       84.22 TCPU     2333.09
 DIIS TEST: 0.18147E-05 AT SCF   CYCLE   7 - DIIS ACTIVE - HISTORY:     7 CYCLES
 TTTTTTTTTTTTTTTTTTTTTTTTTTTTTT FDIK        TELAPSE       84.72 TCPU     2348.84
 INSULATING STATE
 TOP OF VALENCE BANDS -    BAND     99; K   17; EIG -2.4510433E-01 AU
 TOP OF VALENCE BANDS -    BAND     99; K    1; EIG -2.4931305E-01 AU
 BOTTOM OF VIRTUAL BANDS - BAND    100; K   17; EIG -8.8407055E-02 AU
 DIRECT ENERGY BAND GAP:   4.2640 eV
 BOTTOM OF VIRTUAL BANDS - BAND    100; K    1; EIG -8.4434215E-02 AU
 TTTTTTTTTTTTTTTTTTTTTTTTTTTTTT PDIG        TELAPSE       85.03 TCPU     2355.01
 CHARGE NORMALIZATION FACTOR   1.00000000
 TOTAL ATOMIC CHARGES:
   4.4803500   4.5051387   4.5051655   4.5048012   4.5047577   4.4803423
   0.8725682   0.8727714   0.8799137   0.8801403   0.8684196   0.8683193
   0.8684719   0.8682197   0.8799156   0.8802352   0.8725705   0.8726592
   5.9223924   6.1663559   6.1664050   6.1670000   6.1668498   5.9235971
   5.9401615   6.1716264   6.1724153   6.1719525   6.1719009   5.9404984
   5.9225638   6.1666752   6.1671865   6.1663087   6.1664663   5.9234005
   8.4885125   8.4887069   8.4932960   8.4887237   8.4933290   8.4889154
 TTTTTTTTTTTTTTTTTTTTTTTTTTTTTT MOQGAD      TELAPSE       85.08 TCPU     2355.05
 TTTTTTTTTTTTTTTTTTTTTTTTTTTTTT SHELLXN     TELAPSE       92.75 TCPU     2599.47
 TTTTTTTTTTTTTTTTTTTTTTTTTTTTTT MONMO3      TELAPSE       95.70 TCPU     2610.20
 NUMERICALLY INTEGRATED DENSITY    197.9999732212
 TTTTTTTTTTTTTTTTTTTTTTTTTTTTTT NUMDFT      TELAPSE       96.31 TCPU     2629.38
 CYC   8 ETOT(AU) -1.289114566642E+03 DETOT -1.83E-07 tst  1.32E-08 PX  1.51E-04
 TTTTTTTTTTTTTTTTTTTTTTTTTTTTTT DIIS        TELAPSE       96.39 TCPU     2631.93
 DIIS TEST: 0.25206E-06 AT SCF   CYCLE   8 - DIIS ACTIVE - HISTORY:     8 CYCLES
 TTTTTTTTTTTTTTTTTTTTTTTTTTTTTT FDIK        TELAPSE       96.96 TCPU     2650.04
 INSULATING STATE
 TOP OF VALENCE BANDS -    BAND     99; K   17; EIG -2.4510580E-01 AU
 TOP OF VALENCE BANDS -    BAND     99; K    1; EIG -2.4931530E-01 AU
 BOTTOM OF VIRTUAL BANDS - BAND    100; K   17; EIG -8.8403410E-02 AU
 DIRECT ENERGY BAND GAP:   4.2641 eV
 BOTTOM OF VIRTUAL BANDS - BAND    100; K    1; EIG -8.4433235E-02 AU
 TTTTTTTTTTTTTTTTTTTTTTTTTTTTTT PDIG        TELAPSE       97.27 TCPU     2656.21
 CHARGE NORMALIZATION FACTOR   1.00000000
 TOTAL ATOMIC CHARGES:
   4.4804000   4.5051021   4.5051287   4.5047649   4.5047213   4.4803920
   0.8725605   0.8727651   0.8799002   0.8801513   0.8684164   0.8683320
   0.8684731   0.8682282   0.8799061   0.8802420   0.8725649   0.8726507
   5.9225476   6.1663724   6.1663981   6.1671350   6.1667390   5.9234215
   5.9402773   6.1716779   6.1723395   6.1719590   6.1718693   5.9404136
   5.9226676   6.1667904   6.1670960   6.1662988   6.1664856   5.9232764
   8.4884268   8.4886390   8.4934878   8.4886521   8.4934683   8.4888615
 TTTTTTTTTTTTTTTTTTTTTTTTTTTTTT MOQGAD      TELAPSE       97.32 TCPU     2656.25
 TTTTTTTTTTTTTTTTTTTTTTTTTTTTTT SHELLXN     TELAPSE      104.98 TCPU     2900.77
 +++ ENERGIES IN A.U. +++
 ::: EXT EL-POLE                                  -1.3610996023402E+03
 ::: EXT EL-SPHEROPOLE                             1.5078043438671E+01
 ::: BIELET ZONE E-E                               2.1298923285694E+03
 ::: TOTAL E-E                                     7.8387076966793E+02
 ::: TOTAL E-N + N-E                              -3.3957948198241E+03
 ::: TOTAL N-N                                     1.7660284211275E+02
 ::: KINETIC ENERGY                                1.2799210752170E+03
 ::: PSEUDO TOTAL   ENERGY                        -1.1554001328263E+03
 ::: VIRIAL COEFFICIENT                            1.0511312191507E+00
 TTTTTTTTTTTTTTTTTTTTTTTTTTTTTT MONMO3      TELAPSE      105.13 TCPU     2905.52
 NUMERICALLY INTEGRATED DENSITY    197.9999732212
 EXCHANGE ENERGY: -0.126023239715E+03  CORRELATION ENERGY: -0.769119416046E+01
 TTTTTTTTTTTTTTTTTTTTTTTTTTTTTT NUMDFT      TELAPSE      105.73 TCPU     2924.65
 CYC   9 ETOT(AU) -1.289114566702E+03 DETOT -6.01E-08 tst  1.16E-09 PX  1.51E-04

 == SCF ENDED - CONVERGENCE ON ENERGY      E(AU) -1.2891145667017E+03 CYCLES   9


 ENERGY EXPRESSION=HARTREE+FOCK EXCH*0.00000+(HSESOL     EXCH)*1.00000+PBESOL     CORR


 TOTAL ENERGY(DFT)(AU)(  9) -1.2891145667017E+03 DE-6.0E-08 tester 1.2E-09
 TTTTTTTTTTTTTTTTTTTTTTTTTTTTTT EDFT        TELAPSE      105.73 TCPU     2924.66
 
 INFORMATION **** DFTD3 ENERGY **** CALCULATE DFTD3 ENERGY

           DFT-D V3(BJ)
 DF                                         hsesol3c  
 parameters
 s6       :    1.0000
 s8       :    0.0000
 a1       :    0.5196
 a2       :    4.9385
 k1 k3    :   16.0000   -4.0000
 Cutoff   :   50.2022
 CN-Cutoff:   21.1671
 ABC-Cutoff:   21.1671
 
 Edisp /kcal,au:   -25.7577 -0.04104743

 E6    /kcal :   -27.3071
 E8    /kcal :     0.0000
 E6(ABC) "   :   1.549415
 
 INFORMATION **** DFTD3 ENERGY **** NORMAL TERMINATION OF DFTD3 MODULE

 GCP ENERGY CALCULATION
  level        hsesol3c            basis:hsesol3c
  Nbf            474
  Atoms           42

  Parameters: 
  sigma     1.0000
  eta       1.4281
  alpha     0.2936
  beta      1.9467

  dmp_scal      4.0000
  dmp_exp       6.0000
 cutoffs: 
   distance [bohr] 60.0
   noise    [a.u.] 2.2E-16
 SR-damping   T
 ** gCP correction **
  Egcp:        0.0830280391 / (a.u.) ||      52.1009 / (kcal/mol)
 INFORMATION **** GCP **** NORMAL TERMINATION OF GCP MODULE

 *******************************************************************************

 DFT-D3-GCP DISPERSION AND COUNTERPOISE CORRECTION

 D3 DISPERSION ENERGY (AU)      -4.1047427018820E-02
 GCP ENERGY (AU)                 8.3028039056611E-02
 TOTAL ENERGY + DISP + GCP (AU) -1.2890725860897E+03

 *******************************************************************************

 EIGENVECTORS IN FORTRAN UNIT 10
 TTTTTTTTTTTTTTTTTTTTTTTTTTTTTT END         TELAPSE      107.04 TCPU     2931.94
 EEEEEEEEEE TERMINATION  DATE 19 02 2026 TIME 18:59:27.6
