 Default number of threads is:           32

         
 *******************************************************************************
 *                                                                             *
 *                               CRYSTAL23                                     *
 *                      public : 1.0.1 - October 2022                          *
 *                       HTTP://WWW.CRYSTAL.UNITO.IT                           *
 *                                                                             *
 *                              MAIN AUTHORS                                   *
 *                                                                             *
 *  R. DOVESI(1,11), V.R. SAUNDERS(2), C. ROETTI(1,11), R. ORLANDO(1,11),      *
 *  C.M. ZICOVICH-WILSON(1,3), F. PASCALE(4), B. CIVALLERI(1,11),              *
 *  K. DOLL(5), N.M. HARRISON(6), I.J. BUSH(7), Ph. D'ARCO(8),                 *
 *  M. LLUNELL(9), M. CAUSA'(10), Y. NOEL(8), L. MASCHIO(1,11), A. ERBA(1,11)  *
 *  M. RE'RAT(14), S. CASASSA(1,11), B.G. SEARLE(2), J.K. DESMARAIS(1)         *
 *                                                                             *
 *        CONTRIBUTIONS TO THE CODE HAVE ALSO BEEN GIVEN BY                    *
 *                                                                             *
 *  M. FERRABONE(1,11), M. DE LA PIERRE(1,11), M. FERRERO(1,11),               *
 *  J. BAIMA(1,11), E. ALBANESE(1,11), M.F. PEINTINGER(12), R. BAST(13),       *
 *  B. KIRTMAN(15), V. LACIVITA(1,11), R. DEMICHELIS(1,16)                     *
 *  G. BRANDEBURG(17), S. SALUSTRO(1,11), G. SANSONE(1,11)                     *
 *  M.T. RUGGIERO(18), L.E. DAGA(1), L. DONA'(1), A. COSSARD(1)                *
 *                                                                             *
 * (1) THEORETICAL CHEMISTRY GROUP - UNIVERSITA' DI TORINO - TORINO (ITALY)    *
 * (2) SCIENTIFIC COMPUTING DEPARTMENT - STFC DARESBURY (UK)                   *
 * (3) UNIVERSIDAD AUTONOMA DEL ESTADO DE MORELOS - CUERNAVACA (MEXICO)        *
 * (4) UNIVERSITE' DE LORRAINE - NANCY (FRANCE)                                *
 * (5) UNIVERSITAET STUTTGART- STUTTGART (GERMANY)                             *
 * (6) IMPERIAL COLLEGE - LONDON (UK)                                          *
 * (7) SCIENTIFIC COMPUTING DEPARTMENT - STFC RAL (UK)                         *
 * (8) UPMC - SORBONNE UNIVERSITES - PARIS (FRANCE)                            *
 * (9) UNIVERSIDAD DE BARCELONA - BARCELONA (SPAIN)                            *
 *(10) UNIVERSITA' DI NAPOLI "FEDERICO II" - NAPOLI (ITALY)                    *
 *(11) NIS - NANOSTRUCTURED INTERFACES AND SURFACES - TORINO (ITALY)           *
 *(12) MPI FUER CHEMISCHE ENERGIEKONVERSION - MUELHEIM AN DER RUHR (GERMANY)   *
 *(13) UNIVERSITY OF TROMSO - TROMSO (NORWAY)                                  *
 *(14) UNIVERSITE' DE PAU ET DES PAYS DE L'ADOUR - PAU (FRANCE)                *
 *(15) UNIVERSITY OF CALIFORNIA SANTA BARBARA - SANTA BARBARA (USA)            *
 *(16) CURTIN UNIVERSITY - PERTH (AUSTRALIA)                                   *
 *(17) UNIVERSITY COLLEGE LONDON - LONDON (UK)                                 *
 *(18) UNIVERSITY OF VERMONT - BURLINGTON (USA)                                *
 *                                                                             *
 *******************************************************************************
 EEEEEEEEEE STARTING  DATE 19 02 2026 TIME 18:48:32.0
 cof-1_z37_L030_incl                                                             

 CRYSTAL CALCULATION
 (INPUT ACCORDING TO THE INTERNATIONAL TABLES FOR X-RAY CRYSTALLOGRAPHY)
 CRYSTAL FAMILY                       :  TRICLINIC   
 CRYSTAL CLASS  (GROTH - 1921)        :  TRICLINIC PEDIAL                     

 SPACE GROUP (NONCENTROSYMMETRIC)     :  P 1             

 LATTICE PARAMETERS  (ANGSTROMS AND DEGREES) - CONVENTIONAL CELL
        A           B           C        ALPHA        BETA       GAMMA
    15.02361    15.02392     4.76340    56.94511    89.99996   119.99596


 NUMBER OF IRREDUCIBLE ATOMS IN THE CONVENTIONAL CELL:   42

 INPUT COORDINATES

 ATOM AT. N.              COORDINATES
   1   5     5.558970900000E-01  1.117395700000E-01  5.012886000000E-01
   2   5     7.149527500000E-01  2.707992200000E-01  5.012886100000E-01
   3   5     5.562057000000E-01  2.714078500000E-01  4.985742400000E-01
   4   5     1.694718000000E-01  4.980545600000E-01  5.012886100000E-01
   5   5     3.285797700000E-01  4.980338000000E-01  5.012886000000E-01
   6   5     3.288729300000E-01  6.577988200000E-01  4.985742500000E-01
   7   1     8.459088400000E-01  1.946488700000E-01  4.956611900000E-01
   8   1     3.959894000000E-02  5.769706700000E-01  4.948006600000E-01
   9   1     8.459511000000E-01  4.800201900000E-01  4.946682200000E-01
  10   1     3.971205000000E-02  2.916250900000E-01  4.947012500000E-01
  11   1     6.328979000000E-01 -1.927670000000E-02  5.043340400000E-01
  12   1     2.506960200000E-01  7.869580700000E-01  5.051946200000E-01
  13   1     3.476210100000E-01 -1.945981000000E-02  5.053271500000E-01
  14   1     5.360670700000E-01  7.868451900000E-01  5.052938900000E-01
  15   1     6.339379500000E-01  4.797730200000E-01  4.956612400000E-01
  16   1     2.519262500000E-01  2.915265700000E-01  4.948006100000E-01
  17   1     3.488202600000E-01  1.947710300000E-01  4.946681200000E-01
  18   1     5.372667400000E-01  5.768980500000E-01  4.947013600000E-01
  19   6     8.344311900000E-01  3.310137600000E-01  4.984749300000E-01
  20   6     8.893390600000E-01  2.784739200000E-01  4.957936200000E-01
  21   6    -3.735230000000E-03  4.929269900000E-01  4.955619900000E-01
  22   6     8.892486300000E-01  4.392736100000E-01  4.962571200000E-01
  23   6    -3.571080000000E-03  3.322435400000E-01  4.944695400000E-01
  24   6     5.082860000000E-02  4.396094200000E-01  4.962901900000E-01
  25   6     4.962292500000E-01 -7.463620000000E-03  5.015203400000E-01
  26   6     5.490586200000E-01 -6.269434000000E-02  5.042016000000E-01
  27   6     3.346527300000E-01  8.303594500000E-01  5.044333100000E-01
  28   6     3.882217600000E-01 -6.254058000000E-02  5.037382000000E-01
  29   6     4.954449900000E-01  8.300680000000E-01  5.055256500000E-01
  30   6     3.878659100000E-01  7.758562600000E-01  5.037050600000E-01
  31   6     4.965857500000E-01  3.309446300000E-01  4.984749200000E-01
  32   6     5.500601700000E-01  4.393140500000E-01  4.957936800000E-01
  33   6     3.357000300000E-01  3.319137300000E-01  4.955619400000E-01
  34   6     3.890837900000E-01  2.782714300000E-01  4.962570500000E-01
  35   6     4.967455300000E-01  4.930915500000E-01  4.944696100000E-01
  36   6     3.887526900000E-01  4.395320200000E-01  4.962901900000E-01
  37   8     5.031821700000E-01  1.652499000000E-01  4.993024800000E-01
  38   8     6.614670800000E-01  1.639372500000E-01  5.050291200000E-01
  39   8     6.624606800000E-01  3.248743500000E-01  4.963895200000E-01
  40   8     2.227699900000E-01  6.045303800000E-01  4.993025100000E-01
  41   8     2.221293500000E-01  4.442545300000E-01  5.050291200000E-01
  42   8     3.820451100000E-01  6.051863200000E-01  4.963895000000E-01

 *******************************************************************************

 << INFORMATION >>: FROM NOW ON, ALL COORDINATES REFER TO THE PRIMITIVE CELL

 *******************************************************************************

 LATTICE PARAMETERS  (ANGSTROMS AND DEGREES) - PRIMITIVE CELL
       A          B          C        ALPHA      BETA     GAMMA        VOLUME
   15.02361   15.02392    4.76340    56.94511  89.99996 119.99596    723.285186

 COORDINATES OF THE EQUIVALENT ATOMS (FRACTIONAL UNITS)

 N. ATOM EQUIV AT. N.          X                  Y                  Z

   1   1   1    5 B    -4.44102910000E-01  1.11739570000E-01 -4.98711400000E-01

   2   2   1    5 B    -2.85047250000E-01  2.70799220000E-01 -4.98711390000E-01

   3   3   1    5 B    -4.43794300000E-01  2.71407850000E-01  4.98574240000E-01

   4   4   1    5 B     1.69471800000E-01  4.98054560000E-01 -4.98711390000E-01

   5   5   1    5 B     3.28579770000E-01  4.98033800000E-01 -4.98711400000E-01

   6   6   1    5 B     3.28872930000E-01 -3.42201180000E-01  4.98574250000E-01

   7   7   1    1 H    -1.54091160000E-01  1.94648870000E-01  4.95661190000E-01

   8   8   1    1 H     3.95989400000E-02 -4.23029330000E-01  4.94800660000E-01

   9   9   1    1 H    -1.54048900000E-01  4.80020190000E-01  4.94668220000E-01

  10  10   1    1 H     3.97120500000E-02  2.91625090000E-01  4.94701250000E-01

  11  11   1    1 H    -3.67102100000E-01 -1.92767000000E-02 -4.95665960000E-01

  12  12   1    1 H     2.50696020000E-01 -2.13041930000E-01 -4.94805380000E-01

  13  13   1    1 H     3.47621010000E-01 -1.94598100000E-02 -4.94672850000E-01

  14  14   1    1 H    -4.63932930000E-01 -2.13154810000E-01 -4.94706110000E-01

  15  15   1    1 H    -3.66062050000E-01  4.79773020000E-01  4.95661240000E-01

  16  16   1    1 H     2.51926250000E-01  2.91526570000E-01  4.94800610000E-01

  17  17   1    1 H     3.48820260000E-01  1.94771030000E-01  4.94668120000E-01

  18  18   1    1 H    -4.62733260000E-01 -4.23101950000E-01  4.94701360000E-01

  19  19   1    6 C    -1.65568810000E-01  3.31013760000E-01  4.98474930000E-01

  20  20   1    6 C    -1.10660940000E-01  2.78473920000E-01  4.95793620000E-01

  21  21   1    6 C    -3.73523000000E-03  4.92926990000E-01  4.95561990000E-01

  22  22   1    6 C    -1.10751370000E-01  4.39273610000E-01  4.96257120000E-01

  23  23   1    6 C    -3.57108000000E-03  3.32243540000E-01  4.94469540000E-01

  24  24   1    6 C     5.08286000000E-02  4.39609420000E-01  4.96290190000E-01

  25  25   1    6 C     4.96229250000E-01 -7.46362000000E-03 -4.98479660000E-01

  26  26   1    6 C    -4.50941380000E-01 -6.26943400000E-02 -4.95798400000E-01

  27  27   1    6 C     3.34652730000E-01 -1.69640550000E-01 -4.95566690000E-01

  28  28   1    6 C     3.88221760000E-01 -6.25405800000E-02 -4.96261800000E-01

  29  29   1    6 C     4.95444990000E-01 -1.69932000000E-01 -4.94474350000E-01

  30  30   1    6 C     3.87865910000E-01 -2.24143740000E-01 -4.96294940000E-01

  31  31   1    6 C     4.96585750000E-01  3.30944630000E-01  4.98474920000E-01

  32  32   1    6 C    -4.49939830000E-01  4.39314050000E-01  4.95793680000E-01

  33  33   1    6 C     3.35700030000E-01  3.31913730000E-01  4.95561940000E-01

  34  34   1    6 C     3.89083790000E-01  2.78271430000E-01  4.96257050000E-01

  35  35   1    6 C     4.96745530000E-01  4.93091550000E-01  4.94469610000E-01

  36  36   1    6 C     3.88752690000E-01  4.39532020000E-01  4.96290190000E-01

  37  37   1    8 O    -4.96817830000E-01  1.65249900000E-01  4.99302480000E-01

  38  38   1    8 O    -3.38532920000E-01  1.63937250000E-01 -4.94970880000E-01

  39  39   1    8 O    -3.37539320000E-01  3.24874350000E-01  4.96389520000E-01

  40  40   1    8 O     2.22769990000E-01 -3.95469620000E-01  4.99302510000E-01

  41  41   1    8 O     2.22129350000E-01  4.44254530000E-01 -4.94970880000E-01

  42  42   1    8 O     3.82045110000E-01 -3.94813680000E-01  4.96389500000E-01

 NUMBER OF SYMMETRY OPERATORS         :    1
 *******************************************************************************
 * GEOMETRY EDITING - INPUT COORDINATES ARE GIVEN IN ANGSTROM         
 *******************************************************************************

 GCALCO - MAX INDICES DIRECT LATTICE VECTOR     9    11    31
 NO.OF VECTORS CREATED 6999 STARS 3500 RMAX   201.13133 BOHR

 GEOMETRY FOR WAVE FUNCTION - DIMENSIONALITY OF THE SYSTEM    3
 (NON PERIODIC DIRECTION: LATTICE PARAMETER FORMALLY SET TO 500)
 *******************************************************************************
 LATTICE PARAMETERS (ANGSTROMS AND DEGREES) - BOHR = 0.5291772083 ANGSTROM
 PRIMITIVE CELL - CENTRING CODE 1/0 VOLUME=   723.285186 - DENSITY  0.896 g/cm^3
         A              B              C           ALPHA      BETA       GAMMA 
    15.02361100    15.02391600     4.76340200    56.945106  89.999956 119.995964
 *******************************************************************************
 ATOMS IN THE ASYMMETRIC UNIT   42 - ATOMS IN THE UNIT CELL:   42
     ATOM                 X/A                 Y/B                 Z/C    
 *******************************************************************************
      1 T   5 B    -4.441029100000E-01  1.117395700000E-01 -4.987114000000E-01
      2 T   5 B    -2.850472500000E-01  2.707992200000E-01 -4.987113900000E-01
      3 T   5 B    -4.437943000000E-01  2.714078500000E-01  4.985742400000E-01
      4 T   5 B     1.694718000000E-01  4.980545600000E-01 -4.987113900000E-01
      5 T   5 B     3.285797700000E-01  4.980338000000E-01 -4.987114000000E-01
      6 T   5 B     3.288729300000E-01 -3.422011800000E-01  4.985742500000E-01
      7 T   1 H    -1.540911600000E-01  1.946488700000E-01  4.956611900000E-01
      8 T   1 H     3.959894000000E-02 -4.230293300000E-01  4.948006600000E-01
      9 T   1 H    -1.540489000000E-01  4.800201900000E-01  4.946682200000E-01
     10 T   1 H     3.971205000000E-02  2.916250900000E-01  4.947012500000E-01
     11 T   1 H    -3.671021000000E-01 -1.927670000000E-02 -4.956659600000E-01
     12 T   1 H     2.506960200000E-01 -2.130419300000E-01 -4.948053800000E-01
     13 T   1 H     3.476210100000E-01 -1.945981000000E-02 -4.946728500000E-01
     14 T   1 H    -4.639329300000E-01 -2.131548100000E-01 -4.947061100000E-01
     15 T   1 H    -3.660620500000E-01  4.797730200000E-01  4.956612400000E-01
     16 T   1 H     2.519262500000E-01  2.915265700000E-01  4.948006100000E-01
     17 T   1 H     3.488202600000E-01  1.947710300000E-01  4.946681200000E-01
     18 T   1 H    -4.627332600000E-01 -4.231019500000E-01  4.947013600000E-01
     19 T   6 C    -1.655688100000E-01  3.310137600000E-01  4.984749300000E-01
     20 T   6 C    -1.106609400000E-01  2.784739200000E-01  4.957936200000E-01
     21 T   6 C    -3.735230000000E-03  4.929269900000E-01  4.955619900000E-01
     22 T   6 C    -1.107513700000E-01  4.392736100000E-01  4.962571200000E-01
     23 T   6 C    -3.571080000000E-03  3.322435400000E-01  4.944695400000E-01
     24 T   6 C     5.082860000000E-02  4.396094200000E-01  4.962901900000E-01
     25 T   6 C     4.962292500000E-01 -7.463620000000E-03 -4.984796600000E-01
     26 T   6 C    -4.509413800000E-01 -6.269434000000E-02 -4.957984000000E-01
     27 T   6 C     3.346527300000E-01 -1.696405500000E-01 -4.955666900000E-01
     28 T   6 C     3.882217600000E-01 -6.254058000000E-02 -4.962618000000E-01
     29 T   6 C     4.954449900000E-01 -1.699320000000E-01 -4.944743500000E-01
     30 T   6 C     3.878659100000E-01 -2.241437400000E-01 -4.962949400000E-01
     31 T   6 C     4.965857500000E-01  3.309446300000E-01  4.984749200000E-01
     32 T   6 C    -4.499398300000E-01  4.393140500000E-01  4.957936800000E-01
     33 T   6 C     3.357000300000E-01  3.319137300000E-01  4.955619400000E-01
     34 T   6 C     3.890837900000E-01  2.782714300000E-01  4.962570500000E-01
     35 T   6 C     4.967455300000E-01  4.930915500000E-01  4.944696100000E-01
     36 T   6 C     3.887526900000E-01  4.395320200000E-01  4.962901900000E-01
     37 T   8 O    -4.968178300000E-01  1.652499000000E-01  4.993024800000E-01
     38 T   8 O    -3.385329200000E-01  1.639372500000E-01 -4.949708800000E-01
     39 T   8 O    -3.375393200000E-01  3.248743500000E-01  4.963895200000E-01
     40 T   8 O     2.227699900000E-01 -3.954696200000E-01  4.993025100000E-01
     41 T   8 O     2.221293500000E-01  4.442545300000E-01 -4.949708800000E-01
     42 T   8 O     3.820451100000E-01 -3.948136800000E-01  4.963895000000E-01

 T = ATOM BELONGING TO THE ASYMMETRIC UNIT

 ****    1 SYMMOPS - TRANSLATORS IN FRACTIONAL UNITS
 **** MATRICES AND TRANSLATORS IN THE CRYSTALLOGRAPHIC REFERENCE FRAME
   V INV                    ROTATION MATRICES                   TRANSLATORS
   1   1  1.00 -0.00  0.00  0.00  1.00  0.00 -0.00 -0.00  1.00  0.00  0.00  0.00

 DIRECT LATTICE VECTORS CARTESIAN COMPONENTS (ANGSTROM)
          X                    Y                    Z
   0.130113578931E+02  -0.751088897922E+01   0.000000000000E+00
   0.000000000000E+00   0.150239160000E+02   0.000000000000E+00
   0.149980912698E+01   0.259816093934E+01   0.370001769313E+01


 CARTESIAN COORDINATES - PRIMITIVE CELL
 *******************************************************************************
 *      ATOM          X(ANGSTROM)         Y(ANGSTROM)         Z(ANGSTROM)
 *******************************************************************************
    1     5 B    -6.526353812805E+00  3.718641086428E+00 -1.845241003768E+00
    2     5 B    -4.456823680631E+00  4.913690529223E+00 -1.845240966768E+00
    3     5 B     6.484948493509E+00 -1.402775345779E+00 -1.855284183794E+00
    4     5 B     1.457086348131E+00  4.914113544445E+00 -1.845240966768E+00
    5     5 B     3.527297074441E+00  3.718759323589E+00 -1.845241003768E+00
    6     5 B     3.527040477217E+00  6.109801353448E+00 -1.855284146793E+00
    7     1 H    -2.761347181243E+00  2.771396471477E+00 -1.866062520335E+00
    8     1 H     1.257342526428E+00 -5.367408613918E+00  1.830771196575E+00
    9     1 H    -1.262477459750E+00 -5.369861154727E+00  1.830281166232E+00
   10     1 H    -2.411439818830E-01  2.770230582016E+00 -1.869614315319E+00
   11     1 H    -4.020092010156E+00  3.777992598689E+00  1.866044871250E+00
   12     1 H     4.019591140560E+00 -3.771097106099E+00  1.869229032477E+00
   13     1 H     5.280915643935E+00 -1.590384101049E+00  1.869719395821E+00
   14     1 H    -5.278553002577E+00  1.594963618484E+00  1.869596333233E+00
   15     1 H    -4.019567091975E+00 -3.778587358485E+00  1.833955357801E+00
   16     1 H     2.520199945341E+00  1.175091283070E+00 -1.869246681561E+00
   17     1 H     3.780723877433E+00 -1.006660204629E+00 -1.869736896905E+00
   18     1 H    -5.278830440025E+00 -1.595796263193E+00  1.830403784818E+00
   19     6 C    -2.906466920231E+00  4.913649028440E+00 -1.855651632551E+00
   20     6 C    -2.196062425726E+00  3.704921495063E+00 -1.865572526991E+00
   21     6 C    -8.051611457349E-01  6.123137455833E+00 -1.866429562090E+00
   22     6 C    -6.967347543131E-01 -6.303109072922E+00  1.836160124344E+00
   23     6 C    -8.046637978175E-01  3.704971527098E+00 -1.870471646419E+00
   24     6 C    -9.411946458273E-02  4.914167874214E+00 -1.863735209206E+00
   25     6 C     7.208801152050E+00 -2.536225047251E+00  1.855634131467E+00
   26     6 C    -5.111153522453E+00  3.755053046154E+00  1.865554840907E+00
   27     6 C     5.110840122208E+00 -3.751605952470E+00  1.866412172007E+00
   28     6 C     5.806803411199E+00 -2.546702044292E+00  1.863840252708E+00
   29     6 C    -5.806753828054E+00  2.550049567972E+00  1.870453849333E+00
   30     6 C     5.802123615818E+00 -4.972027698677E+00  1.863717634122E+00
   31     6 C     5.709063025450E+00 -6.075898809699E-02 -1.855651669551E+00
   32     6 C    -5.110732272110E+00 -3.756098731373E+00  1.834445388144E+00
   33     6 C     3.611352428657E+00  1.154627079307E+00 -1.866429747091E+00
   34     6 C     4.306990168017E+00 -5.044381694256E-02 -1.863857827792E+00
   35     6 C     5.705134779720E+00  2.363716187809E+00 -1.870471387417E+00
   36     6 C     4.302731811093E+00  2.374894699722E+00 -1.863735209206E+00
   37     8 O     5.796132588924E+00 -2.597537537473E+00 -1.852589682909E+00
   38     8 O    -5.147134824113E+00  3.719648644672E+00 -1.831401013587E+00
   39     8 O    -2.147546235891E+00 -3.719949895498E+00  5.536667699822E+00
   40     8 O     2.147589402366E+00  6.108320324832E+00 -1.852589571908E+00
   41     8 O     2.147842627990E+00  3.720039847935E+00 -1.831401013587E+00
   42     8 O     4.215606033161E+00  4.914308900023E+00 -1.863367760448E+00

 *******************************************************************************
 STARTING BASIS SET HANDLING 
 *******************************************************************************

 Loading internal basis set: SOLDEF2MSVP         

 Please cite in your publication:
 L. Dona', J. G. Brandenburg and B. Civalleri, J. Chem. Phys., 151, 121101 (2019
 )                                                                              
                                                                                
                    

 *******************************************************************************
 LOCAL ATOMIC FUNCTIONS BASIS SET
 *******************************************************************************
   ATOM   X(AU)   Y(AU)   Z(AU)  N. TYPE  EXPONENT  S COEF   P COEF   D/F/G COEF
 *******************************************************************************
   1 B  -12.333   7.027  -3.487
                                  1 S  
                                         2.410E+03 1.755E-03 0.000E+00 0.000E+00
                                         3.619E+02 1.344E-02 0.000E+00 0.000E+00
                                         8.231E+01 6.637E-02 0.000E+00 0.000E+00
                                         2.311E+01 2.303E-01 0.000E+00 0.000E+00
                                         7.252E+00 5.150E-01 0.000E+00 0.000E+00
                                  2 S  
                                         2.367E+00 1.000E+00 0.000E+00 0.000E+00
                                  3 S  
                                         5.533E-01 1.000E+00 0.000E+00 0.000E+00
                                  4 S  
                                         1.716E-01 1.000E+00 0.000E+00 0.000E+00
                           5-     7 P  
                                         6.002E+00 0.000E+00-3.555E-02 0.000E+00
                                         1.240E+00 0.000E+00-1.983E-01 0.000E+00
                                         3.367E-01 0.000E+00-5.048E-01 0.000E+00
                           8-    10 P  
                                         1.256E-01 0.000E+00 1.000E+00 0.000E+00
                          11-    15 D  
                                         8.880E-01 0.000E+00 0.000E+00 1.000E+00
   2 B   -8.422   9.286  -3.487
   3 B   12.255  -2.651  -3.506
   4 B    2.753   9.286  -3.487
   5 B    6.666   7.027  -3.487
   6 B    6.665  11.546  -3.506
   7 H   -5.218   5.237  -3.526
                                 91 S  
                                         1.874E+01 1.968E-02 0.000E+00 0.000E+00
                                         2.826E+00 1.380E-01 0.000E+00 0.000E+00
                                         6.401E-01 4.783E-01 0.000E+00 0.000E+00
                                 92 S  
                                         1.756E-01 1.000E+00 0.000E+00 0.000E+00
   8 H    2.376 -10.143   3.460
   9 H   -2.386 -10.148   3.459
  10 H   -0.456   5.235  -3.533
  11 H   -7.597   7.139   3.526
  12 H    7.596  -7.126   3.532
  13 H    9.979  -3.005   3.533
  14 H   -9.975   3.014   3.533
  15 H   -7.596  -7.140   3.466
  16 H    4.762   2.221  -3.532
  17 H    7.145  -1.902  -3.533
  18 H   -9.976  -3.016   3.459
  19 C   -5.492   9.285  -3.507
                                115 S  
                                         3.624E+03 1.634E-03 0.000E+00 0.000E+00
                                         5.440E+02 1.252E-02 0.000E+00 0.000E+00
                                         1.237E+02 6.211E-02 0.000E+00 0.000E+00
                                         3.476E+01 2.182E-01 0.000E+00 0.000E+00
                                         1.093E+01 4.980E-01 0.000E+00 0.000E+00
                                116 S  
                                         3.574E+00 1.000E+00 0.000E+00 0.000E+00
                                117 S  
                                         7.742E-01 1.000E+00 0.000E+00 0.000E+00
                                118 S  
                                         2.330E-01 1.000E+00 0.000E+00 0.000E+00
                         119-   121 P  
                                         9.443E+00 0.000E+00 3.790E-02 0.000E+00
                                         2.002E+00 0.000E+00 2.082E-01 0.000E+00
                                         5.463E-01 0.000E+00 5.047E-01 0.000E+00
                         122-   124 P  
                                         1.820E-01 0.000E+00 1.000E+00 0.000E+00
                         125-   129 D  
                                         8.880E-01 0.000E+00 0.000E+00 1.000E+00
  20 C   -4.150   7.001  -3.525
  21 C   -1.522  11.571  -3.527
  22 C   -1.317 -11.911   3.470
  23 C   -1.521   7.001  -3.535
  24 C   -0.178   9.286  -3.522
  25 C   13.623  -4.793   3.507
  26 C   -9.659   7.096   3.525
  27 C    9.658  -7.090   3.527
  28 C   10.973  -4.813   3.522
  29 C  -10.973   4.819   3.535
  30 C   10.964  -9.396   3.522
  31 C   10.789  -0.115  -3.507
  32 C   -9.658  -7.098   3.467
  33 C    6.824   2.182  -3.527
  34 C    8.139  -0.095  -3.522
  35 C   10.781   4.467  -3.535
  36 C    8.131   4.488  -3.522
  37 O   10.953  -4.909  -3.501
                                385 S  
                                         6.773E+03 1.727E-03 0.000E+00 0.000E+00
                                         1.017E+03 1.325E-02 0.000E+00 0.000E+00
                                         2.313E+02 6.603E-02 0.000E+00 0.000E+00
                                         6.501E+01 2.353E-01 0.000E+00 0.000E+00
                                         2.050E+01 5.498E-01 0.000E+00 0.000E+00
                                386 S  
                                         6.716E+00 1.000E+00 0.000E+00 0.000E+00
                                387 S  
                                         1.147E+00 1.000E+00 0.000E+00 0.000E+00
                                388 S  
                                         3.342E-01 1.000E+00 0.000E+00 0.000E+00
                         389-   391 P  
                                         1.769E+01 0.000E+00 4.359E-02 0.000E+00
                                         3.854E+00 0.000E+00 2.318E-01 0.000E+00
                                         1.047E+00 0.000E+00 5.146E-01 0.000E+00
                         392-   394 P  
                                         2.759E-01 0.000E+00 1.000E+00 0.000E+00
                         395-   399 D  
                                         8.000E-01 0.000E+00 0.000E+00 1.000E+00
  38 O   -9.727   7.029  -3.461
  39 O   -4.058  -7.030  10.463
  40 O    4.058  11.543  -3.501
  41 O    4.059   7.030  -3.461
  42 O    7.966   9.287  -3.521

 *******************************************************************************
 FINISHED BASIS SET HANDLING 
 *******************************************************************************

 INFORMATION **** SET_MPP **** PCRYSTAL CALCULATION
 INFORMATION **** READM2 **** NEW DEFAULT: FOCK/KS MATRIX MIXING SET TO 30 %
 INFORMATION **** READM2 **** NEW DEFAULT: FULL DIRECT SCF MODE
 INFORMATION **** READM2 **** NEW DEFAULT: COULOMB BIPOLAR BUFFER SET TO 32 Mb
 INFORMATION **** READM2 **** NEW DEFAULT: EXCHANGE BIPOLAR BUFFER SET TO 32 Mb

 *******************************************************************************
 NEW DEFAULT: DFT INTEGRATION GRID INCREASED TO XLGRID
 NEW DEFAULT: DIIS ACCELERATOR ACTIVE
 USE KEYWORD NODIIS TO TURN IT OFF
 *******************************************************************************

 WARNING **** RDDFTP **** HSEsol-HJS ACTIVE
 RANGE SEPARATION - OMEGA:   0.110000000000000     
 WARNING **** RDDFTP **** HSEsol-3c has to be combined with sol-def2-mSVP basis set
 *******************************************************************************
 N. OF ATOMS PER CELL        42  COULOMB OVERLAP TOL         (T1) 10**   -6
 NUMBER OF SHELLS           234  COULOMB PENETRATION TOL     (T2) 10**   -6
 NUMBER OF AO               474  EXCHANGE OVERLAP TOL        (T3) 10**   -6
 N. OF ELECTRONS PER CELL   198  EXCHANGE PSEUDO OVP (F(G))  (T4) 10**   -6
 CORE ELECTRONS PER CELL     60  EXCHANGE PSEUDO OVP (P(G))  (T5) 10**  -12
 N. OF SYMMETRY OPERATORS     1  POLE ORDER IN MONO ZONE                  4
 *******************************************************************************
 TYPE OF CALCULATION :  RESTRICTED CLOSED SHELL
 KOHN-SHAM HAMILTONIAN

 (EXCHANGE)[CORRELATION] FUNCTIONAL:(HSEsol GGA)[PBEsol]

 RANGE-SEPARATED HYBRID FUNCTIONAL 
 OMEGA (SHORT-RANGE)[LONG-RANGE]:(    0.1100)[    0.0000]

 HYBRID EXCHANGE - PERCENTAGE OF FOCK EXCHANGE    25.0000

 CAPPA:IS1  2;IS2  2;IS3  8; K PTS MONK NET  20; SYMMOPS:K SPACE   2;G SPACE   1

 *******************************************************************************
 MAX NUMBER OF SCF CYCLES      50  CONVERGENCE ON DELTAP        10**-16
 WEIGHT OF F(I) IN F(I+1)      30% CONVERGENCE ON ENERGY        10**- 6
 SHRINK. FACT.(MONKH.)    2  2  8  NUMBER OF K POINTS IN THE IBZ     20
 SHRINKING FACTOR(GILAT NET)    8  NUMBER OF K POINTS(GILAT NET)   1028
 *******************************************************************************
 *** K POINTS COORDINATES (OBLIQUE COORDINATES IN UNITS OF IS =  2)
   1-R(  0  0  0)   2-R(  1  0  0)   3-R(  0  1  0)   4-R(  1  1  0)
   5-C(  0  0  1)   6-C(  1  0  1)   7-C(  0  1  1)   8-C(  1  1  1)
   9-C(  0  0  2)  10-C(  1  0  2)  11-C(  0  1  2)  12-C(  1  1  2)
  13-C(  0  0  3)  14-C(  1  0  3)  15-C(  0  1  3)  16-C(  1  1  3)
  17-R(  0  0  4)  18-R(  1  0  4)  19-R(  0  1  4)  20-R(  1  1  4)

 DIRECT LATTICE VECTORS COMPON. (A.U.)     RECIP. LATTICE VECTORS COMPON. (A.U.) 
        X            Y            Z              X            Y            Z
   24.5879030  -14.1935232    0.0000000      0.2555397    0.0000000   -0.1035835
    0.0000000   28.3910867    0.0000000      0.1277517    0.2213084   -0.2071876
    2.8342285    4.9098126    6.9920201      0.0000000    0.0000000    0.8986223

 DISK SPACE FOR EIGENVECTORS (FTN 10)     7189632 REALS

 SYMMETRY ADAPTION OF THE BLOCH FUNCTIONS DISABLED
 TTTTTTTTTTTTTTTTTTTTTTTTTTTTTT gordsh1     TELAPSE        0.04 TCPU        0.04

 MATRIX SIZE: P(G)  344410, F(G)   71120, P(G) IRR  173522, F(G) IRR   71816
 MAX G-VECTOR INDEX FOR 1- AND 2-ELECTRON INTEGRALS  79

 TTTTTTTTTTTTTTTTTTTTTTTTTTTTTT INPUT       TELAPSE        0.34 TCPU        0.34

 NEIGHBORS OF THE NON-EQUIVALENT ATOMS

 N = NUMBER OF NEIGHBORS AT DISTANCE R
    ATOM  N     R/ANG      R/AU   NEIGHBORS (ATOM LABELS AND CELL INDICES)
   1 B    1     1.3791     2.6061   37 O   -1 0 0
   1 B    1     1.3793     2.6065   38 O    0 0 0
   1 B    1     1.5503     2.9297   25 C   -1 0-1
   1 B    1     2.3895     4.5155    3 B   -1 0 0
   1 B    1     2.3898     4.5160    2 B    0 0 0
   1 B    1     2.5632     4.8437   26 C    0 0-1

   2 B    1     1.3793     2.6065   39 O    0 1-2
   2 B    1     1.3793     2.6065   38 O    0 0 0
   2 B    1     1.5504     2.9298   19 C    0 0 0
   2 B    1     2.3895     4.5156    3 B   -1 0 0
   2 B    1     2.3898     4.5160    1 B    0 0 0
   2 B    1     2.5634     4.8440   22 C    0 1-1

   3 B    1     1.3791     2.6061   37 O    0 0 0
   3 B    1     1.3793     2.6064   39 O    1 1-2
   3 B    1     1.5502     2.9294   31 C    0 0 0
   3 B    1     2.3895     4.5155    1 B    1 0 0
   3 B    1     2.3895     4.5156    2 B    1 0 0
   3 B    1     2.5629     4.8433   32 C    1 1-1

   4 B    1     1.3795     2.6068   40 O    0 0 0
   4 B    1     1.3795     2.6070   41 O    0 0 0
   4 B    1     1.5513     2.9316   24 C    0 0 0
   4 B    1     2.3905     4.5174    6 B    0 0 0
   4 B    1     2.3905     4.5175    5 B    0 0 0
   4 B    1     2.5648     4.8468   23 C    0 0 0

   5 B    1     1.3795     2.6069   41 O    0 0 0
   5 B    1     1.3797     2.6072   42 O    0 0 0
   5 B    1     1.5516     2.9322   36 C    0 0 0
   5 B    1     2.3905     4.5175    4 B    0 0 0
   5 B    1     2.3911     4.5185    6 B    0 0 0
   5 B    1     2.5651     4.8473   35 C    0 0 0

   6 B    1     1.3795     2.6068   40 O    0 0 0
   6 B    1     1.3796     2.6071   42 O    0 0 0
   6 B    1     1.5516     2.9322   30 C    0 1-1
   6 B    1     2.3905     4.5174    4 B    0 0 0
   6 B    1     2.3911     4.5185    5 B    0 0 0
   6 B    1     2.5651     4.8473   29 C    1 1-1

   7 H    1     1.0913     2.0623   20 C    0 0 0
   7 H    1     2.1472     4.0576   19 C    0 0 0
   7 H    1     2.1680     4.0969   23 C    0 0 0
   7 H    1     2.5202     4.7625   10 H    0 0 0
   7 H    1     2.5676     4.8520   38 O    0 0 0
   7 H    1     2.7321     5.1630    2 B    0 0 0

   8 H    1     1.0914     2.0625   21 C    0-1 1
   8 H    1     2.1493     4.0616   24 C    0-1 1
   8 H    1     2.1666     4.0942   22 C    0 0 0
   8 H    1     2.5198     4.7618    9 H    0 0 0
   8 H    1     2.5720     4.8604   40 O    0-1 1
   8 H    1     2.7362     5.1707    4 B    0-1 1

   9 H    1     1.0914     2.0624   22 C    0 0 0
   9 H    1     2.1471     4.0575   19 C    0-1 1
   9 H    1     2.1680     4.0970   21 C    0-1 1
   9 H    1     2.5198     4.7618    8 H    0 0 0
   9 H    1     2.5665     4.8500   39 O    0 0-1
   9 H    1     2.7315     5.1618    2 B    0-1 1

  10 H    1     1.0915     2.0626   23 C    0 0 0
  10 H    1     2.1490     4.0610   24 C    0 0 0
  10 H    1     2.1669     4.0948   20 C    0 0 0
  10 H    1     2.5202     4.7625    7 H    0 0 0
  10 H    1     2.5712     4.8588   41 O    0 0 0
  10 H    1     2.7351     5.1686    4 B    0 0 0

  11 H    1     1.0913     2.0623   26 C    0 0 0
  11 H    1     2.1469     4.0571   25 C   -1 0 0
  11 H    1     2.1680     4.0968   29 C    0 0 0
  11 H    1     2.5198     4.7617   14 H    0 0 0
  11 H    1     2.5670     4.8510   38 O    0 0 1
  11 H    1     2.7310     5.1609    1 B    0 0 1

  12 H    1     1.0914     2.0625   27 C    0 0 0
  12 H    1     2.1493     4.0617   30 C    0 0 0
  12 H    1     2.1664     4.0939   28 C    0 0 0
  12 H    1     2.5192     4.7606   13 H    0 0 0
  12 H    1     2.5735     4.8632   40 O    0-1 1
  12 H    1     2.7371     5.1723    6 B    0-1 1

  13 H    1     1.0914     2.0624   28 C    0 0 0
  13 H    1     2.1475     4.0581   25 C    0 0 0
  13 H    1     2.1679     4.0967   27 C    0 0 0
  13 H    1     2.5192     4.7606   12 H    0 0 0
  13 H    1     2.5675     4.8519   37 O    0 0 1
  13 H    1     2.7328     5.1643    1 B    1 0 1

  14 H    1     1.0914     2.0625   29 C    0 0 0
  14 H    1     2.1491     4.0612   30 C   -1 0 0
  14 H    1     2.1666     4.0942   26 C    0 0 0
  14 H    1     2.5198     4.7617   11 H    0 0 0
  14 H    1     2.5723     4.8609   42 O   -1-1 1
  14 H    1     2.7355     5.1693    6 B   -1-1 1

  15 H    1     1.0914     2.0624   32 C    0 0 0
  15 H    1     2.1475     4.0582   31 C   -1-1 1
  15 H    1     2.1678     4.0966   35 C   -1-1 1
  15 H    1     2.5200     4.7621   18 H    0 0 0
  15 H    1     2.5667     4.8503   39 O    0 0-1
  15 H    1     2.7315     5.1618    3 B   -1-1 1

  16 H    1     1.0913     2.0623   33 C    0 0 0
  16 H    1     2.1487     4.0605   36 C    0 0 0
  16 H    1     2.1667     4.0945   34 C    0 0 0
  16 H    1     2.5197     4.7616   17 H    0 0 0
  16 H    1     2.5723     4.8610   41 O    0 0 0
  16 H    1     2.7359     5.1701    5 B    0 0 0

  17 H    1     1.0915     2.0626   34 C    0 0 0
  17 H    1     2.1479     4.0589   31 C    0 0 0
  17 H    1     2.1679     4.0968   33 C    0 0 0
  17 H    1     2.5197     4.7616   16 H    0 0 0
  17 H    1     2.5677     4.8522   37 O    0 0 0
  17 H    1     2.7331     5.1648    3 B    0 0 0

  18 H    1     1.0914     2.0624   35 C   -1-1 1
  18 H    1     2.1486     4.0602   36 C   -1-1 1
  18 H    1     2.1668     4.0947   32 C    0 0 0
  18 H    1     2.5200     4.7621   15 H    0 0 0
  18 H    1     2.5717     4.8598   42 O   -1-1 1
  18 H    1     2.7349     5.1682    5 B   -1-1 1

  19 C    1     1.4020     2.6495   22 C    0 1-1
  19 C    1     1.4021     2.6495   20 C    0 0 0
  19 C    1     1.5504     2.9298    2 B    0 0 0
  19 C    1     2.1471     4.0575    9 H    0 1-1
  19 C    1     2.1472     4.0576    7 H    0 0 0
  19 C    1     2.4246     4.5817   21 C    0 0 0

  20 C    1     1.0913     2.0623    7 H    0 0 0
  20 C    1     1.3914     2.6294   23 C    0 0 0
  20 C    1     1.4021     2.6495   19 C    0 0 0
  20 C    1     2.1669     4.0948   10 H    0 0 0
  20 C    1     2.4177     4.5688   22 C    0 1-1
  20 C    1     2.4250     4.5825   24 C    0 0 0

  21 C    1     1.0914     2.0625    8 H    0 1-1
  21 C    1     1.3914     2.6293   22 C    0 1-1
  21 C    1     1.4026     2.6505   24 C    0 0 0
  21 C    1     2.1680     4.0970    9 H    0 1-1
  21 C    1     2.4182     4.5697   23 C    0 0 0
  21 C    1     2.4246     4.5817   19 C    0 0 0

  22 C    1     1.0914     2.0624    9 H    0 0 0
  22 C    1     1.3914     2.6293   21 C    0-1 1
  22 C    1     1.4020     2.6495   19 C    0-1 1
  22 C    1     2.1666     4.0942    8 H    0 0 0
  22 C    1     2.4177     4.5688   20 C    0-1 1
  22 C    1     2.4250     4.5826   24 C    0-1 1

  23 C    1     1.0915     2.0626   10 H    0 0 0
  23 C    1     1.3914     2.6294   20 C    0 0 0
  23 C    1     1.4025     2.6504   24 C    0 0 0
  23 C    1     2.1680     4.0969    7 H    0 0 0
  23 C    1     2.4182     4.5697   21 C    0 0 0
  23 C    1     2.4246     4.5818   19 C    0 0 0

  24 C    1     1.4025     2.6504   23 C    0 0 0
  24 C    1     1.4026     2.6505   21 C    0 0 0
  24 C    1     1.5513     2.9316    4 B    0 0 0
  24 C    1     2.1490     4.0610   10 H    0 0 0
  24 C    1     2.1493     4.0616    8 H    0 1-1
  24 C    1     2.4250     4.5825   20 C    0 0 0

  25 C    1     1.4020     2.6494   26 C    1 0 0
  25 C    1     1.4021     2.6495   28 C    0 0 0
  25 C    1     1.5503     2.9297    1 B    1 0 1
  25 C    1     2.1469     4.0571   11 H    1 0 0
  25 C    1     2.1475     4.0581   13 H    0 0 0
  25 C    1     2.4246     4.5818   27 C    0 0 0

  26 C    1     1.0913     2.0623   11 H    0 0 0
  26 C    1     1.3914     2.6293   29 C    0 0 0
  26 C    1     1.4020     2.6494   25 C   -1 0 0
  26 C    1     2.1666     4.0942   14 H    0 0 0
  26 C    1     2.4175     4.5684   28 C   -1 0 0
  26 C    1     2.4251     4.5828   30 C   -1 0 0

  27 C    1     1.0914     2.0625   12 H    0 0 0
  27 C    1     1.3915     2.6295   28 C    0 0 0
  27 C    1     1.4026     2.6505   30 C    0 0 0
  27 C    1     2.1679     4.0967   13 H    0 0 0
  27 C    1     2.4179     4.5691   29 C    1 0 0
  27 C    1     2.4246     4.5818   25 C    0 0 0

  28 C    1     1.0914     2.0624   13 H    0 0 0
  28 C    1     1.3915     2.6295   27 C    0 0 0
  28 C    1     1.4021     2.6495   25 C    0 0 0
  28 C    1     2.1664     4.0939   12 H    0 0 0
  28 C    1     2.4175     4.5684   26 C    1 0 0
  28 C    1     2.4253     4.5832   30 C    0 0 0

  29 C    1     1.0914     2.0625   14 H    0 0 0
  29 C    1     1.3914     2.6293   26 C    0 0 0
  29 C    1     1.4025     2.6504   30 C   -1 0 0
  29 C    1     2.1680     4.0968   11 H    0 0 0
  29 C    1     2.4179     4.5691   27 C   -1 0 0
  29 C    1     2.4247     4.5819   25 C   -1 0 0

  30 C    1     1.4025     2.6504   29 C    1 0 0
  30 C    1     1.4026     2.6505   27 C    0 0 0
  30 C    1     1.5516     2.9322    6 B    0-1 1
  30 C    1     2.1491     4.0612   14 H    1 0 0
  30 C    1     2.1493     4.0617   12 H    0 0 0
  30 C    1     2.4251     4.5828   26 C    1 0 0

  31 C    1     1.4021     2.6496   32 C    1 1-1
  31 C    1     1.4021     2.6497   34 C    0 0 0
  31 C    1     1.5502     2.9294    3 B    0 0 0
  31 C    1     2.1475     4.0582   15 H    1 1-1
  31 C    1     2.1479     4.0589   17 H    0 0 0
  31 C    1     2.4244     4.5814   33 C    0 0 0

  32 C    1     1.0914     2.0624   15 H    0 0 0
  32 C    1     1.3914     2.6293   35 C   -1-1 1
  32 C    1     1.4021     2.6496   31 C   -1-1 1
  32 C    1     2.1668     4.0947   18 H    0 0 0
  32 C    1     2.4179     4.5692   34 C   -1-1 1
  32 C    1     2.4251     4.5827   36 C   -1-1 1

  33 C    1     1.0913     2.0623   16 H    0 0 0
  33 C    1     1.3914     2.6294   34 C    0 0 0
  33 C    1     1.4025     2.6504   36 C    0 0 0
  33 C    1     2.1679     4.0968   17 H    0 0 0
  33 C    1     2.4178     4.5690   35 C    0 0 0
  33 C    1     2.4244     4.5814   31 C    0 0 0

  34 C    1     1.0915     2.0626   17 H    0 0 0
  34 C    1     1.3914     2.6294   33 C    0 0 0
  34 C    1     1.4021     2.6497   31 C    0 0 0
  34 C    1     2.1667     4.0945   16 H    0 0 0
  34 C    1     2.4179     4.5692   32 C    1 1-1
  34 C    1     2.4253     4.5832   36 C    0 0 0

  35 C    1     1.0914     2.0624   18 H    1 1-1
  35 C    1     1.3914     2.6293   32 C    1 1-1
  35 C    1     1.4025     2.6503   36 C    0 0 0
  35 C    1     2.1678     4.0966   15 H    1 1-1
  35 C    1     2.4178     4.5690   33 C    0 0 0
  35 C    1     2.4245     4.5817   31 C    0 0 0

  36 C    1     1.4025     2.6503   35 C    0 0 0
  36 C    1     1.4025     2.6504   33 C    0 0 0
  36 C    1     1.5516     2.9322    5 B    0 0 0
  36 C    1     2.1486     4.0602   18 H    1 1-1
  36 C    1     2.1487     4.0605   16 H    0 0 0
  36 C    1     2.4251     4.5827   32 C    1 1-1

  37 O    1     1.3791     2.6061    1 B    1 0 0
  37 O    1     1.3791     2.6061    3 B    0 0 0
  37 O    1     2.3880     4.5126   38 O    1 0 0
  37 O    1     2.3882     4.5130   39 O    1 1-2
  37 O    1     2.5383     4.7966   31 C    0 0 0
  37 O    1     2.5384     4.7968   25 C    0 0-1

  38 O    1     1.3793     2.6065    1 B    0 0 0
  38 O    1     1.3793     2.6065    2 B    0 0 0
  38 O    1     2.3880     4.5126   37 O   -1 0 0
  38 O    1     2.3882     4.5131   39 O    0 1-2
  38 O    1     2.5391     4.7981   19 C    0 0 0
  38 O    1     2.5395     4.7990   25 C   -1 0-1

  39 O    1     1.3793     2.6064    3 B   -1-1 2
  39 O    1     1.3793     2.6065    2 B    0-1 2
  39 O    1     2.3882     4.5130   37 O   -1-1 2
  39 O    1     2.3882     4.5131   38 O    0-1 2
  39 O    1     2.5390     4.7980   19 C    0-1 2
  39 O    1     2.5391     4.7982   31 C   -1-1 2

  40 O    1     1.3795     2.6068    6 B    0 0 0
  40 O    1     1.3795     2.6068    4 B    0 0 0
  40 O    1     2.3880     4.5126   42 O    0 0 0
  40 O    1     2.3884     4.5134   41 O    0 0 0
  40 O    1     2.5400     4.7998   24 C    0 0 0
  40 O    1     2.5403     4.8005   30 C    0 1-1

  41 O    1     1.3795     2.6069    5 B    0 0 0
  41 O    1     1.3795     2.6070    4 B    0 0 0
  41 O    1     2.3881     4.5128   42 O    0 0 0
  41 O    1     2.3884     4.5134   40 O    0 0 0
  41 O    1     2.5404     4.8006   24 C    0 0 0
  41 O    1     2.5405     4.8008   36 C    0 0 0

  42 O    1     1.3796     2.6071    6 B    0 0 0
  42 O    1     1.3797     2.6072    5 B    0 0 0
  42 O    1     2.3880     4.5126   40 O    0 0 0
  42 O    1     2.3881     4.5128   41 O    0 0 0
  42 O    1     2.5409     4.8016   36 C    0 0 0
  42 O    1     2.5410     4.8019   30 C    0 1-1


 SYMMETRY ALLOWED INTERNAL DEGREE(S) OF FREEDOM: 123
 TTTTTTTTTTTTTTTTTTTTTTTTTTTTTT SYMM        TELAPSE        0.35 TCPU        0.34
 TTTTTTTTTTTTTTTTTTTTTTTTTTTTTT INT_SCREEN  TELAPSE        0.38 TCPU        0.37

 DFT PARAMETERS

     ATOM       ELECTRONS   NET CHARGE   R(ANGSTROM)
   1   5  B       5.0000      0.0000     0.89000000
   7   1  H       1.0000      0.0000     1.11000000
  19   6  C       6.0000      0.0000     0.77000000
  37   8  O       8.0000      0.0000     0.74000000

 SIZE OF GRID=    1288170
 TTTTTTTTTTTTTTTTTTTTTTTTTTTTTT MAKE_GRID2  TELAPSE       10.11 TCPU       10.09
 BECKE WEIGHT FUNCTION
 RADSAFE =     2.00
 TOLERANCES - DENSITY:10**- 6; POTENTIAL:10**- 9; GRID WGT:10**-14

 RADIAL INTEGRATION  - INTERVALS (POINTS,UPPER LIMIT):            1( 75,  4.0*R)

 ANGULAR INTEGRATION - INTERVALS (ACCURACY LEVEL [N. POINTS] UPPER LIMIT):
  1(  4[  86]   0.2)  2(  8[ 194]   0.5)  3( 12[ 350]   0.9)  4( 16[ 974]   3.5)
  5( 12[ 350]9999.0)
 TTTTTTTTTTTTTTTTTTTTTTTTTTTTTT INT_CALC    TELAPSE       10.20 TCPU       10.19
 EEEEEEEEEE INT_CALC TERMINATION  DATE 19 02 2026 TIME 18:48:42.2

 *******************************************************************************
 cof-1_z37_L030_incl                                                             
 CRYSTAL - SCF - TYPE OF CALCULATION :  RESTRICTED CLOSED SHELL
 *******************************************************************************

 CAPPA:IS1  2;IS2  2;IS3  8; K PTS MONK NET  20; SYMMOPS:K SPACE   2;G SPACE   1

 TTTTTTTTTTTTTTTTTTTTTTTTTTTTTT SDIK        TELAPSE       10.83 TCPU       18.29

 AAAAAAAAAAAAAAAAAAAAAAAAAAAAAAAAAAAAAAAAAAAAAAAAAAAAAAAAAAAAAAAAAAAAAAAAAAAAAAA
         ATOMIC WAVEFUNCTION(S)


 NUCLEAR CHARGE  5.0  SYMMETRY SPECIES            S    P
 N. ELECTRONS    5.0  NUMBER OF PRIMITIVE GTOS    8    4
                      NUMBER OF CONTRACTED GTOS   4    2
                      NUMBER OF CLOSED SHELLS     2    0
                      OPEN SHELL OCCUPATION       0    1

  ZNUC  SCFIT    TOTAL HF ENERGY   KINETIC ENERGY   VIRIAL THEOREM ACCURACY
   5.0    11    -2.451164084E+01  2.462155050E+01 -1.995536038E+00  1.5E-06

 NUCLEAR CHARGE  1.0  SYMMETRY SPECIES            S
 N. ELECTRONS    1.0  NUMBER OF PRIMITIVE GTOS    4
                      NUMBER OF CONTRACTED GTOS   2
                      NUMBER OF CLOSED SHELLS     0
                      OPEN SHELL OCCUPATION       1

  ZNUC  SCFIT    TOTAL HF ENERGY   KINETIC ENERGY   VIRIAL THEOREM ACCURACY
   1.0     1    -4.977266687E-01  5.190767460E-01 -1.958869132E+00  0.0E+00

 NUCLEAR CHARGE  6.0  SYMMETRY SPECIES            S    P
 N. ELECTRONS    6.0  NUMBER OF PRIMITIVE GTOS    8    4
                      NUMBER OF CONTRACTED GTOS   4    2
                      NUMBER OF CLOSED SHELLS     2    0
                      OPEN SHELL OCCUPATION       0    2

  ZNUC  SCFIT    TOTAL HF ENERGY   KINETIC ENERGY   VIRIAL THEOREM ACCURACY
   6.0     9    -3.766704647E+01  3.775180683E+01 -1.997754800E+00  1.1E-06

 NUCLEAR CHARGE  8.0  SYMMETRY SPECIES            S    P
 N. ELECTRONS    8.0  NUMBER OF PRIMITIVE GTOS    8    4
                      NUMBER OF CONTRACTED GTOS   4    2
                      NUMBER OF CLOSED SHELLS     2    0
                      OPEN SHELL OCCUPATION       0    4

  ZNUC  SCFIT    TOTAL HF ENERGY   KINETIC ENERGY   VIRIAL THEOREM ACCURACY
   8.0    12    -7.477373220E+01  7.477365593E+01 -2.000001020E+00  3.8E-06

 AAAAAAAAAAAAAAAAAAAAAAAAAAAAAAAAAAAAAAAAAAAAAAAAAAAAAAAAAAAAAAAAAAAAAAAAAAAAAAA

 CHARGE NORMALIZATION FACTOR   1.00000000
 TOTAL ATOMIC CHARGES:
   5.0000000   5.0000000   5.0000000   5.0000000   5.0000000   5.0000000
   1.0000000   1.0000000   1.0000000   1.0000000   1.0000000   1.0000000
   1.0000000   1.0000000   1.0000000   1.0000000   1.0000000   1.0000000
   6.0000000   6.0000000   6.0000000   6.0000000   6.0000000   6.0000000
   6.0000000   6.0000000   6.0000000   6.0000000   6.0000000   6.0000000
   6.0000000   6.0000000   6.0000000   6.0000000   6.0000000   6.0000000
   8.0000000   8.0000000   8.0000000   8.0000000   8.0000000   8.0000000
 TTTTTTTTTTTTTTTTTTTTTTTTTTTTTT MOQGAD      TELAPSE       10.88 TCPU       19.86
 TTTTTTTTTTTTTTTTTTTTTTTTTTTTTT SHELLXN     TELAPSE       19.22 TCPU      286.43
 TTTTTTTTTTTTTTTTTTTTTTTTTTTTTT MONMO3      TELAPSE       19.37 TCPU      291.34
 NUMERICALLY INTEGRATED DENSITY    198.0000272585
 TTTTTTTTTTTTTTTTTTTTTTTTTTTTTT NUMDFT      TELAPSE       19.97 TCPU      310.47
 CYC   0 ETOT(AU) -1.295962700483E+03 DETOT -1.30E+03 tst  0.00E+00 PX  1.00E+00
 TTTTTTTTTTTTTTTTTTTTTTTTTTTTTT DIIS        TELAPSE       20.00 TCPU      311.58
 TTTTTTTTTTTTTTTTTTTTTTTTTTTTTT FDIK        TELAPSE       20.49 TCPU      327.11
 INSULATING STATE
 TOP OF VALENCE BANDS -    BAND     99; K   17; EIG -3.0965729E-01 AU
 TOP OF VALENCE BANDS -    BAND     99; K    1; EIG -3.1281639E-01 AU
 BOTTOM OF VIRTUAL BANDS - BAND    100; K    1; EIG -1.6117704E-01 AU
 INDIRECT ENERGY BAND GAP:   4.0404 eV
 TTTTTTTTTTTTTTTTTTTTTTTTTTTTTT PDIG        TELAPSE       20.80 TCPU      333.27
 CHARGE NORMALIZATION FACTOR   1.00000000
 TOTAL ATOMIC CHARGES:
   4.1444642   4.1590376   4.1594672   4.1588289   4.1585947   4.1440983
   0.7854770   0.7856078   0.7848685   0.7849130   0.7859907   0.7861946
   0.7859999   0.7861646   0.7848356   0.7849623   0.7854265   0.7856010
   6.0445319   6.2671406   6.2670775   6.2653036   6.2652692   6.0439274
   6.0496473   6.2655843   6.2657549   6.2654713   6.2657779   6.0485483
   6.0449715   6.2650229   6.2656372   6.2667410   6.2673472   6.0434775
   8.6969258   8.6971063   8.6962213   8.6975718   8.6966453   8.6977653
 TTTTTTTTTTTTTTTTTTTTTTTTTTTTTT MOQGAD      TELAPSE       20.85 TCPU      333.32
 TTTTTTTTTTTTTTTTTTTTTTTTTTTTTT SHELLXN     TELAPSE       29.52 TCPU      609.81
 TTTTTTTTTTTTTTTTTTTTTTTTTTTTTT MONMO3      TELAPSE       29.67 TCPU      614.71
 NUMERICALLY INTEGRATED DENSITY    198.0000163078
 TTTTTTTTTTTTTTTTTTTTTTTTTTTTTT NUMDFT      TELAPSE       30.28 TCPU      634.13
 CYC   1 ETOT(AU) -1.288824532567E+03 DETOT  7.14E+00 tst  0.00E+00 PX  1.00E+00
 TTTTTTTTTTTTTTTTTTTTTTTTTTTTTT DIIS        TELAPSE       30.33 TCPU      635.64
 DIIS TEST: 0.10916E+01 AT SCF   CYCLE   1 - MIX   30 %
 TTTTTTTTTTTTTTTTTTTTTTTTTTTTTT FDIK        TELAPSE       30.82 TCPU      651.25
 INSULATING STATE
 TOP OF VALENCE BANDS -    BAND     99; K   17; EIG -2.1874109E-01 AU
 TOP OF VALENCE BANDS -    BAND     99; K    1; EIG -2.2643348E-01 AU
 BOTTOM OF VIRTUAL BANDS - BAND    100; K    1; EIG -8.3753257E-02 AU
 INDIRECT ENERGY BAND GAP:   3.6732 eV
 TTTTTTTTTTTTTTTTTTTTTTTTTTTTTT PDIG        TELAPSE       31.12 TCPU      657.41
 CHARGE NORMALIZATION FACTOR   1.00000000
 TOTAL ATOMIC CHARGES:
   4.6695860   4.6986135   4.6981803   4.6982106   4.6985002   4.6684820
   0.9082621   0.9084071   0.9169068   0.9171727   0.9058740   0.9056442
   0.9057889   0.9056387   0.9169293   0.9171844   0.9081489   0.9081977
   5.8682000   6.1225786   6.1229962   6.1458577   6.1469856   5.8705171
   5.8908649   6.1400812   6.1418869   6.1413020   6.1405625   5.8933260
   5.8677542   6.1455522   6.1474152   6.1229931   6.1230048   5.8708805
   8.3334767   8.3337047   8.3538307   8.3332553   8.3539157   8.3333306
 TTTTTTTTTTTTTTTTTTTTTTTTTTTTTT MOQGAD      TELAPSE       31.17 TCPU      657.46
 TTTTTTTTTTTTTTTTTTTTTTTTTTTTTT SHELLXN     TELAPSE       39.84 TCPU      933.90
 TTTTTTTTTTTTTTTTTTTTTTTTTTTTTT MONMO3      TELAPSE       40.00 TCPU      938.80
 NUMERICALLY INTEGRATED DENSITY    198.0000161105
 TTTTTTTTTTTTTTTTTTTTTTTTTTTTTT NUMDFT      TELAPSE       40.60 TCPU      958.17
 CYC   2 ETOT(AU) -1.289018415159E+03 DETOT -1.94E-01 tst  3.78E-03 PX  1.59E-01
 TTTTTTTTTTTTTTTTTTTTTTTTTTTTTT DIIS        TELAPSE       40.65 TCPU      959.72
 DIIS TEST: 0.45259E+00 AT SCF   CYCLE   2 - DIIS ACTIVE - HISTORY:     2 CYCLES
 TTTTTTTTTTTTTTTTTTTTTTTTTTTTTT FDIK        TELAPSE       41.14 TCPU      975.32
 INSULATING STATE
 TOP OF VALENCE BANDS -    BAND     99; K   17; EIG -2.3188958E-01 AU
 TOP OF VALENCE BANDS -    BAND     99; K    1; EIG -2.3707197E-01 AU
 BOTTOM OF VIRTUAL BANDS - BAND    100; K    1; EIG -7.9397930E-02 AU
 INDIRECT ENERGY BAND GAP:   4.1495 eV
 TTTTTTTTTTTTTTTTTTTTTTTTTTTTTT PDIG        TELAPSE       41.45 TCPU      981.49
 CHARGE NORMALIZATION FACTOR   1.00000000
 TOTAL ATOMIC CHARGES:
   4.4695298   4.4940174   4.4938986   4.4932143   4.4931575   4.4687081
   0.8864893   0.8867154   0.8931367   0.8933370   0.8861922   0.8863476
   0.8863353   0.8861458   0.8930886   0.8934325   0.8864179   0.8865558
   5.8911918   6.1634112   6.1634186   6.1590866   6.1579947   5.8906656
   5.9109001   6.1616420   6.1611691   6.1613365   6.1613233   5.9109518
   5.8916698   6.1591469   6.1580421   6.1633068   6.1637059   5.8902217
   8.5182903   8.5186143   8.5147082   8.5188400   8.5144606   8.5191825
 TTTTTTTTTTTTTTTTTTTTTTTTTTTTTT MOQGAD      TELAPSE       41.50 TCPU      981.54
 TTTTTTTTTTTTTTTTTTTTTTTTTTTTTT SHELLXN     TELAPSE       50.17 TCPU     1257.96
 TTTTTTTTTTTTTTTTTTTTTTTTTTTTTT MONMO3      TELAPSE       50.32 TCPU     1262.85
 NUMERICALLY INTEGRATED DENSITY    198.0000163191
 TTTTTTTTTTTTTTTTTTTTTTTTTTTTTT NUMDFT      TELAPSE       50.93 TCPU     1282.27
 CYC   3 ETOT(AU) -1.289112173128E+03 DETOT -9.38E-02 tst  6.98E-04 PX  6.57E-02
 TTTTTTTTTTTTTTTTTTTTTTTTTTTTTT DIIS        TELAPSE       50.99 TCPU     1284.07
 DIIS TEST: 0.13855E-01 AT SCF   CYCLE   3 - DIIS ACTIVE - HISTORY:     3 CYCLES
 TTTTTTTTTTTTTTTTTTTTTTTTTTTTTT FDIK        TELAPSE       51.47 TCPU     1299.60
 INSULATING STATE
 TOP OF VALENCE BANDS -    BAND     99; K   17; EIG -2.4184891E-01 AU
 TOP OF VALENCE BANDS -    BAND     99; K    1; EIG -2.4905865E-01 AU
 BOTTOM OF VIRTUAL BANDS - BAND    100; K    1; EIG -8.7878734E-02 AU
 INDIRECT ENERGY BAND GAP:   4.1897 eV
 TTTTTTTTTTTTTTTTTTTTTTTTTTTTTT PDIG        TELAPSE       51.78 TCPU     1305.77
 CHARGE NORMALIZATION FACTOR   1.00000000
 TOTAL ATOMIC CHARGES:
   4.4768428   4.4978630   4.4976134   4.4974476   4.4975155   4.4763979
   0.8702645   0.8705115   0.8754138   0.8755118   0.8673304   0.8671762
   0.8672484   0.8671861   0.8754902   0.8755014   0.8702090   0.8703310
   5.9379508   6.1598557   6.1599330   6.1738627   6.1756275   5.9406329
   5.9595131   6.1703236   6.1721844   6.1714667   6.1708452   5.9614307
   5.9377042   6.1733289   6.1762692   6.1600755   6.1599868   5.9408005
   8.4787101   8.4787938   8.4935520   8.4786101   8.4940784   8.4786095
 TTTTTTTTTTTTTTTTTTTTTTTTTTTTTT MOQGAD      TELAPSE       51.83 TCPU     1305.82
 TTTTTTTTTTTTTTTTTTTTTTTTTTTTTT SHELLXN     TELAPSE       60.50 TCPU     1582.38
 TTTTTTTTTTTTTTTTTTTTTTTTTTTTTT MONMO3      TELAPSE       60.66 TCPU     1587.28
 NUMERICALLY INTEGRATED DENSITY    198.0000159901
 TTTTTTTTTTTTTTTTTTTTTTTTTTTTTT NUMDFT      TELAPSE       61.26 TCPU     1606.69
 CYC   4 ETOT(AU) -1.289115099330E+03 DETOT -2.93E-03 tst  3.18E-05 PX  1.38E-02
 TTTTTTTTTTTTTTTTTTTTTTTTTTTTTT DIIS        TELAPSE       61.32 TCPU     1608.62
 DIIS TEST: 0.42096E-02 AT SCF   CYCLE   4 - DIIS ACTIVE - HISTORY:     4 CYCLES
 TTTTTTTTTTTTTTTTTTTTTTTTTTTTTT FDIK        TELAPSE       61.82 TCPU     1624.31
 INSULATING STATE
 TOP OF VALENCE BANDS -    BAND     99; K   17; EIG -2.4017245E-01 AU
 TOP OF VALENCE BANDS -    BAND     99; K    1; EIG -2.4667572E-01 AU
 BOTTOM OF VIRTUAL BANDS - BAND    100; K    1; EIG -8.7619944E-02 AU
 INDIRECT ENERGY BAND GAP:   4.1512 eV
 TTTTTTTTTTTTTTTTTTTTTTTTTTTTTT PDIG        TELAPSE       62.12 TCPU     1630.47
 CHARGE NORMALIZATION FACTOR   1.00000000
 TOTAL ATOMIC CHARGES:
   4.4761976   4.5011572   4.5009382   4.5004868   4.5005164   4.4753107
   0.8726148   0.8728071   0.8789393   0.8792135   0.8710144   0.8711118
   0.8710945   0.8709560   0.8789157   0.8792979   0.8725317   0.8726419
   5.9222182   6.1640370   6.1640668   6.1715150   6.1703785   5.9212265
   5.9412313   6.1707044   6.1704998   6.1706157   6.1704327   5.9409639
   5.9223899   6.1715016   6.1704914   6.1639739   6.1643936   5.9210204
   8.4920381   8.4923593   8.4967330   8.4923683   8.4964218   8.4926735
 TTTTTTTTTTTTTTTTTTTTTTTTTTTTTT MOQGAD      TELAPSE       62.17 TCPU     1630.52
 TTTTTTTTTTTTTTTTTTTTTTTTTTTTTT SHELLXN     TELAPSE       70.84 TCPU     1906.76
 TTTTTTTTTTTTTTTTTTTTTTTTTTTTTT MONMO3      TELAPSE       70.99 TCPU     1911.65
 NUMERICALLY INTEGRATED DENSITY    198.0000160931
 TTTTTTTTTTTTTTTTTTTTTTTTTTTTTT NUMDFT      TELAPSE       71.60 TCPU     1931.09
 CYC   5 ETOT(AU) -1.289116060680E+03 DETOT -9.61E-04 tst  5.86E-06 PX  6.72E-03
 TTTTTTTTTTTTTTTTTTTTTTTTTTTTTT DIIS        TELAPSE       71.67 TCPU     1933.29
 DIIS TEST: 0.78568E-04 AT SCF   CYCLE   5 - DIIS ACTIVE - HISTORY:     5 CYCLES
 TTTTTTTTTTTTTTTTTTTTTTTTTTTTTT FDIK        TELAPSE       72.16 TCPU     1948.91
 INSULATING STATE
 TOP OF VALENCE BANDS -    BAND     99; K   17; EIG -2.3988008E-01 AU
 TOP OF VALENCE BANDS -    BAND     99; K    1; EIG -2.4640481E-01 AU
 BOTTOM OF VIRTUAL BANDS - BAND    100; K    1; EIG -8.7056175E-02 AU
 INDIRECT ENERGY BAND GAP:   4.1586 eV
 TTTTTTTTTTTTTTTTTTTTTTTTTTTTTT PDIG        TELAPSE       72.46 TCPU     1955.07
 CHARGE NORMALIZATION FACTOR   1.00000000
 TOTAL ATOMIC CHARGES:
   4.4771261   4.5001675   4.4999507   4.4997214   4.4997707   4.4766323
   0.8736631   0.8739124   0.8799931   0.8800386   0.8721688   0.8720039
   0.8721110   0.8719912   0.8800513   0.8800397   0.8735892   0.8737405
   5.9191523   6.1630631   6.1632734   6.1694998   6.1718548   5.9229997
   5.9403925   6.1685601   6.1705346   6.1696282   6.1692851   5.9431138
   5.9192086   6.1690324   6.1724335   6.1633427   6.1632423   5.9229068
   8.4906721   8.4907197   8.4991753   8.4906978   8.4998539   8.4906861
 TTTTTTTTTTTTTTTTTTTTTTTTTTTTTT MOQGAD      TELAPSE       72.51 TCPU     1955.12
 TTTTTTTTTTTTTTTTTTTTTTTTTTTTTT SHELLXN     TELAPSE       81.18 TCPU     2231.44
 TTTTTTTTTTTTTTTTTTTTTTTTTTTTTT MONMO3      TELAPSE       81.33 TCPU     2236.34
 NUMERICALLY INTEGRATED DENSITY    198.0000160918
 TTTTTTTTTTTTTTTTTTTTTTTTTTTTTT NUMDFT      TELAPSE       81.94 TCPU     2255.75
 CYC   6 ETOT(AU) -1.289116073422E+03 DETOT -1.27E-05 tst  3.51E-07 PX  1.01E-03
 TTTTTTTTTTTTTTTTTTTTTTTTTTTTTT DIIS        TELAPSE       82.01 TCPU     2258.01
 DIIS TEST: 0.44078E-04 AT SCF   CYCLE   6 - DIIS ACTIVE - HISTORY:     6 CYCLES
 TTTTTTTTTTTTTTTTTTTTTTTTTTTTTT FDIK        TELAPSE       82.50 TCPU     2273.68
 INSULATING STATE
 TOP OF VALENCE BANDS -    BAND     99; K   17; EIG -2.3990918E-01 AU
 TOP OF VALENCE BANDS -    BAND     99; K    1; EIG -2.4641642E-01 AU
 BOTTOM OF VIRTUAL BANDS - BAND    100; K    1; EIG -8.7092532E-02 AU
 INDIRECT ENERGY BAND GAP:   4.1584 eV
 TTTTTTTTTTTTTTTTTTTTTTTTTTTTTT PDIG        TELAPSE       82.80 TCPU     2279.84
 CHARGE NORMALIZATION FACTOR   1.00000000
 TOTAL ATOMIC CHARGES:
   4.4768489   4.5006062   4.5003945   4.4999715   4.5000018   4.4760853
   0.8736480   0.8738712   0.8798356   0.8800708   0.8719901   0.8720305
   0.8720322   0.8719171   0.8798409   0.8801242   0.8735750   0.8736969
   5.9216211   6.1631855   6.1631699   6.1707484   6.1701529   5.9213354
   5.9415270   6.1695506   6.1697762   6.1697726   6.1693827   5.9416662
   5.9216706   6.1705747   6.1704336   6.1631759   6.1634375   5.9212480
   8.4910690   8.4913343   8.4979420   8.4913120   8.4978284   8.4915449
 TTTTTTTTTTTTTTTTTTTTTTTTTTTTTT MOQGAD      TELAPSE       82.85 TCPU     2279.89
 TTTTTTTTTTTTTTTTTTTTTTTTTTTTTT SHELLXN     TELAPSE       91.52 TCPU     2556.40
 TTTTTTTTTTTTTTTTTTTTTTTTTTTTTT MONMO3      TELAPSE       91.68 TCPU     2561.30
 NUMERICALLY INTEGRATED DENSITY    198.0000160928
 TTTTTTTTTTTTTTTTTTTTTTTTTTTTTT NUMDFT      TELAPSE       92.29 TCPU     2580.73
 CYC   7 ETOT(AU) -1.289116083265E+03 DETOT -9.84E-06 tst  2.36E-07 PX  7.75E-04
 TTTTTTTTTTTTTTTTTTTTTTTTTTTTTT DIIS        TELAPSE       92.37 TCPU     2583.28
 DIIS TEST: 0.30424E-05 AT SCF   CYCLE   7 - DIIS ACTIVE - HISTORY:     7 CYCLES
 TTTTTTTTTTTTTTTTTTTTTTTTTTTTTT FDIK        TELAPSE       92.85 TCPU     2598.82
 INSULATING STATE
 TOP OF VALENCE BANDS -    BAND     99; K   17; EIG -2.3991768E-01 AU
 TOP OF VALENCE BANDS -    BAND     99; K    1; EIG -2.4643059E-01 AU
 BOTTOM OF VIRTUAL BANDS - BAND    100; K    1; EIG -8.7127267E-02 AU
 INDIRECT ENERGY BAND GAP:   4.1576 eV
 TTTTTTTTTTTTTTTTTTTTTTTTTTTTTT PDIG        TELAPSE       93.16 TCPU     2604.98
 CHARGE NORMALIZATION FACTOR   1.00000000
 TOTAL ATOMIC CHARGES:
   4.4767550   4.5007080   4.5004925   4.5001344   4.5001687   4.4760498
   0.8736090   0.8738278   0.8798335   0.8800034   0.8719661   0.8719540
   0.8719932   0.8718551   0.8798409   0.8800552   0.8735315   0.8736582
   5.9209746   6.1630952   6.1632002   6.1702679   6.1706199   5.9220447
   5.9409762   6.1693734   6.1700756   6.1697476   6.1695329   5.9419863
   5.9211012   6.1700800   6.1709134   6.1631680   6.1633857   5.9218814
   8.4912449   8.4914575   8.4976360   8.4914435   8.4977362   8.4916217
 TTTTTTTTTTTTTTTTTTTTTTTTTTTTTT MOQGAD      TELAPSE       93.21 TCPU     2605.03
 TTTTTTTTTTTTTTTTTTTTTTTTTTTTTT SHELLXN     TELAPSE      101.88 TCPU     2881.71
 TTTTTTTTTTTTTTTTTTTTTTTTTTTTTT MONMO3      TELAPSE      102.04 TCPU     2886.61
 NUMERICALLY INTEGRATED DENSITY    198.0000160921
 TTTTTTTTTTTTTTTTTTTTTTTTTTTTTT NUMDFT      TELAPSE      102.65 TCPU     2906.04
 CYC   8 ETOT(AU) -1.289116083667E+03 DETOT -4.02E-07 tst  2.23E-08 PX  1.72E-04
 TTTTTTTTTTTTTTTTTTTTTTTTTTTTTT DIIS        TELAPSE      102.73 TCPU     2908.67
 DIIS TEST: 0.47467E-06 AT SCF   CYCLE   8 - DIIS ACTIVE - HISTORY:     8 CYCLES
 TTTTTTTTTTTTTTTTTTTTTTTTTTTTTT FDIK        TELAPSE      103.22 TCPU     2924.34
 INSULATING STATE
 TOP OF VALENCE BANDS -    BAND     99; K   17; EIG -2.3991824E-01 AU
 TOP OF VALENCE BANDS -    BAND     99; K    1; EIG -2.4643474E-01 AU
 BOTTOM OF VIRTUAL BANDS - BAND    100; K    1; EIG -8.7130126E-02 AU
 INDIRECT ENERGY BAND GAP:   4.1576 eV
 TTTTTTTTTTTTTTTTTTTTTTTTTTTTTT PDIG        TELAPSE      103.52 TCPU     2930.50
 CHARGE NORMALIZATION FACTOR   1.00000000
 TOTAL ATOMIC CHARGES:
   4.4768281   4.5006902   4.5004736   4.5000996   4.5001356   4.4761116
   0.8735928   0.8738163   0.8798206   0.8800102   0.8719593   0.8719544
   0.8719826   0.8718594   0.8798340   0.8800562   0.8735170   0.8736450
   5.9210871   6.1631243   6.1631872   6.1704262   6.1705384   5.9218042
   5.9411273   6.1693977   6.1700219   6.1697884   6.1694611   5.9418965
   5.9211719   6.1702080   6.1708629   6.1631883   6.1633804   5.9216828
   8.4911506   8.4913657   8.4978979   8.4913525   8.4979603   8.4915319
 TTTTTTTTTTTTTTTTTTTTTTTTTTTTTT MOQGAD      TELAPSE      103.57 TCPU     2930.55
 TTTTTTTTTTTTTTTTTTTTTTTTTTTTTT SHELLXN     TELAPSE      112.24 TCPU     3207.04
 +++ ENERGIES IN A.U. +++
 ::: EXT EL-POLE                                  -1.3917827777451E+03
 ::: EXT EL-SPHEROPOLE                             1.5493464924961E+01
 ::: BIELET ZONE E-E                               2.2092046997367E+03
 ::: TOTAL E-E                                     8.3291538691652E+02
 ::: TOTAL E-N + N-E                              -3.4929631194405E+03
 ::: TOTAL N-N                                     2.2472925597077E+02
 ::: KINETIC ENERGY                                1.2799155549435E+03
 ::: PSEUDO TOTAL   ENERGY                        -1.1554029216097E+03
 ::: VIRIAL COEFFICIENT                            1.0511278646028E+00
 TTTTTTTTTTTTTTTTTTTTTTTTTTTTTT MONMO3      TELAPSE      112.39 TCPU     3211.93
 NUMERICALLY INTEGRATED DENSITY    198.0000160921
 EXCHANGE ENERGY: -0.126020030982E+03  CORRELATION ENERGY: -0.769313117293E+01
 TTTTTTTTTTTTTTTTTTTTTTTTTTTTTT NUMDFT      TELAPSE      113.00 TCPU     3231.40
 CYC   9 ETOT(AU) -1.289116083765E+03 DETOT -9.78E-08 tst  1.40E-09 PX  1.72E-04

 == SCF ENDED - CONVERGENCE ON ENERGY      E(AU) -1.2891160837650E+03 CYCLES   9


 ENERGY EXPRESSION=HARTREE+FOCK EXCH*0.00000+(HSESOL     EXCH)*1.00000+PBESOL     CORR


 TOTAL ENERGY(DFT)(AU)(  9) -1.2891160837650E+03 DE-9.8E-08 tester 1.4E-09
 TTTTTTTTTTTTTTTTTTTTTTTTTTTTTT EDFT        TELAPSE      113.00 TCPU     3231.41
 
 INFORMATION **** DFTD3 ENERGY **** CALCULATE DFTD3 ENERGY

           DFT-D V3(BJ)
 DF                                         hsesol3c  
 parameters
 s6       :    1.0000
 s8       :    0.0000
 a1       :    0.5196
 a2       :    4.9385
 k1 k3    :   16.0000   -4.0000
 Cutoff   :   50.2022
 CN-Cutoff:   21.1671
 ABC-Cutoff:   21.1671
 
 Edisp /kcal,au:   -27.2437 -0.04341552

 E6    /kcal :   -28.9866
 E8    /kcal :     0.0000
 E6(ABC) "   :   1.742982
 
 INFORMATION **** DFTD3 ENERGY **** NORMAL TERMINATION OF DFTD3 MODULE

 GCP ENERGY CALCULATION
  level        hsesol3c            basis:hsesol3c
  Nbf            474
  Atoms           42

  Parameters: 
  sigma     1.0000
  eta       1.4281
  alpha     0.2936
  beta      1.9467

  dmp_scal      4.0000
  dmp_exp       6.0000
 cutoffs: 
   distance [bohr] 60.0
   noise    [a.u.] 2.2E-16
 SR-damping   T
 ** gCP correction **
  Egcp:        0.0831211160 / (a.u.) ||      52.1593 / (kcal/mol)
 INFORMATION **** GCP **** NORMAL TERMINATION OF GCP MODULE

 *******************************************************************************

 DFT-D3-GCP DISPERSION AND COUNTERPOISE CORRECTION

 D3 DISPERSION ENERGY (AU)      -4.3415520047835E-02
 GCP ENERGY (AU)                 8.3121116022397E-02
 TOTAL ENERGY + DISP + GCP (AU) -1.2890763781690E+03

 *******************************************************************************

 EIGENVECTORS IN FORTRAN UNIT 10
 TTTTTTTTTTTTTTTTTTTTTTTTTTTTTT END         TELAPSE      114.34 TCPU     3238.72
 EEEEEEEEEE TERMINATION  DATE 19 02 2026 TIME 18:50:26.3
