 Default number of threads is:           32

         
 *******************************************************************************
 *                                                                             *
 *                               CRYSTAL23                                     *
 *                      public : 1.0.1 - October 2022                          *
 *                       HTTP://WWW.CRYSTAL.UNITO.IT                           *
 *                                                                             *
 *                              MAIN AUTHORS                                   *
 *                                                                             *
 *  R. DOVESI(1,11), V.R. SAUNDERS(2), C. ROETTI(1,11), R. ORLANDO(1,11),      *
 *  C.M. ZICOVICH-WILSON(1,3), F. PASCALE(4), B. CIVALLERI(1,11),              *
 *  K. DOLL(5), N.M. HARRISON(6), I.J. BUSH(7), Ph. D'ARCO(8),                 *
 *  M. LLUNELL(9), M. CAUSA'(10), Y. NOEL(8), L. MASCHIO(1,11), A. ERBA(1,11)  *
 *  M. RE'RAT(14), S. CASASSA(1,11), B.G. SEARLE(2), J.K. DESMARAIS(1)         *
 *                                                                             *
 *        CONTRIBUTIONS TO THE CODE HAVE ALSO BEEN GIVEN BY                    *
 *                                                                             *
 *  M. FERRABONE(1,11), M. DE LA PIERRE(1,11), M. FERRERO(1,11),               *
 *  J. BAIMA(1,11), E. ALBANESE(1,11), M.F. PEINTINGER(12), R. BAST(13),       *
 *  B. KIRTMAN(15), V. LACIVITA(1,11), R. DEMICHELIS(1,16)                     *
 *  G. BRANDEBURG(17), S. SALUSTRO(1,11), G. SANSONE(1,11)                     *
 *  M.T. RUGGIERO(18), L.E. DAGA(1), L. DONA'(1), A. COSSARD(1)                *
 *                                                                             *
 * (1) THEORETICAL CHEMISTRY GROUP - UNIVERSITA' DI TORINO - TORINO (ITALY)    *
 * (2) SCIENTIFIC COMPUTING DEPARTMENT - STFC DARESBURY (UK)                   *
 * (3) UNIVERSIDAD AUTONOMA DEL ESTADO DE MORELOS - CUERNAVACA (MEXICO)        *
 * (4) UNIVERSITE' DE LORRAINE - NANCY (FRANCE)                                *
 * (5) UNIVERSITAET STUTTGART- STUTTGART (GERMANY)                             *
 * (6) IMPERIAL COLLEGE - LONDON (UK)                                          *
 * (7) SCIENTIFIC COMPUTING DEPARTMENT - STFC RAL (UK)                         *
 * (8) UPMC - SORBONNE UNIVERSITES - PARIS (FRANCE)                            *
 * (9) UNIVERSIDAD DE BARCELONA - BARCELONA (SPAIN)                            *
 *(10) UNIVERSITA' DI NAPOLI "FEDERICO II" - NAPOLI (ITALY)                    *
 *(11) NIS - NANOSTRUCTURED INTERFACES AND SURFACES - TORINO (ITALY)           *
 *(12) MPI FUER CHEMISCHE ENERGIEKONVERSION - MUELHEIM AN DER RUHR (GERMANY)   *
 *(13) UNIVERSITY OF TROMSO - TROMSO (NORWAY)                                  *
 *(14) UNIVERSITE' DE PAU ET DES PAYS DE L'ADOUR - PAU (FRANCE)                *
 *(15) UNIVERSITY OF CALIFORNIA SANTA BARBARA - SANTA BARBARA (USA)            *
 *(16) CURTIN UNIVERSITY - PERTH (AUSTRALIA)                                   *
 *(17) UNIVERSITY COLLEGE LONDON - LONDON (UK)                                 *
 *(18) UNIVERSITY OF VERMONT - BURLINGTON (USA)                                *
 *                                                                             *
 *******************************************************************************
 EEEEEEEEEE STARTING  DATE 19 02 2026 TIME 17:53:52.3
 cof-1_z31_L050_incl                                                             

 CRYSTAL CALCULATION
 (INPUT ACCORDING TO THE INTERNATIONAL TABLES FOR X-RAY CRYSTALLOGRAPHY)
 CRYSTAL FAMILY                       :  TRICLINIC   
 CRYSTAL CLASS  (GROTH - 1921)        :  TRICLINIC PEDIAL                     

 SPACE GROUP (NONCENTROSYMMETRIC)     :  P 1             

 LATTICE PARAMETERS  (ANGSTROMS AND DEGREES) - CONVENTIONAL CELL
        A           B           C        ALPHA        BETA       GAMMA
    15.02361    15.02392     5.88303    42.60278    89.99997   119.99596


 NUMBER OF IRREDUCIBLE ATOMS IN THE CONVENTIONAL CELL:   42

 INPUT COORDINATES

 ATOM AT. N.              COORDINATES
   1   5     5.173272400000E-01  3.459203000000E-02  5.015360800000E-01
   2   5     6.763829000000E-01  1.936516800000E-01  5.015361000000E-01
   3   5     5.179453700000E-01  1.948794000000E-01  4.982963900000E-01
   4   5     1.309019500000E-01  4.209070300000E-01  5.015360900000E-01
   5   5     2.900099200000E-01  4.208862600000E-01  5.015360800000E-01
   6   5     2.906126000000E-01  5.812703800000E-01  4.982963900000E-01
   7   1     8.079806800000E-01  1.187848400000E-01  4.948195300000E-01
   8   1     1.768910000000E-03  5.013029100000E-01  4.937924600000E-01
   9   1     8.081361600000E-01  4.043826400000E-01  4.936343900000E-01
  10   1     1.893350000000E-03  2.159800000000E-01  4.936738100000E-01
  11   1     5.939807800000E-01 -9.711885000000E-02  5.051709500000E-01
  12   1     2.116807700000E-01  7.089196400000E-01  5.061981000000E-01
  13   1     3.085906500000E-01 -9.752847000000E-02  5.063562700000E-01
  14   1     4.970405000000E-01  7.087841200000E-01  5.063165700000E-01
  15   1     5.960097900000E-01  4.039089800000E-01  4.948195900000E-01
  16   1     2.140962200000E-01  2.158588200000E-01  4.937923900000E-01
  17   1     3.110053400000E-01  1.191335100000E-01  4.936342600000E-01
  18   1     4.994480300000E-01  5.012529400000E-01  4.936739400000E-01
  19   6     7.961821800000E-01  2.545079800000E-01  4.981778400000E-01
  20   6     8.513958000000E-01  2.025796800000E-01  4.949775900000E-01
  21   6    -4.165207000000E-02  4.170855900000E-01  4.947011300000E-01
  22   6     8.512525200000E-01  3.632736600000E-01  4.955308100000E-01
  23   6    -4.136336000000E-02  2.566513000000E-01  4.933972500000E-01
  24   6     1.282872000000E-02  3.636019300000E-01  4.955702800000E-01
  25   6     4.576329800000E-01 -8.466401000000E-02  5.018126700000E-01
  26   6     5.101566000000E-01 -1.405062800000E-01  5.050128700000E-01
  27   6     2.957242900000E-01  7.524946600000E-01  5.052894400000E-01
  28   6     3.493725900000E-01 -1.402468300000E-01  5.044597800000E-01
  29   6     4.563920000000E-01  7.519540700000E-01  5.065931800000E-01
  30   6     3.490205200000E-01  6.981575800000E-01  5.044202200000E-01
  31   6     4.583367400000E-01  2.544388400000E-01  4.981778400000E-01
  32   6     5.121169000000E-01  3.634198100000E-01  4.949776500000E-01
  33   6     2.977831900000E-01  2.560723400000E-01  4.947010700000E-01
  34   6     3.510876900000E-01  2.022714900000E-01  4.955307200000E-01
  35   6     4.589532500000E-01  4.174993000000E-01  4.933973300000E-01
  36   6     3.507528100000E-01  3.635245300000E-01  4.955702800000E-01
  37   8     4.648387900000E-01  8.855536000000E-02  4.991655600000E-01
  38   8     6.224707000000E-01  8.593657000000E-02  5.060005600000E-01
  39   8     6.244494700000E-01  2.488442000000E-01  4.956888400000E-01
  40   8     1.844266200000E-01  5.278358300000E-01  4.991656000000E-01
  41   8     1.831329700000E-01  3.662538500000E-01  5.060005600000E-01
  42   8     3.440339000000E-01  5.291561700000E-01  4.956888100000E-01

 *******************************************************************************

 << INFORMATION >>: FROM NOW ON, ALL COORDINATES REFER TO THE PRIMITIVE CELL

 *******************************************************************************

 LATTICE PARAMETERS  (ANGSTROMS AND DEGREES) - PRIMITIVE CELL
       A          B          C        ALPHA      BETA     GAMMA        VOLUME
   15.02361   15.02392    5.88303    42.60278  89.99997 119.99596    605.998564

 COORDINATES OF THE EQUIVALENT ATOMS (FRACTIONAL UNITS)

 N. ATOM EQUIV AT. N.          X                  Y                  Z

   1   1   1    5 B    -4.82672760000E-01  3.45920300000E-02 -4.98463920000E-01

   2   2   1    5 B    -3.23617100000E-01  1.93651680000E-01 -4.98463900000E-01

   3   3   1    5 B    -4.82054630000E-01  1.94879400000E-01  4.98296390000E-01

   4   4   1    5 B     1.30901950000E-01  4.20907030000E-01 -4.98463910000E-01

   5   5   1    5 B     2.90009920000E-01  4.20886260000E-01 -4.98463920000E-01

   6   6   1    5 B     2.90612600000E-01 -4.18729620000E-01  4.98296390000E-01

   7   7   1    1 H    -1.92019320000E-01  1.18784840000E-01  4.94819530000E-01

   8   8   1    1 H     1.76891000000E-03 -4.98697090000E-01  4.93792460000E-01

   9   9   1    1 H    -1.91863840000E-01  4.04382640000E-01  4.93634390000E-01

  10  10   1    1 H     1.89335000000E-03  2.15980000000E-01  4.93673810000E-01

  11  11   1    1 H    -4.06019220000E-01 -9.71188500000E-02 -4.94829050000E-01

  12  12   1    1 H     2.11680770000E-01 -2.91080360000E-01 -4.93801900000E-01

  13  13   1    1 H     3.08590650000E-01 -9.75284700000E-02 -4.93643730000E-01

  14  14   1    1 H     4.97040500000E-01 -2.91215880000E-01 -4.93683430000E-01

  15  15   1    1 H    -4.03990210000E-01  4.03908980000E-01  4.94819590000E-01

  16  16   1    1 H     2.14096220000E-01  2.15858820000E-01  4.93792390000E-01

  17  17   1    1 H     3.11005340000E-01  1.19133510000E-01  4.93634260000E-01

  18  18   1    1 H     4.99448030000E-01 -4.98747060000E-01  4.93673940000E-01

  19  19   1    6 C    -2.03817820000E-01  2.54507980000E-01  4.98177840000E-01

  20  20   1    6 C    -1.48604200000E-01  2.02579680000E-01  4.94977590000E-01

  21  21   1    6 C    -4.16520700000E-02  4.17085590000E-01  4.94701130000E-01

  22  22   1    6 C    -1.48747480000E-01  3.63273660000E-01  4.95530810000E-01

  23  23   1    6 C    -4.13633600000E-02  2.56651300000E-01  4.93397250000E-01

  24  24   1    6 C     1.28287200000E-02  3.63601930000E-01  4.95570280000E-01

  25  25   1    6 C     4.57632980000E-01 -8.46640100000E-02 -4.98187330000E-01

  26  26   1    6 C    -4.89843400000E-01 -1.40506280000E-01 -4.94987130000E-01

  27  27   1    6 C     2.95724290000E-01 -2.47505340000E-01 -4.94710560000E-01

  28  28   1    6 C     3.49372590000E-01 -1.40246830000E-01 -4.95540220000E-01

  29  29   1    6 C     4.56392000000E-01 -2.48045930000E-01 -4.93406820000E-01

  30  30   1    6 C     3.49020520000E-01 -3.01842420000E-01 -4.95579780000E-01

  31  31   1    6 C     4.58336740000E-01  2.54438840000E-01  4.98177840000E-01

  32  32   1    6 C    -4.87883100000E-01  3.63419810000E-01  4.94977650000E-01

  33  33   1    6 C     2.97783190000E-01  2.56072340000E-01  4.94701070000E-01

  34  34   1    6 C     3.51087690000E-01  2.02271490000E-01  4.95530720000E-01

  35  35   1    6 C     4.58953250000E-01  4.17499300000E-01  4.93397330000E-01

  36  36   1    6 C     3.50752810000E-01  3.63524530000E-01  4.95570280000E-01

  37  37   1    8 O     4.64838790000E-01  8.85553600000E-02  4.99165560000E-01

  38  38   1    8 O    -3.77529300000E-01  8.59365700000E-02 -4.93999440000E-01

  39  39   1    8 O    -3.75550530000E-01  2.48844200000E-01  4.95688840000E-01

  40  40   1    8 O     1.84426620000E-01 -4.72164170000E-01  4.99165600000E-01

  41  41   1    8 O     1.83132970000E-01  3.66253850000E-01 -4.93999440000E-01

  42  42   1    8 O     3.44033900000E-01 -4.70843830000E-01  4.95688810000E-01

 NUMBER OF SYMMETRY OPERATORS         :    1
 *******************************************************************************
 * GEOMETRY EDITING - INPUT COORDINATES ARE GIVEN IN ANGSTROM         
 *******************************************************************************

 GCALCO - MAX INDICES DIRECT LATTICE VECTOR     8    13    29
 NO.OF VECTORS CREATED 6999 STARS 3500 RMAX   193.41194 BOHR

 GEOMETRY FOR WAVE FUNCTION - DIMENSIONALITY OF THE SYSTEM    3
 (NON PERIODIC DIRECTION: LATTICE PARAMETER FORMALLY SET TO 500)
 *******************************************************************************
 LATTICE PARAMETERS (ANGSTROMS AND DEGREES) - BOHR = 0.5291772083 ANGSTROM
 PRIMITIVE CELL - CENTRING CODE 1/0 VOLUME=   605.998564 - DENSITY  1.069 g/cm^3
         A              B              C           ALPHA      BETA       GAMMA 
    15.02361100    15.02391600     5.88302600    42.602777  89.999970 119.995964
 *******************************************************************************
 ATOMS IN THE ASYMMETRIC UNIT   42 - ATOMS IN THE UNIT CELL:   42
     ATOM                 X/A                 Y/B                 Z/C    
 *******************************************************************************
      1 T   5 B    -4.826727600000E-01  3.459203000000E-02 -4.984639200000E-01
      2 T   5 B    -3.236171000000E-01  1.936516800000E-01 -4.984639000000E-01
      3 T   5 B    -4.820546300000E-01  1.948794000000E-01  4.982963900000E-01
      4 T   5 B     1.309019500000E-01  4.209070300000E-01 -4.984639100000E-01
      5 T   5 B     2.900099200000E-01  4.208862600000E-01 -4.984639200000E-01
      6 T   5 B     2.906126000000E-01 -4.187296200000E-01  4.982963900000E-01
      7 T   1 H    -1.920193200000E-01  1.187848400000E-01  4.948195300000E-01
      8 T   1 H     1.768910000000E-03 -4.986970900000E-01  4.937924600000E-01
      9 T   1 H    -1.918638400000E-01  4.043826400000E-01  4.936343900000E-01
     10 T   1 H     1.893350000000E-03  2.159800000000E-01  4.936738100000E-01
     11 T   1 H    -4.060192200000E-01 -9.711885000000E-02 -4.948290500000E-01
     12 T   1 H     2.116807700000E-01 -2.910803600000E-01 -4.938019000000E-01
     13 T   1 H     3.085906500000E-01 -9.752847000000E-02 -4.936437300000E-01
     14 T   1 H     4.970405000000E-01 -2.912158800000E-01 -4.936834300000E-01
     15 T   1 H    -4.039902100000E-01  4.039089800000E-01  4.948195900000E-01
     16 T   1 H     2.140962200000E-01  2.158588200000E-01  4.937923900000E-01
     17 T   1 H     3.110053400000E-01  1.191335100000E-01  4.936342600000E-01
     18 T   1 H     4.994480300000E-01 -4.987470600000E-01  4.936739400000E-01
     19 T   6 C    -2.038178200000E-01  2.545079800000E-01  4.981778400000E-01
     20 T   6 C    -1.486042000000E-01  2.025796800000E-01  4.949775900000E-01
     21 T   6 C    -4.165207000000E-02  4.170855900000E-01  4.947011300000E-01
     22 T   6 C    -1.487474800000E-01  3.632736600000E-01  4.955308100000E-01
     23 T   6 C    -4.136336000000E-02  2.566513000000E-01  4.933972500000E-01
     24 T   6 C     1.282872000000E-02  3.636019300000E-01  4.955702800000E-01
     25 T   6 C     4.576329800000E-01 -8.466401000000E-02 -4.981873300000E-01
     26 T   6 C    -4.898434000000E-01 -1.405062800000E-01 -4.949871300000E-01
     27 T   6 C     2.957242900000E-01 -2.475053400000E-01 -4.947105600000E-01
     28 T   6 C     3.493725900000E-01 -1.402468300000E-01 -4.955402200000E-01
     29 T   6 C     4.563920000000E-01 -2.480459300000E-01 -4.934068200000E-01
     30 T   6 C     3.490205200000E-01 -3.018424200000E-01 -4.955797800000E-01
     31 T   6 C     4.583367400000E-01  2.544388400000E-01  4.981778400000E-01
     32 T   6 C    -4.878831000000E-01  3.634198100000E-01  4.949776500000E-01
     33 T   6 C     2.977831900000E-01  2.560723400000E-01  4.947010700000E-01
     34 T   6 C     3.510876900000E-01  2.022714900000E-01  4.955307200000E-01
     35 T   6 C     4.589532500000E-01  4.174993000000E-01  4.933973300000E-01
     36 T   6 C     3.507528100000E-01  3.635245300000E-01  4.955702800000E-01
     37 T   8 O     4.648387900000E-01  8.855536000000E-02  4.991655600000E-01
     38 T   8 O    -3.775293000000E-01  8.593657000000E-02 -4.939994400000E-01
     39 T   8 O    -3.755505300000E-01  2.488442000000E-01  4.956888400000E-01
     40 T   8 O     1.844266200000E-01 -4.721641700000E-01  4.991656000000E-01
     41 T   8 O     1.831329700000E-01  3.662538500000E-01 -4.939994400000E-01
     42 T   8 O     3.440339000000E-01 -4.708438300000E-01  4.956888100000E-01

 T = ATOM BELONGING TO THE ASYMMETRIC UNIT

 ****    1 SYMMOPS - TRANSLATORS IN FRACTIONAL UNITS
 **** MATRICES AND TRANSLATORS IN THE CRYSTALLOGRAPHIC REFERENCE FRAME
   V INV                    ROTATION MATRICES                   TRANSLATORS
   1   1  1.00  0.00  0.00  0.00  1.00  0.00 -0.00  0.00  1.00  0.00  0.00  0.00

 DIRECT LATTICE VECTORS CARTESIAN COMPONENTS (ANGSTROM)
          X                    Y                    Z
   0.130113578931E+02  -0.751088897922E+01   0.000000000000E+00
   0.000000000000E+00   0.150239160000E+02   0.000000000000E+00
   0.249968824466E+01   0.433028529438E+01   0.310002949428E+01


 CARTESIAN COORDINATES - PRIMITIVE CELL
 *******************************************************************************
 *      ATOM          X(ANGSTROM)         Y(ANGSTROM)         Z(ANGSTROM)
 *******************************************************************************
    1     5 B     2.985437221593E+00  5.169260010483E+00 -4.645282348115E+00
    2     5 B    -5.456702259632E+00  3.181567787503E+00 -1.545252791834E+00
    3     5 B    -2.526911441832E+00 -1.987354632176E+00  4.644763000174E+00
    4     5 B     4.572077441336E-01  3.181990909662E+00 -1.545252822834E+00
    5     5 B     2.527418460444E+00  1.986636521245E+00 -1.545252853835E+00
    6     5 B     2.527161930610E+00  4.377678623324E+00 -1.555295988387E+00
    7     1 H    -3.761225777193E+00  1.039273692367E+00 -1.566074356934E+00
    8     1 H    -1.242345116007E+00  5.326223657403E+00 -1.569258304227E+00
    9     1 H     1.237211237530E+00 -1.039574149211E+00  4.630310662672E+00
   10     1 H    -1.241022570641E+00  1.038107781312E+00 -1.569626122727E+00
   11     1 H    -4.020091497620E+00  3.777994176367E+00  1.566044844654E+00
   12     1 H    -9.797847917362E-01  2.592249959311E+00 -4.630829948612E+00
   13     1 H     5.280916205331E+00 -1.590382543362E+00  1.569719371614E+00
   14     1 H     2.733428921626E+00  4.474216759444E-01 -4.630462688118E+00
   15     1 H    -1.519878250587E+00  5.516994915013E-01  4.633984817628E+00
   16     1 H     1.520321329895E+00 -5.570315292395E-01 -1.569258521229E+00
   17     1 H     2.780845297614E+00 -2.738782851161E+00 -1.569748728893E+00
   18     1 H     5.232839767164E+00  1.586947069313E+00 -1.569625719723E+00
   19     6 C    -3.906345555266E+00  3.181526411011E+00 -1.555663496884E+00
   20     6 C    -3.195941012179E+00  1.972798628314E+00 -1.565584366273E+00
   21     6 C    -1.805039635137E+00  4.391014676465E+00 -1.566441400427E+00
   22     6 C     1.802954087317E+00 -1.972822165087E+00  4.636189620605E+00
   23     6 C    -1.804542419508E+00  1.972848738838E+00 -1.570483466884E+00
   24     6 C    -1.093997974112E+00  3.182045163526E+00 -1.563747009792E+00
   25     6 C     2.209425229343E+00  3.827121956196E+00 -4.644424910957E+00
   26     6 C     2.900828349323E+00  2.607511082859E+00 -4.634504196570E+00
   27     6 C     1.114641588556E-01  2.611741094311E+00 -4.633646821412E+00
   28     6 C     8.074274991606E-01  3.816644849115E+00 -4.636218791883E+00
   29     6 C     2.205228179076E+00  1.402507549356E+00 -4.629605188960E+00
   30     6 C     8.027477027203E-01  1.391319331582E+00 -4.636341429049E+00
   31     6 C     4.709184405414E+00 -1.792881729783E+00 -1.555663496884E+00
   32     6 C    -2.611043566336E+00  5.741882303409E-01  4.634474808290E+00
   33     6 C     2.611473864265E+00 -5.774956797309E-01 -1.566441586428E+00
   34     6 C     3.307111657427E+00 -1.782566691258E+00 -1.563869646958E+00
   35     6 C     4.705256253018E+00  6.315934138611E-01 -1.570483218881E+00
   36     6 C     3.302853301563E+00  6.427719890346E-01 -1.563747009792E+00
   37     8 O    -3.215727506657E+00 -3.182116697401E+00  4.647457452809E+00
   38     8 O    -6.147013430453E+00  1.987525957243E+00 -1.531412834158E+00
   39     8 O    -1.147666541737E+00 -1.987823916369E+00  4.636679518266E+00
   40     8 O     1.147710895624E+00  4.376197466836E+00 -1.552601411750E+00
   41     8 O     1.147964021651E+00  1.987917160506E+00 -1.531412834158E+00
   42     8 O     3.215727446949E+00  3.182186091124E+00 -1.563379563296E+00

 *******************************************************************************
 STARTING BASIS SET HANDLING 
 *******************************************************************************

 Loading internal basis set: SOLDEF2MSVP         

 Please cite in your publication:
 L. Dona', J. G. Brandenburg and B. Civalleri, J. Chem. Phys., 151, 121101 (2019
 )                                                                              
                                                                                
                    

 *******************************************************************************
 LOCAL ATOMIC FUNCTIONS BASIS SET
 *******************************************************************************
   ATOM   X(AU)   Y(AU)   Z(AU)  N. TYPE  EXPONENT  S COEF   P COEF   D/F/G COEF
 *******************************************************************************
   1 B    5.642   9.768  -8.778
                                  1 S  
                                         2.410E+03 1.755E-03 0.000E+00 0.000E+00
                                         3.619E+02 1.344E-02 0.000E+00 0.000E+00
                                         8.231E+01 6.637E-02 0.000E+00 0.000E+00
                                         2.311E+01 2.303E-01 0.000E+00 0.000E+00
                                         7.252E+00 5.150E-01 0.000E+00 0.000E+00
                                  2 S  
                                         2.367E+00 1.000E+00 0.000E+00 0.000E+00
                                  3 S  
                                         5.533E-01 1.000E+00 0.000E+00 0.000E+00
                                  4 S  
                                         1.716E-01 1.000E+00 0.000E+00 0.000E+00
                           5-     7 P  
                                         6.002E+00 0.000E+00-3.555E-02 0.000E+00
                                         1.240E+00 0.000E+00-1.983E-01 0.000E+00
                                         3.367E-01 0.000E+00-5.048E-01 0.000E+00
                           8-    10 P  
                                         1.256E-01 0.000E+00 1.000E+00 0.000E+00
                          11-    15 D  
                                         8.880E-01 0.000E+00 0.000E+00 1.000E+00
   2 B  -10.312   6.012  -2.920
   3 B   -4.775  -3.756   8.777
   4 B    0.864   6.013  -2.920
   5 B    4.776   3.754  -2.920
   6 B    4.776   8.273  -2.939
   7 H   -7.108   1.964  -2.959
                                 91 S  
                                         1.874E+01 1.968E-02 0.000E+00 0.000E+00
                                         2.826E+00 1.380E-01 0.000E+00 0.000E+00
                                         6.401E-01 4.783E-01 0.000E+00 0.000E+00
                                 92 S  
                                         1.756E-01 1.000E+00 0.000E+00 0.000E+00
   8 H   -2.348  10.065  -2.965
   9 H    2.338  -1.965   8.750
  10 H   -2.345   1.962  -2.966
  11 H   -7.597   7.139   2.959
  12 H   -1.852   4.899  -8.751
  13 H    9.979  -3.005   2.966
  14 H    5.165   0.846  -8.750
  15 H   -2.872   1.043   8.757
  16 H    2.873  -1.053  -2.965
  17 H    5.255  -5.176  -2.966
  18 H    9.889   2.999  -2.966
  19 C   -7.382   6.012  -2.940
                                115 S  
                                         3.624E+03 1.634E-03 0.000E+00 0.000E+00
                                         5.440E+02 1.252E-02 0.000E+00 0.000E+00
                                         1.237E+02 6.211E-02 0.000E+00 0.000E+00
                                         3.476E+01 2.182E-01 0.000E+00 0.000E+00
                                         1.093E+01 4.980E-01 0.000E+00 0.000E+00
                                116 S  
                                         3.574E+00 1.000E+00 0.000E+00 0.000E+00
                                117 S  
                                         7.742E-01 1.000E+00 0.000E+00 0.000E+00
                                118 S  
                                         2.330E-01 1.000E+00 0.000E+00 0.000E+00
                         119-   121 P  
                                         9.443E+00 0.000E+00 3.790E-02 0.000E+00
                                         2.002E+00 0.000E+00 2.082E-01 0.000E+00
                                         5.463E-01 0.000E+00 5.047E-01 0.000E+00
                         122-   124 P  
                                         1.820E-01 0.000E+00 1.000E+00 0.000E+00
                         125-   129 D  
                                         8.880E-01 0.000E+00 0.000E+00 1.000E+00
  20 C   -6.039   3.728  -2.959
  21 C   -3.411   8.298  -2.960
  22 C    3.407  -3.728   8.761
  23 C   -3.410   3.728  -2.968
  24 C   -2.067   6.013  -2.955
  25 C    4.175   7.232  -8.777
  26 C    5.482   4.927  -8.758
  27 C    0.211   4.935  -8.756
  28 C    1.526   7.212  -8.761
  29 C    4.167   2.650  -8.749
  30 C    1.517   2.629  -8.761
  31 C    8.899  -3.388  -2.940
  32 C   -4.934   1.085   8.758
  33 C    4.935  -1.091  -2.960
  34 C    6.250  -3.369  -2.955
  35 C    8.892   1.194  -2.968
  36 C    6.241   1.215  -2.955
  37 O   -6.077  -6.013   8.782
                                385 S  
                                         6.773E+03 1.727E-03 0.000E+00 0.000E+00
                                         1.017E+03 1.325E-02 0.000E+00 0.000E+00
                                         2.313E+02 6.603E-02 0.000E+00 0.000E+00
                                         6.501E+01 2.353E-01 0.000E+00 0.000E+00
                                         2.050E+01 5.498E-01 0.000E+00 0.000E+00
                                386 S  
                                         6.716E+00 1.000E+00 0.000E+00 0.000E+00
                                387 S  
                                         1.147E+00 1.000E+00 0.000E+00 0.000E+00
                                388 S  
                                         3.342E-01 1.000E+00 0.000E+00 0.000E+00
                         389-   391 P  
                                         1.769E+01 0.000E+00 4.359E-02 0.000E+00
                                         3.854E+00 0.000E+00 2.318E-01 0.000E+00
                                         1.047E+00 0.000E+00 5.146E-01 0.000E+00
                         392-   394 P  
                                         2.759E-01 0.000E+00 1.000E+00 0.000E+00
                         395-   399 D  
                                         8.000E-01 0.000E+00 0.000E+00 1.000E+00
  38 O  -11.616   3.756  -2.894
  39 O   -2.169  -3.756   8.762
  40 O    2.169   8.270  -2.934
  41 O    2.169   3.757  -2.894
  42 O    6.077   6.013  -2.954

 *******************************************************************************
 FINISHED BASIS SET HANDLING 
 *******************************************************************************

 INFORMATION **** SET_MPP **** PCRYSTAL CALCULATION
 INFORMATION **** READM2 **** NEW DEFAULT: FOCK/KS MATRIX MIXING SET TO 30 %
 INFORMATION **** READM2 **** NEW DEFAULT: FULL DIRECT SCF MODE
 INFORMATION **** READM2 **** NEW DEFAULT: COULOMB BIPOLAR BUFFER SET TO 32 Mb
 INFORMATION **** READM2 **** NEW DEFAULT: EXCHANGE BIPOLAR BUFFER SET TO 32 Mb

 *******************************************************************************
 NEW DEFAULT: DFT INTEGRATION GRID INCREASED TO XLGRID
 NEW DEFAULT: DIIS ACCELERATOR ACTIVE
 USE KEYWORD NODIIS TO TURN IT OFF
 *******************************************************************************

 WARNING **** RDDFTP **** HSEsol-HJS ACTIVE
 RANGE SEPARATION - OMEGA:   0.110000000000000     
 WARNING **** RDDFTP **** HSEsol-3c has to be combined with sol-def2-mSVP basis set
 *******************************************************************************
 N. OF ATOMS PER CELL        42  COULOMB OVERLAP TOL         (T1) 10**   -6
 NUMBER OF SHELLS           234  COULOMB PENETRATION TOL     (T2) 10**   -6
 NUMBER OF AO               474  EXCHANGE OVERLAP TOL        (T3) 10**   -6
 N. OF ELECTRONS PER CELL   198  EXCHANGE PSEUDO OVP (F(G))  (T4) 10**   -6
 CORE ELECTRONS PER CELL     60  EXCHANGE PSEUDO OVP (P(G))  (T5) 10**  -12
 N. OF SYMMETRY OPERATORS     1  POLE ORDER IN MONO ZONE                  4
 *******************************************************************************
 TYPE OF CALCULATION :  RESTRICTED CLOSED SHELL
 KOHN-SHAM HAMILTONIAN

 (EXCHANGE)[CORRELATION] FUNCTIONAL:(HSEsol GGA)[PBEsol]

 RANGE-SEPARATED HYBRID FUNCTIONAL 
 OMEGA (SHORT-RANGE)[LONG-RANGE]:(    0.1100)[    0.0000]

 HYBRID EXCHANGE - PERCENTAGE OF FOCK EXCHANGE    25.0000

 CAPPA:IS1  2;IS2  2;IS3  8; K PTS MONK NET  20; SYMMOPS:K SPACE   2;G SPACE   1

 *******************************************************************************
 MAX NUMBER OF SCF CYCLES      50  CONVERGENCE ON DELTAP        10**-16
 WEIGHT OF F(I) IN F(I+1)      30% CONVERGENCE ON ENERGY        10**- 6
 SHRINK. FACT.(MONKH.)    2  2  8  NUMBER OF K POINTS IN THE IBZ     20
 SHRINKING FACTOR(GILAT NET)    8  NUMBER OF K POINTS(GILAT NET)   1028
 *******************************************************************************
 *** K POINTS COORDINATES (OBLIQUE COORDINATES IN UNITS OF IS =  2)
   1-R(  0  0  0)   2-R(  1  0  0)   3-R(  0  1  0)   4-R(  1  1  0)
   5-C(  0  0  1)   6-C(  1  0  1)   7-C(  0  1  1)   8-C(  1  1  1)
   9-C(  0  0  2)  10-C(  1  0  2)  11-C(  0  1  2)  12-C(  1  1  2)
  13-C(  0  0  3)  14-C(  1  0  3)  15-C(  0  1  3)  16-C(  1  1  3)
  17-R(  0  0  4)  18-R(  1  0  4)  19-R(  0  1  4)  20-R(  1  1  4)

 DIRECT LATTICE VECTORS COMPON. (A.U.)     RECIP. LATTICE VECTORS COMPON. (A.U.) 
        X            Y            Z              X            Y            Z
   24.5879030  -14.1935232    0.0000000      0.2555397    0.0000000   -0.2060527
    0.0000000   28.3910867    0.0000000      0.1277517    0.2213084   -0.4121470
    4.7237262    8.1830533    5.8582068      0.0000000    0.0000000    1.0725441

 DISK SPACE FOR EIGENVECTORS (FTN 10)     7189632 REALS

 SYMMETRY ADAPTION OF THE BLOCH FUNCTIONS DISABLED
 TTTTTTTTTTTTTTTTTTTTTTTTTTTTTT gordsh1     TELAPSE        0.04 TCPU        0.04

 MATRIX SIZE: P(G)  386530, F(G)   75276, P(G) IRR  194456, F(G) IRR   75900
 MAX G-VECTOR INDEX FOR 1- AND 2-ELECTRON INTEGRALS  77

 TTTTTTTTTTTTTTTTTTTTTTTTTTTTTT INPUT       TELAPSE        0.42 TCPU        0.41

 NEIGHBORS OF THE NON-EQUIVALENT ATOMS

 N = NUMBER OF NEIGHBORS AT DISTANCE R
    ATOM  N     R/ANG      R/AU   NEIGHBORS (ATOM LABELS AND CELL INDICES)
   1 B    1     1.3791     2.6061   37 O    1 2-3
   1 B    1     1.3793     2.6065   38 O    1 1-1
   1 B    1     1.5503     2.9297   25 C    0 0 0
   1 B    1     2.3895     4.5155    3 B    1 2-3
   1 B    1     2.3898     4.5160    2 B    1 1-1
   1 B    1     2.5632     4.8437   26 C    0 0 0

   2 B    1     1.3793     2.6065   39 O    0 1-2
   2 B    1     1.3793     2.6065   38 O    0 0 0
   2 B    1     1.5504     2.9298   19 C    0 0 0
   2 B    1     2.3895     4.5156    3 B    0 1-2
   2 B    1     2.3898     4.5160    1 B   -1-1 1
   2 B    1     2.5634     4.8440   22 C    0 1-2

   3 B    1     1.3791     2.6061   37 O    0 0 0
   3 B    1     1.3793     2.6064   39 O    0 0 0
   3 B    1     1.5502     2.9294   31 C   -1-1 2
   3 B    1     2.3895     4.5155    1 B   -1-2 3
   3 B    1     2.3895     4.5156    2 B    0-1 2
   3 B    1     2.5629     4.8433   32 C    0 0 0

   4 B    1     1.3795     2.6068   40 O    0 0 0
   4 B    1     1.3795     2.6070   41 O    0 0 0
   4 B    1     1.5513     2.9316   24 C    0 0 0
   4 B    1     2.3905     4.5174    6 B    0 0 0
   4 B    1     2.3905     4.5175    5 B    0 0 0
   4 B    1     2.5648     4.8468   23 C    0 0 0

   5 B    1     1.3795     2.6069   41 O    0 0 0
   5 B    1     1.3797     2.6072   42 O    0 0 0
   5 B    1     1.5516     2.9322   36 C    0 0 0
   5 B    1     2.3905     4.5175    4 B    0 0 0
   5 B    1     2.3911     4.5185    6 B    0 0 0
   5 B    1     2.5651     4.8473   35 C    0 0 0

   6 B    1     1.3795     2.6068   40 O    0 0 0
   6 B    1     1.3796     2.6071   42 O    0 0 0
   6 B    1     1.5516     2.9322   30 C    0 0 1
   6 B    1     2.3905     4.5174    4 B    0 0 0
   6 B    1     2.3911     4.5185    5 B    0 0 0
   6 B    1     2.5651     4.8473   29 C    0 0 1

   7 H    1     1.0913     2.0623   20 C    0 0 0
   7 H    1     2.1472     4.0576   19 C    0 0 0
   7 H    1     2.1680     4.0969   23 C    0 0 0
   7 H    1     2.5202     4.7625   10 H    0 0 0
   7 H    1     2.5676     4.8520   38 O    0 0 0
   7 H    1     2.7321     5.1630    2 B    0 0 0

   8 H    1     1.0914     2.0625   21 C    0 0 0
   8 H    1     2.1493     4.0616   24 C    0 0 0
   8 H    1     2.1666     4.0942   22 C    0 1-2
   8 H    1     2.5198     4.7618    9 H    0 1-2
   8 H    1     2.5720     4.8604   40 O    0 0 0
   8 H    1     2.7362     5.1707    4 B    0 0 0

   9 H    1     1.0914     2.0624   22 C    0 0 0
   9 H    1     2.1471     4.0575   19 C    0-1 2
   9 H    1     2.1680     4.0970   21 C    0-1 2
   9 H    1     2.5198     4.7618    8 H    0-1 2
   9 H    1     2.5665     4.8500   39 O    0 0 0
   9 H    1     2.7315     5.1618    2 B    0-1 2

  10 H    1     1.0915     2.0626   23 C    0 0 0
  10 H    1     2.1490     4.0610   24 C    0 0 0
  10 H    1     2.1669     4.0948   20 C    0 0 0
  10 H    1     2.5202     4.7625    7 H    0 0 0
  10 H    1     2.5712     4.8588   41 O    0 0 0
  10 H    1     2.7351     5.1686    4 B    0 0 0

  11 H    1     1.0913     2.0623   26 C   -1-1 2
  11 H    1     2.1469     4.0571   25 C   -1-1 2
  11 H    1     2.1680     4.0968   29 C   -1-1 2
  11 H    1     2.5198     4.7617   14 H   -1-1 2
  11 H    1     2.5670     4.8510   38 O    0 0 1
  11 H    1     2.7310     5.1609    1 B   -1-1 2

  12 H    1     1.0914     2.0625   27 C    0 0 0
  12 H    1     2.1493     4.0617   30 C    0 0 0
  12 H    1     2.1664     4.0939   28 C    0 0 0
  12 H    1     2.5192     4.7606   13 H    0 1-2
  12 H    1     2.5735     4.8632   40 O    0 0-1
  12 H    1     2.7371     5.1723    6 B    0 0-1

  13 H    1     1.0914     2.0624   28 C    0-1 2
  13 H    1     2.1475     4.0581   25 C    0-1 2
  13 H    1     2.1679     4.0967   27 C    0-1 2
  13 H    1     2.5192     4.7606   12 H    0-1 2
  13 H    1     2.5675     4.8519   37 O    1 1-1
  13 H    1     2.7328     5.1643    1 B    0-1 2

  14 H    1     1.0914     2.0625   29 C    0 0 0
  14 H    1     2.1491     4.0612   30 C    0 0 0
  14 H    1     2.1666     4.0942   26 C    0 0 0
  14 H    1     2.5198     4.7617   11 H    1 1-2
  14 H    1     2.5723     4.8609   42 O    0 0-1
  14 H    1     2.7355     5.1693    6 B    0 0-1

  15 H    1     1.0914     2.0624   32 C    0 0 0
  15 H    1     2.1475     4.0582   31 C   -1-1 2
  15 H    1     2.1678     4.0966   35 C   -1-1 2
  15 H    1     2.5200     4.7621   18 H   -1-1 2
  15 H    1     2.5667     4.8503   39 O    0 0 0
  15 H    1     2.7315     5.1618    3 B    0 0 0

  16 H    1     1.0913     2.0623   33 C    0 0 0
  16 H    1     2.1487     4.0605   36 C    0 0 0
  16 H    1     2.1667     4.0945   34 C    0 0 0
  16 H    1     2.5197     4.7616   17 H    0 0 0
  16 H    1     2.5723     4.8610   41 O    0 0 0
  16 H    1     2.7359     5.1701    5 B    0 0 0

  17 H    1     1.0915     2.0626   34 C    0 0 0
  17 H    1     2.1479     4.0589   31 C    0 0 0
  17 H    1     2.1679     4.0968   33 C    0 0 0
  17 H    1     2.5197     4.7616   16 H    0 0 0
  17 H    1     2.5677     4.8522   37 O    1 1-2
  17 H    1     2.7331     5.1648    3 B    1 1-2

  18 H    1     1.0914     2.0624   35 C    0 0 0
  18 H    1     2.1486     4.0602   36 C    0 0 0
  18 H    1     2.1668     4.0947   32 C    1 1-2
  18 H    1     2.5200     4.7621   15 H    1 1-2
  18 H    1     2.5717     4.8598   42 O    0 0 0
  18 H    1     2.7349     5.1682    5 B    0 0 0

  19 C    1     1.4020     2.6495   22 C    0 1-2
  19 C    1     1.4021     2.6495   20 C    0 0 0
  19 C    1     1.5504     2.9298    2 B    0 0 0
  19 C    1     2.1471     4.0575    9 H    0 1-2
  19 C    1     2.1472     4.0576    7 H    0 0 0
  19 C    1     2.4246     4.5817   21 C    0 0 0

  20 C    1     1.0913     2.0623    7 H    0 0 0
  20 C    1     1.3914     2.6294   23 C    0 0 0
  20 C    1     1.4021     2.6495   19 C    0 0 0
  20 C    1     2.1669     4.0948   10 H    0 0 0
  20 C    1     2.4177     4.5688   22 C    0 1-2
  20 C    1     2.4250     4.5825   24 C    0 0 0

  21 C    1     1.0914     2.0625    8 H    0 0 0
  21 C    1     1.3914     2.6293   22 C    0 1-2
  21 C    1     1.4026     2.6505   24 C    0 0 0
  21 C    1     2.1680     4.0970    9 H    0 1-2
  21 C    1     2.4182     4.5697   23 C    0 0 0
  21 C    1     2.4246     4.5817   19 C    0 0 0

  22 C    1     1.0914     2.0624    9 H    0 0 0
  22 C    1     1.3914     2.6293   21 C    0-1 2
  22 C    1     1.4020     2.6495   19 C    0-1 2
  22 C    1     2.1666     4.0942    8 H    0-1 2
  22 C    1     2.4177     4.5688   20 C    0-1 2
  22 C    1     2.4250     4.5826   24 C    0-1 2

  23 C    1     1.0915     2.0626   10 H    0 0 0
  23 C    1     1.3914     2.6294   20 C    0 0 0
  23 C    1     1.4025     2.6504   24 C    0 0 0
  23 C    1     2.1680     4.0969    7 H    0 0 0
  23 C    1     2.4182     4.5697   21 C    0 0 0
  23 C    1     2.4246     4.5818   19 C    0 0 0

  24 C    1     1.4025     2.6504   23 C    0 0 0
  24 C    1     1.4026     2.6505   21 C    0 0 0
  24 C    1     1.5513     2.9316    4 B    0 0 0
  24 C    1     2.1490     4.0610   10 H    0 0 0
  24 C    1     2.1493     4.0616    8 H    0 0 0
  24 C    1     2.4250     4.5825   20 C    0 0 0

  25 C    1     1.4020     2.6494   26 C    0 0 0
  25 C    1     1.4021     2.6495   28 C    0 0 0
  25 C    1     1.5503     2.9297    1 B    0 0 0
  25 C    1     2.1469     4.0571   11 H    1 1-2
  25 C    1     2.1475     4.0581   13 H    0 1-2
  25 C    1     2.4246     4.5818   27 C    0 0 0

  26 C    1     1.0913     2.0623   11 H    1 1-2
  26 C    1     1.3914     2.6293   29 C    0 0 0
  26 C    1     1.4020     2.6494   25 C    0 0 0
  26 C    1     2.1666     4.0942   14 H    0 0 0
  26 C    1     2.4175     4.5684   28 C    0 0 0
  26 C    1     2.4251     4.5828   30 C    0 0 0

  27 C    1     1.0914     2.0625   12 H    0 0 0
  27 C    1     1.3915     2.6295   28 C    0 0 0
  27 C    1     1.4026     2.6505   30 C    0 0 0
  27 C    1     2.1679     4.0967   13 H    0 1-2
  27 C    1     2.4179     4.5691   29 C    0 0 0
  27 C    1     2.4246     4.5818   25 C    0 0 0

  28 C    1     1.0914     2.0624   13 H    0 1-2
  28 C    1     1.3915     2.6295   27 C    0 0 0
  28 C    1     1.4021     2.6495   25 C    0 0 0
  28 C    1     2.1664     4.0939   12 H    0 0 0
  28 C    1     2.4175     4.5684   26 C    0 0 0
  28 C    1     2.4253     4.5832   30 C    0 0 0

  29 C    1     1.0914     2.0625   14 H    0 0 0
  29 C    1     1.3914     2.6293   26 C    0 0 0
  29 C    1     1.4025     2.6504   30 C    0 0 0
  29 C    1     2.1680     4.0968   11 H    1 1-2
  29 C    1     2.4179     4.5691   27 C    0 0 0
  29 C    1     2.4247     4.5819   25 C    0 0 0

  30 C    1     1.4025     2.6504   29 C    0 0 0
  30 C    1     1.4026     2.6505   27 C    0 0 0
  30 C    1     1.5516     2.9322    6 B    0 0-1
  30 C    1     2.1491     4.0612   14 H    0 0 0
  30 C    1     2.1493     4.0617   12 H    0 0 0
  30 C    1     2.4251     4.5828   26 C    0 0 0

  31 C    1     1.4021     2.6496   32 C    1 1-2
  31 C    1     1.4021     2.6497   34 C    0 0 0
  31 C    1     1.5502     2.9294    3 B    1 1-2
  31 C    1     2.1475     4.0582   15 H    1 1-2
  31 C    1     2.1479     4.0589   17 H    0 0 0
  31 C    1     2.4244     4.5814   33 C    0 0 0

  32 C    1     1.0914     2.0624   15 H    0 0 0
  32 C    1     1.3914     2.6293   35 C   -1-1 2
  32 C    1     1.4021     2.6496   31 C   -1-1 2
  32 C    1     2.1668     4.0947   18 H   -1-1 2
  32 C    1     2.4179     4.5692   34 C   -1-1 2
  32 C    1     2.4251     4.5827   36 C   -1-1 2

  33 C    1     1.0913     2.0623   16 H    0 0 0
  33 C    1     1.3914     2.6294   34 C    0 0 0
  33 C    1     1.4025     2.6504   36 C    0 0 0
  33 C    1     2.1679     4.0968   17 H    0 0 0
  33 C    1     2.4178     4.5690   35 C    0 0 0
  33 C    1     2.4244     4.5814   31 C    0 0 0

  34 C    1     1.0915     2.0626   17 H    0 0 0
  34 C    1     1.3914     2.6294   33 C    0 0 0
  34 C    1     1.4021     2.6497   31 C    0 0 0
  34 C    1     2.1667     4.0945   16 H    0 0 0
  34 C    1     2.4179     4.5692   32 C    1 1-2
  34 C    1     2.4253     4.5832   36 C    0 0 0

  35 C    1     1.0914     2.0624   18 H    0 0 0
  35 C    1     1.3914     2.6293   32 C    1 1-2
  35 C    1     1.4025     2.6503   36 C    0 0 0
  35 C    1     2.1678     4.0966   15 H    1 1-2
  35 C    1     2.4178     4.5690   33 C    0 0 0
  35 C    1     2.4245     4.5817   31 C    0 0 0

  36 C    1     1.4025     2.6503   35 C    0 0 0
  36 C    1     1.4025     2.6504   33 C    0 0 0
  36 C    1     1.5516     2.9322    5 B    0 0 0
  36 C    1     2.1486     4.0602   18 H    0 0 0
  36 C    1     2.1487     4.0605   16 H    0 0 0
  36 C    1     2.4251     4.5827   32 C    1 1-2

  37 O    1     1.3791     2.6061    1 B   -1-2 3
  37 O    1     1.3791     2.6061    3 B    0 0 0
  37 O    1     2.3880     4.5126   38 O    0-1 2
  37 O    1     2.3882     4.5130   39 O    0 0 0
  37 O    1     2.5383     4.7966   31 C   -1-1 2
  37 O    1     2.5384     4.7968   25 C   -1-2 3

  38 O    1     1.3793     2.6065    1 B   -1-1 1
  38 O    1     1.3793     2.6065    2 B    0 0 0
  38 O    1     2.3880     4.5126   37 O    0 1-2
  38 O    1     2.3882     4.5131   39 O    0 1-2
  38 O    1     2.5391     4.7981   19 C    0 0 0
  38 O    1     2.5395     4.7990   25 C   -1-1 1

  39 O    1     1.3793     2.6064    3 B    0 0 0
  39 O    1     1.3793     2.6065    2 B    0-1 2
  39 O    1     2.3882     4.5130   37 O    0 0 0
  39 O    1     2.3882     4.5131   38 O    0-1 2
  39 O    1     2.5390     4.7980   19 C    0-1 2
  39 O    1     2.5391     4.7982   31 C   -1-1 2

  40 O    1     1.3795     2.6068    6 B    0 0 0
  40 O    1     1.3795     2.6068    4 B    0 0 0
  40 O    1     2.3880     4.5126   42 O    0 0 0
  40 O    1     2.3884     4.5134   41 O    0 0 0
  40 O    1     2.5400     4.7998   24 C    0 0 0
  40 O    1     2.5403     4.8005   30 C    0 0 1

  41 O    1     1.3795     2.6069    5 B    0 0 0
  41 O    1     1.3795     2.6070    4 B    0 0 0
  41 O    1     2.3881     4.5128   42 O    0 0 0
  41 O    1     2.3884     4.5134   40 O    0 0 0
  41 O    1     2.5404     4.8006   24 C    0 0 0
  41 O    1     2.5405     4.8008   36 C    0 0 0

  42 O    1     1.3796     2.6071    6 B    0 0 0
  42 O    1     1.3797     2.6072    5 B    0 0 0
  42 O    1     2.3880     4.5126   40 O    0 0 0
  42 O    1     2.3881     4.5128   41 O    0 0 0
  42 O    1     2.5409     4.8016   36 C    0 0 0
  42 O    1     2.5410     4.8019   30 C    0 0 1


 SYMMETRY ALLOWED INTERNAL DEGREE(S) OF FREEDOM: 123
 TTTTTTTTTTTTTTTTTTTTTTTTTTTTTT SYMM        TELAPSE        0.42 TCPU        0.42
 TTTTTTTTTTTTTTTTTTTTTTTTTTTTTT INT_SCREEN  TELAPSE        0.46 TCPU        0.45

 DFT PARAMETERS

     ATOM       ELECTRONS   NET CHARGE   R(ANGSTROM)
   1   5  B       5.0000      0.0000     0.89000000
   7   1  H       1.0000      0.0000     1.11000000
  19   6  C       6.0000      0.0000     0.77000000
  37   8  O       8.0000      0.0000     0.74000000

 SIZE OF GRID=    1244190
 TTTTTTTTTTTTTTTTTTTTTTTTTTTTTT MAKE_GRID2  TELAPSE       11.77 TCPU       11.75
 BECKE WEIGHT FUNCTION
 RADSAFE =     2.00
 TOLERANCES - DENSITY:10**- 6; POTENTIAL:10**- 9; GRID WGT:10**-14

 RADIAL INTEGRATION  - INTERVALS (POINTS,UPPER LIMIT):            1( 75,  4.0*R)

 ANGULAR INTEGRATION - INTERVALS (ACCURACY LEVEL [N. POINTS] UPPER LIMIT):
  1(  4[  86]   0.2)  2(  8[ 194]   0.5)  3( 12[ 350]   0.9)  4( 16[ 974]   3.5)
  5( 12[ 350]9999.0)
 TTTTTTTTTTTTTTTTTTTTTTTTTTTTTT INT_CALC    TELAPSE       11.86 TCPU       11.85
 EEEEEEEEEE INT_CALC TERMINATION  DATE 19 02 2026 TIME 17:54:04.1

 *******************************************************************************
 cof-1_z31_L050_incl                                                             
 CRYSTAL - SCF - TYPE OF CALCULATION :  RESTRICTED CLOSED SHELL
 *******************************************************************************

 CAPPA:IS1  2;IS2  2;IS3  8; K PTS MONK NET  20; SYMMOPS:K SPACE   2;G SPACE   1

 TTTTTTTTTTTTTTTTTTTTTTTTTTTTTT SDIK        TELAPSE       12.64 TCPU       22.75

 AAAAAAAAAAAAAAAAAAAAAAAAAAAAAAAAAAAAAAAAAAAAAAAAAAAAAAAAAAAAAAAAAAAAAAAAAAAAAAA
         ATOMIC WAVEFUNCTION(S)


 NUCLEAR CHARGE  5.0  SYMMETRY SPECIES            S    P
 N. ELECTRONS    5.0  NUMBER OF PRIMITIVE GTOS    8    4
                      NUMBER OF CONTRACTED GTOS   4    2
                      NUMBER OF CLOSED SHELLS     2    0
                      OPEN SHELL OCCUPATION       0    1

  ZNUC  SCFIT    TOTAL HF ENERGY   KINETIC ENERGY   VIRIAL THEOREM ACCURACY
   5.0    11    -2.451164084E+01  2.462155050E+01 -1.995536038E+00  1.5E-06

 NUCLEAR CHARGE  1.0  SYMMETRY SPECIES            S
 N. ELECTRONS    1.0  NUMBER OF PRIMITIVE GTOS    4
                      NUMBER OF CONTRACTED GTOS   2
                      NUMBER OF CLOSED SHELLS     0
                      OPEN SHELL OCCUPATION       1

  ZNUC  SCFIT    TOTAL HF ENERGY   KINETIC ENERGY   VIRIAL THEOREM ACCURACY
   1.0     1    -4.977266687E-01  5.190767460E-01 -1.958869132E+00  0.0E+00

 NUCLEAR CHARGE  6.0  SYMMETRY SPECIES            S    P
 N. ELECTRONS    6.0  NUMBER OF PRIMITIVE GTOS    8    4
                      NUMBER OF CONTRACTED GTOS   4    2
                      NUMBER OF CLOSED SHELLS     2    0
                      OPEN SHELL OCCUPATION       0    2

  ZNUC  SCFIT    TOTAL HF ENERGY   KINETIC ENERGY   VIRIAL THEOREM ACCURACY
   6.0     9    -3.766704647E+01  3.775180683E+01 -1.997754800E+00  1.1E-06

 NUCLEAR CHARGE  8.0  SYMMETRY SPECIES            S    P
 N. ELECTRONS    8.0  NUMBER OF PRIMITIVE GTOS    8    4
                      NUMBER OF CONTRACTED GTOS   4    2
                      NUMBER OF CLOSED SHELLS     2    0
                      OPEN SHELL OCCUPATION       0    4

  ZNUC  SCFIT    TOTAL HF ENERGY   KINETIC ENERGY   VIRIAL THEOREM ACCURACY
   8.0    12    -7.477373220E+01  7.477365593E+01 -2.000001020E+00  3.8E-06

 AAAAAAAAAAAAAAAAAAAAAAAAAAAAAAAAAAAAAAAAAAAAAAAAAAAAAAAAAAAAAAAAAAAAAAAAAAAAAAA

 CHARGE NORMALIZATION FACTOR   1.00000000
 TOTAL ATOMIC CHARGES:
   5.0000000   5.0000000   5.0000000   5.0000000   5.0000000   5.0000000
   1.0000000   1.0000000   1.0000000   1.0000000   1.0000000   1.0000000
   1.0000000   1.0000000   1.0000000   1.0000000   1.0000000   1.0000000
   6.0000000   6.0000000   6.0000000   6.0000000   6.0000000   6.0000000
   6.0000000   6.0000000   6.0000000   6.0000000   6.0000000   6.0000000
   6.0000000   6.0000000   6.0000000   6.0000000   6.0000000   6.0000000
   8.0000000   8.0000000   8.0000000   8.0000000   8.0000000   8.0000000
 TTTTTTTTTTTTTTTTTTTTTTTTTTTTTT MOQGAD      TELAPSE       12.74 TCPU       25.33
 TTTTTTTTTTTTTTTTTTTTTTTTTTTTTT SHELLXN     TELAPSE       24.49 TCPU      399.35
 TTTTTTTTTTTTTTTTTTTTTTTTTTTTTT MONMO3      TELAPSE       24.67 TCPU      405.08
 NUMERICALLY INTEGRATED DENSITY    198.0000433136
 TTTTTTTTTTTTTTTTTTTTTTTTTTTTTT NUMDFT      TELAPSE       25.43 TCPU      429.31
 CYC   0 ETOT(AU) -1.296018141545E+03 DETOT -1.30E+03 tst  0.00E+00 PX  1.00E+00
 TTTTTTTTTTTTTTTTTTTTTTTTTTTTTT DIIS        TELAPSE       25.47 TCPU      430.63
 TTTTTTTTTTTTTTTTTTTTTTTTTTTTTT FDIK        TELAPSE       25.98 TCPU      446.86
 INSULATING STATE
 TOP OF VALENCE BANDS -    BAND     99; K    1; EIG -3.0548349E-01 AU
 BOTTOM OF VIRTUAL BANDS - BAND    100; K   17; EIG -1.8406866E-01 AU
 INDIRECT ENERGY BAND GAP:   3.3039 eV
 BOTTOM OF VIRTUAL BANDS - BAND    100; K    1; EIG -1.5834281E-01 AU
 TTTTTTTTTTTTTTTTTTTTTTTTTTTTTT PDIG        TELAPSE       26.32 TCPU      453.05
 CHARGE NORMALIZATION FACTOR   1.00000000
 TOTAL ATOMIC CHARGES:
   4.1337579   4.1588273   4.1591993   4.1583484   4.1578959   4.1327528
   0.7856419   0.7858387   0.7836377   0.7836510   0.7861378   0.7863003
   0.7861430   0.7862554   0.7836159   0.7837002   0.7855935   0.7858272
   6.0462275   6.2718762   6.2718159   6.2674587   6.2678313   6.0454891
   6.0486118   6.2547037   6.2555641   6.2545763   6.2556561   6.0470221
   6.0467155   6.2672030   6.2682112   6.2714180   6.2720959   6.0451393
   8.7045390   8.7048601   8.6991494   8.7055207   8.6994501   8.7057409
 TTTTTTTTTTTTTTTTTTTTTTTTTTTTTT MOQGAD      TELAPSE       26.37 TCPU      453.10
 TTTTTTTTTTTTTTTTTTTTTTTTTTTTTT SHELLXN     TELAPSE       38.62 TCPU      843.74
 TTTTTTTTTTTTTTTTTTTTTTTTTTTTTT MONMO3      TELAPSE       38.79 TCPU      849.26
 NUMERICALLY INTEGRATED DENSITY    198.0000343344
 TTTTTTTTTTTTTTTTTTTTTTTTTTTTTT NUMDFT      TELAPSE       39.55 TCPU      873.74
 CYC   1 ETOT(AU) -1.288831479814E+03 DETOT  7.19E+00 tst  0.00E+00 PX  1.00E+00
 TTTTTTTTTTTTTTTTTTTTTTTTTTTTTT DIIS        TELAPSE       39.60 TCPU      875.22
 DIIS TEST: 0.10787E+01 AT SCF   CYCLE   1 - MIX   30 %
 TTTTTTTTTTTTTTTTTTTTTTTTTTTTTT FDIK        TELAPSE       40.11 TCPU      891.40
 INSULATING STATE
 TOP OF VALENCE BANDS -    BAND     99; K    1; EIG -2.2311664E-01 AU
 BOTTOM OF VIRTUAL BANDS - BAND    100; K   17; EIG -1.1354661E-01 AU
 INDIRECT ENERGY BAND GAP:   2.9816 eV
 BOTTOM OF VIRTUAL BANDS - BAND    100; K    1; EIG -8.0650740E-02 AU
 TTTTTTTTTTTTTTTTTTTTTTTTTTTTTT PDIG        TELAPSE       40.45 TCPU      897.60
 CHARGE NORMALIZATION FACTOR   1.00000000
 TOTAL ATOMIC CHARGES:
   4.6582116   4.6863168   4.6867852   4.6860313   4.6860155   4.6580138
   0.9034956   0.9036659   0.9150923   0.9152273   0.8852153   0.8847760
   0.8852960   0.8847830   0.9149968   0.9153182   0.9035031   0.9035528
   5.8741041   6.1496335   6.1507161   6.1392675   6.1390860   5.8769600
   5.9088636   6.1530405   6.1546865   6.1537199   6.1530372   5.9104837
   5.8739927   6.1385252   6.1396627   6.1501875   6.1502541   5.8771040
   8.3388783   8.3388063   8.3381028   8.3389639   8.3369113   8.3387161
 TTTTTTTTTTTTTTTTTTTTTTTTTTTTTT MOQGAD      TELAPSE       40.50 TCPU      897.65
 TTTTTTTTTTTTTTTTTTTTTTTTTTTTTT SHELLXN     TELAPSE       52.67 TCPU     1286.00
 TTTTTTTTTTTTTTTTTTTTTTTTTTTTTT MONMO3      TELAPSE       52.84 TCPU     1291.43
 NUMERICALLY INTEGRATED DENSITY    198.0000388480
 TTTTTTTTTTTTTTTTTTTTTTTTTTTTTT NUMDFT      TELAPSE       53.61 TCPU     1315.97
 CYC   2 ETOT(AU) -1.289021375497E+03 DETOT -1.90E-01 tst  3.30E-03 PX  1.59E-01
 TTTTTTTTTTTTTTTTTTTTTTTTTTTTTT DIIS        TELAPSE       53.66 TCPU     1317.66
 DIIS TEST: 0.44232E+00 AT SCF   CYCLE   2 - DIIS ACTIVE - HISTORY:     2 CYCLES
 TTTTTTTTTTTTTTTTTTTTTTTTTTTTTT FDIK        TELAPSE       54.18 TCPU     1334.23
 INSULATING STATE
 TOP OF VALENCE BANDS -    BAND     99; K    1; EIG -2.3054684E-01 AU
 BOTTOM OF VIRTUAL BANDS - BAND    100; K   17; EIG -1.0810250E-01 AU
 INDIRECT ENERGY BAND GAP:   3.3319 eV
 BOTTOM OF VIRTUAL BANDS - BAND    100; K    1; EIG -7.6744255E-02 AU
 TTTTTTTTTTTTTTTTTTTTTTTTTTTTTT PDIG        TELAPSE       54.52 TCPU     1340.42
 CHARGE NORMALIZATION FACTOR   1.00000000
 TOTAL ATOMIC CHARGES:
   4.4510000   4.4910519   4.4912369   4.4902038   4.4898986   4.4508754
   0.8845776   0.8850269   0.8924363   0.8924361   0.8743484   0.8742778
   0.8745485   0.8740770   0.8921903   0.8926085   0.8846378   0.8848391
   5.9011636   6.1703083   6.1700079   6.1563220   6.1560589   5.9012275
   5.9091176   6.1678748   6.1679487   6.1673390   6.1681348   5.9081994
   5.9013636   6.1562214   6.1561385   6.1699206   6.1704710   5.9012534
   8.5232711   8.5238307   8.5177663   8.5239327   8.5174811   8.5243761
 TTTTTTTTTTTTTTTTTTTTTTTTTTTTTT MOQGAD      TELAPSE       54.58 TCPU     1340.48
 TTTTTTTTTTTTTTTTTTTTTTTTTTTTTT SHELLXN     TELAPSE       66.90 TCPU     1733.76
 TTTTTTTTTTTTTTTTTTTTTTTTTTTTTT MONMO3      TELAPSE       67.07 TCPU     1739.27
 NUMERICALLY INTEGRATED DENSITY    198.0000384603
 TTTTTTTTTTTTTTTTTTTTTTTTTTTTTT NUMDFT      TELAPSE       67.83 TCPU     1763.44
 CYC   3 ETOT(AU) -1.289112415106E+03 DETOT -9.10E-02 tst  5.92E-04 PX  6.61E-02
 TTTTTTTTTTTTTTTTTTTTTTTTTTTTTT DIIS        TELAPSE       67.89 TCPU     1765.35
 DIIS TEST: 0.16107E-01 AT SCF   CYCLE   3 - DIIS ACTIVE - HISTORY:     3 CYCLES
 TTTTTTTTTTTTTTTTTTTTTTTTTTTTTT FDIK        TELAPSE       68.40 TCPU     1781.50
 INSULATING STATE
 TOP OF VALENCE BANDS -    BAND     99; K    1; EIG -2.4279632E-01 AU
 BOTTOM OF VIRTUAL BANDS - BAND    100; K   17; EIG -1.1695147E-01 AU
 INDIRECT ENERGY BAND GAP:   3.4244 eV
 BOTTOM OF VIRTUAL BANDS - BAND    100; K    1; EIG -8.4203843E-02 AU
 TTTTTTTTTTTTTTTTTTTTTTTTTTTTTT PDIG        TELAPSE       68.73 TCPU     1787.69
 CHARGE NORMALIZATION FACTOR   1.00000000
 TOTAL ATOMIC CHARGES:
   4.4576023   4.4950206   4.4952843   4.4944378   4.4941375   4.4575343
   0.8676942   0.8679415   0.8751880   0.8752689   0.8541100   0.8538020
   0.8541222   0.8538099   0.8750758   0.8753574   0.8676932   0.8678452
   5.9421810   6.1771566   6.1780148   6.1684369   6.1686417   5.9444744
   5.9674013   6.1778806   6.1800667   6.1787995   6.1784948   5.9678399
   5.9426135   6.1677253   6.1692371   6.1775453   6.1776848   5.9442506
   8.4857129   8.4856291   8.4835138   8.4860113   8.4829676   8.4857951
 TTTTTTTTTTTTTTTTTTTTTTTTTTTTTT MOQGAD      TELAPSE       68.79 TCPU     1787.75
 TTTTTTTTTTTTTTTTTTTTTTTTTTTTTT SHELLXN     TELAPSE       80.96 TCPU     2176.07
 TTTTTTTTTTTTTTTTTTTTTTTTTTTTTT MONMO3      TELAPSE       81.13 TCPU     2181.68
 NUMERICALLY INTEGRATED DENSITY    198.0000381245
 TTTTTTTTTTTTTTTTTTTTTTTTTTTTTT NUMDFT      TELAPSE       81.90 TCPU     2206.15
 CYC   4 ETOT(AU) -1.289115932341E+03 DETOT -3.52E-03 tst  3.40E-05 PX  1.48E-02
 TTTTTTTTTTTTTTTTTTTTTTTTTTTTTT DIIS        TELAPSE       81.96 TCPU     2208.19
 DIIS TEST: 0.42449E-02 AT SCF   CYCLE   4 - DIIS ACTIVE - HISTORY:     4 CYCLES
 TTTTTTTTTTTTTTTTTTTTTTTTTTTTTT FDIK        TELAPSE       82.49 TCPU     2224.84
 INSULATING STATE
 TOP OF VALENCE BANDS -    BAND     99; K    1; EIG -2.4026786E-01 AU
 BOTTOM OF VIRTUAL BANDS - BAND    100; K   17; EIG -1.1637284E-01 AU
 INDIRECT ENERGY BAND GAP:   3.3714 eV
 BOTTOM OF VIRTUAL BANDS - BAND    100; K    1; EIG -8.4162543E-02 AU
 TTTTTTTTTTTTTTTTTTTTTTTTTTTTTT PDIG        TELAPSE       82.82 TCPU     2231.03
 CHARGE NORMALIZATION FACTOR   1.00000000
 TOTAL ATOMIC CHARGES:
   4.4602873   4.4972043   4.4974529   4.4965414   4.4963166   4.4601885
   0.8701660   0.8705307   0.8786543   0.8787703   0.8576977   0.8576101
   0.8578852   0.8574403   0.8784718   0.8789181   0.8702203   0.8703779
   5.9282291   6.1783294   6.1783062   6.1666078   6.1661368   5.9283607
   5.9475439   6.1772178   6.1773195   6.1766982   6.1772993   5.9469057
   5.9281485   6.1662669   6.1664050   6.1780563   6.1786298   5.9286007
   8.4962987   8.4967320   8.4919363   8.4968002   8.4913290   8.4971088
 TTTTTTTTTTTTTTTTTTTTTTTTTTTTTT MOQGAD      TELAPSE       82.88 TCPU     2231.09
 TTTTTTTTTTTTTTTTTTTTTTTTTTTTTT SHELLXN     TELAPSE       95.21 TCPU     2624.66
 TTTTTTTTTTTTTTTTTTTTTTTTTTTTTT MONMO3      TELAPSE       95.39 TCPU     2630.26
 NUMERICALLY INTEGRATED DENSITY    198.0000380811
 TTTTTTTTTTTTTTTTTTTTTTTTTTTTTT NUMDFT      TELAPSE       96.15 TCPU     2654.57
 CYC   5 ETOT(AU) -1.289116900215E+03 DETOT -9.68E-04 tst  7.81E-06 PX  6.66E-03
 TTTTTTTTTTTTTTTTTTTTTTTTTTTTTT DIIS        TELAPSE       96.22 TCPU     2656.85
 DIIS TEST: 0.52746E-04 AT SCF   CYCLE   5 - DIIS ACTIVE - HISTORY:     5 CYCLES
 TTTTTTTTTTTTTTTTTTTTTTTTTTTTTT FDIK        TELAPSE       96.73 TCPU     2673.05
 INSULATING STATE
 TOP OF VALENCE BANDS -    BAND     99; K    1; EIG -2.4014515E-01 AU
 BOTTOM OF VIRTUAL BANDS - BAND    100; K   17; EIG -1.1594140E-01 AU
 INDIRECT ENERGY BAND GAP:   3.3798 eV
 BOTTOM OF VIRTUAL BANDS - BAND    100; K    1; EIG -8.3824658E-02 AU
 TTTTTTTTTTTTTTTTTTTTTTTTTTTTTT PDIG        TELAPSE       97.07 TCPU     2679.24
 CHARGE NORMALIZATION FACTOR   1.00000000
 TOTAL ATOMIC CHARGES:
   4.4599027   4.4972848   4.4975925   4.4966710   4.4963500   4.4597963
   0.8712275   0.8715010   0.8794156   0.8794311   0.8586797   0.8582962
   0.8586660   0.8583302   0.8792537   0.8795556   0.8712175   0.8714065
   5.9272228   6.1765811   6.1773949   6.1654858   6.1660969   5.9298893
   5.9459030   6.1759849   6.1784456   6.1771631   6.1767239   5.9464445
   5.9279855   6.1650018   6.1664932   6.1770093   6.1770279   5.9293219
   8.4959479   8.4958557   8.4926721   8.4963237   8.4923498   8.4960976
 TTTTTTTTTTTTTTTTTTTTTTTTTTTTTT MOQGAD      TELAPSE       97.12 TCPU     2679.30
 TTTTTTTTTTTTTTTTTTTTTTTTTTTTTT SHELLXN     TELAPSE      109.24 TCPU     3066.09
 TTTTTTTTTTTTTTTTTTTTTTTTTTTTTT MONMO3      TELAPSE      109.41 TCPU     3071.65
 NUMERICALLY INTEGRATED DENSITY    198.0000381208
 TTTTTTTTTTTTTTTTTTTTTTTTTTTTTT NUMDFT      TELAPSE      110.19 TCPU     3096.35
 CYC   6 ETOT(AU) -1.289116913386E+03 DETOT -1.32E-05 tst  9.55E-08 PX  6.81E-04
 TTTTTTTTTTTTTTTTTTTTTTTTTTTTTT DIIS        TELAPSE      110.26 TCPU     3098.75
 DIIS TEST: 0.96984E-05 AT SCF   CYCLE   6 - DIIS ACTIVE - HISTORY:     6 CYCLES
 TTTTTTTTTTTTTTTTTTTTTTTTTTTTTT FDIK        TELAPSE      110.78 TCPU     3115.32
 INSULATING STATE
 TOP OF VALENCE BANDS -    BAND     99; K    1; EIG -2.4012422E-01 AU
 BOTTOM OF VIRTUAL BANDS - BAND    100; K   17; EIG -1.1600528E-01 AU
 INDIRECT ENERGY BAND GAP:   3.3774 eV
 BOTTOM OF VIRTUAL BANDS - BAND    100; K    1; EIG -8.3828450E-02 AU
 TTTTTTTTTTTTTTTTTTTTTTTTTTTTTT PDIG        TELAPSE      111.12 TCPU     3121.52
 CHARGE NORMALIZATION FACTOR   1.00000000
 TOTAL ATOMIC CHARGES:
   4.4599901   4.4973870   4.4976090   4.4967184   4.4964877   4.4599079
   0.8711108   0.8714688   0.8793401   0.8794675   0.8585315   0.8584344
   0.8587190   0.8582668   0.8791768   0.8795927   0.8711610   0.8713152
   5.9281295   6.1773438   6.1773929   6.1660494   6.1654899   5.9283074
   5.9471091   6.1767329   6.1769264   6.1762343   6.1768775   5.9465026
   5.9279877   6.1655918   6.1658695   6.1771015   6.1776935   5.9286330
   8.4960279   8.4964431   8.4920881   8.4965139   8.4914639   8.4968058
 TTTTTTTTTTTTTTTTTTTTTTTTTTTTTT MOQGAD      TELAPSE      111.17 TCPU     3121.57
 TTTTTTTTTTTTTTTTTTTTTTTTTTTTTT SHELLXN     TELAPSE      123.57 TCPU     3517.20
 TTTTTTTTTTTTTTTTTTTTTTTTTTTTTT MONMO3      TELAPSE      123.75 TCPU     3522.77
 NUMERICALLY INTEGRATED DENSITY    198.0000381166
 TTTTTTTTTTTTTTTTTTTTTTTTTTTTTT NUMDFT      TELAPSE      124.51 TCPU     3547.11
 CYC   7 ETOT(AU) -1.289116915185E+03 DETOT -1.80E-06 tst  5.39E-08 PX  3.72E-04
 TTTTTTTTTTTTTTTTTTTTTTTTTTTTTT DIIS        TELAPSE      124.59 TCPU     3549.82
 DIIS TEST: 0.17693E-05 AT SCF   CYCLE   7 - DIIS ACTIVE - HISTORY:     7 CYCLES
 TTTTTTTTTTTTTTTTTTTTTTTTTTTTTT FDIK        TELAPSE      125.10 TCPU     3565.90
 INSULATING STATE
 TOP OF VALENCE BANDS -    BAND     99; K    1; EIG -2.4013224E-01 AU
 BOTTOM OF VIRTUAL BANDS - BAND    100; K   17; EIG -1.1602419E-01 AU
 INDIRECT ENERGY BAND GAP:   3.3772 eV
 BOTTOM OF VIRTUAL BANDS - BAND    100; K    1; EIG -8.3839719E-02 AU
 TTTTTTTTTTTTTTTTTTTTTTTTTTTTTT PDIG        TELAPSE      125.44 TCPU     3572.10
 CHARGE NORMALIZATION FACTOR   1.00000000
 TOTAL ATOMIC CHARGES:
   4.4600825   4.4973708   4.4976439   4.4967295   4.4964557   4.4599904
   0.8710925   0.8714241   0.8793665   0.8794253   0.8585505   0.8583290
   0.8586458   0.8582530   0.8791855   0.8795696   0.8711194   0.8712949
   5.9275544   6.1771914   6.1775297   6.1657608   6.1658117   5.9288482
   5.9468475   6.1762690   6.1774522   6.1765388   6.1766386   5.9467247
   5.9278962   6.1653918   6.1661017   6.1772345   6.1775430   5.9286858
   8.4961260   8.4963164   8.4921450   8.4965686   8.4916646   8.4966308
 TTTTTTTTTTTTTTTTTTTTTTTTTTTTTT MOQGAD      TELAPSE      125.49 TCPU     3572.15
 TTTTTTTTTTTTTTTTTTTTTTTTTTTTTT SHELLXN     TELAPSE      137.62 TCPU     3959.09
 TTTTTTTTTTTTTTTTTTTTTTTTTTTTTT MONMO3      TELAPSE      137.79 TCPU     3964.70
 NUMERICALLY INTEGRATED DENSITY    198.0000381165
 TTTTTTTTTTTTTTTTTTTTTTTTTTTTTT NUMDFT      TELAPSE      138.55 TCPU     3989.02
 CYC   8 ETOT(AU) -1.289116915460E+03 DETOT -2.75E-07 tst  1.05E-08 PX  1.44E-04
 TTTTTTTTTTTTTTTTTTTTTTTTTTTTTT DIIS        TELAPSE      138.64 TCPU     3991.73
 DIIS TEST: 0.17122E-06 AT SCF   CYCLE   8 - DIIS ACTIVE - HISTORY:     8 CYCLES
 TTTTTTTTTTTTTTTTTTTTTTTTTTTTTT FDIK        TELAPSE      139.14 TCPU     4007.85
 INSULATING STATE
 TOP OF VALENCE BANDS -    BAND     99; K    1; EIG -2.4013771E-01 AU
 BOTTOM OF VIRTUAL BANDS - BAND    100; K   17; EIG -1.1601633E-01 AU
 INDIRECT ENERGY BAND GAP:   3.3775 eV
 BOTTOM OF VIRTUAL BANDS - BAND    100; K    1; EIG -8.3841957E-02 AU
 TTTTTTTTTTTTTTTTTTTTTTTTTTTTTT PDIG        TELAPSE      139.48 TCPU     4014.05
 CHARGE NORMALIZATION FACTOR   1.00000000
 TOTAL ATOMIC CHARGES:
   4.4600628   4.4973674   4.4976231   4.4967161   4.4964570   4.4599701
   0.8710944   0.8714252   0.8793501   0.8794368   0.8585282   0.8583366
   0.8586486   0.8582356   0.8791847   0.8795649   0.8711247   0.8712919
   5.9277594   6.1771610   6.1774567   6.1658562   6.1657139   5.9287764
   5.9467890   6.1764579   6.1773972   6.1765153   6.1767953   5.9465754
   5.9279266   6.1654050   6.1660852   6.1771403   6.1775351   5.9287914
   8.4960438   8.4962928   8.4922566   8.4964944   8.4917408   8.4966161
 TTTTTTTTTTTTTTTTTTTTTTTTTTTTTT MOQGAD      TELAPSE      139.53 TCPU     4014.10
 TTTTTTTTTTTTTTTTTTTTTTTTTTTTTT SHELLXN     TELAPSE      151.92 TCPU     4409.29
 +++ ENERGIES IN A.U. +++
 ::: EXT EL-POLE                                  -1.6756752567322E+03
 ::: EXT EL-SPHEROPOLE                             1.8482030221858E+01
 ::: BIELET ZONE E-E                               2.3507314238537E+03
 ::: TOTAL E-E                                     6.9353819734339E+02
 ::: TOTAL E-N + N-E                              -3.2084901137636E+03
 ::: TOTAL N-N                                     7.9572711057777E+01
 ::: KINETIC ENERGY                                1.2800067512352E+03
 ::: PSEUDO TOTAL   ENERGY                        -1.1553724541273E+03
 ::: VIRIAL COEFFICIENT                            1.0511765464834E+00
 TTTTTTTTTTTTTTTTTTTTTTTTTTTTTT MONMO3      TELAPSE      152.09 TCPU     4414.90
 NUMERICALLY INTEGRATED DENSITY    198.0000381170
 EXCHANGE ENERGY: -0.126031449500E+03  CORRELATION ENERGY: -0.771301184842E+01
 TTTTTTTTTTTTTTTTTTTTTTTTTTTTTT NUMDFT      TELAPSE      152.86 TCPU     4439.48
 CYC   9 ETOT(AU) -1.289116915476E+03 DETOT -1.61E-08 tst  5.89E-10 PX  1.44E-04

 == SCF ENDED - CONVERGENCE ON ENERGY      E(AU) -1.2891169154759E+03 CYCLES   9


 ENERGY EXPRESSION=HARTREE+FOCK EXCH*0.00000+(HSESOL     EXCH)*1.00000+PBESOL     CORR


 TOTAL ENERGY(DFT)(AU)(  9) -1.2891169154759E+03 DE-1.6E-08 tester 5.9E-10
 TTTTTTTTTTTTTTTTTTTTTTTTTTTTTT EDFT        TELAPSE      152.86 TCPU     4439.49
 
 INFORMATION **** DFTD3 ENERGY **** CALCULATE DFTD3 ENERGY

           DFT-D V3(BJ)
 DF                                         hsesol3c  
 parameters
 s6       :    1.0000
 s8       :    0.0000
 a1       :    0.5196
 a2       :    4.9385
 k1 k3    :   16.0000   -4.0000
 Cutoff   :   50.2022
 CN-Cutoff:   21.1671
 ABC-Cutoff:   21.1671
 
 Edisp /kcal,au:   -30.5403 -0.04866900

 E6    /kcal :   -32.5969
 E8    /kcal :     0.0000
 E6(ABC) "   :   2.056677
 
 INFORMATION **** DFTD3 ENERGY **** NORMAL TERMINATION OF DFTD3 MODULE

 GCP ENERGY CALCULATION
  level        hsesol3c            basis:hsesol3c
  Nbf            474
  Atoms           42

  Parameters: 
  sigma     1.0000
  eta       1.4281
  alpha     0.2936
  beta      1.9467

  dmp_scal      4.0000
  dmp_exp       6.0000
 cutoffs: 
   distance [bohr] 60.0
   noise    [a.u.] 2.2E-16
 SR-damping   T
 ** gCP correction **
  Egcp:        0.0852661853 / (a.u.) ||      53.5053 / (kcal/mol)
 INFORMATION **** GCP **** NORMAL TERMINATION OF GCP MODULE

 *******************************************************************************

 DFT-D3-GCP DISPERSION AND COUNTERPOISE CORRECTION

 D3 DISPERSION ENERGY (AU)      -4.8668999898460E-02
 GCP ENERGY (AU)                 8.5266185274733E-02
 TOTAL ENERGY + DISP + GCP (AU) -1.2890803182905E+03

 *******************************************************************************

 EIGENVECTORS IN FORTRAN UNIT 10
 TTTTTTTTTTTTTTTTTTTTTTTTTTTTTT END         TELAPSE      154.91 TCPU     4447.49
 EEEEEEEEEE TERMINATION  DATE 19 02 2026 TIME 17:56:27.2
