 Default number of threads is:           32

         
 *******************************************************************************
 *                                                                             *
 *                               CRYSTAL23                                     *
 *                      public : 1.0.1 - October 2022                          *
 *                       HTTP://WWW.CRYSTAL.UNITO.IT                           *
 *                                                                             *
 *                              MAIN AUTHORS                                   *
 *                                                                             *
 *  R. DOVESI(1,11), V.R. SAUNDERS(2), C. ROETTI(1,11), R. ORLANDO(1,11),      *
 *  C.M. ZICOVICH-WILSON(1,3), F. PASCALE(4), B. CIVALLERI(1,11),              *
 *  K. DOLL(5), N.M. HARRISON(6), I.J. BUSH(7), Ph. D'ARCO(8),                 *
 *  M. LLUNELL(9), M. CAUSA'(10), Y. NOEL(8), L. MASCHIO(1,11), A. ERBA(1,11)  *
 *  M. RE'RAT(14), S. CASASSA(1,11), B.G. SEARLE(2), J.K. DESMARAIS(1)         *
 *                                                                             *
 *        CONTRIBUTIONS TO THE CODE HAVE ALSO BEEN GIVEN BY                    *
 *                                                                             *
 *  M. FERRABONE(1,11), M. DE LA PIERRE(1,11), M. FERRERO(1,11),               *
 *  J. BAIMA(1,11), E. ALBANESE(1,11), M.F. PEINTINGER(12), R. BAST(13),       *
 *  B. KIRTMAN(15), V. LACIVITA(1,11), R. DEMICHELIS(1,16)                     *
 *  G. BRANDEBURG(17), S. SALUSTRO(1,11), G. SANSONE(1,11)                     *
 *  M.T. RUGGIERO(18), L.E. DAGA(1), L. DONA'(1), A. COSSARD(1)                *
 *                                                                             *
 * (1) THEORETICAL CHEMISTRY GROUP - UNIVERSITA' DI TORINO - TORINO (ITALY)    *
 * (2) SCIENTIFIC COMPUTING DEPARTMENT - STFC DARESBURY (UK)                   *
 * (3) UNIVERSIDAD AUTONOMA DEL ESTADO DE MORELOS - CUERNAVACA (MEXICO)        *
 * (4) UNIVERSITE' DE LORRAINE - NANCY (FRANCE)                                *
 * (5) UNIVERSITAET STUTTGART- STUTTGART (GERMANY)                             *
 * (6) IMPERIAL COLLEGE - LONDON (UK)                                          *
 * (7) SCIENTIFIC COMPUTING DEPARTMENT - STFC RAL (UK)                         *
 * (8) UPMC - SORBONNE UNIVERSITES - PARIS (FRANCE)                            *
 * (9) UNIVERSIDAD DE BARCELONA - BARCELONA (SPAIN)                            *
 *(10) UNIVERSITA' DI NAPOLI "FEDERICO II" - NAPOLI (ITALY)                    *
 *(11) NIS - NANOSTRUCTURED INTERFACES AND SURFACES - TORINO (ITALY)           *
 *(12) MPI FUER CHEMISCHE ENERGIEKONVERSION - MUELHEIM AN DER RUHR (GERMANY)   *
 *(13) UNIVERSITY OF TROMSO - TROMSO (NORWAY)                                  *
 *(14) UNIVERSITE' DE PAU ET DES PAYS DE L'ADOUR - PAU (FRANCE)                *
 *(15) UNIVERSITY OF CALIFORNIA SANTA BARBARA - SANTA BARBARA (USA)            *
 *(16) CURTIN UNIVERSITY - PERTH (AUSTRALIA)                                   *
 *(17) UNIVERSITY COLLEGE LONDON - LONDON (UK)                                 *
 *(18) UNIVERSITY OF VERMONT - BURLINGTON (USA)                                *
 *                                                                             *
 *******************************************************************************
 EEEEEEEEEE STARTING  DATE 19 02 2026 TIME 20:25:16.9
 cof-1_z41_L010_serr                                                             

 CRYSTAL CALCULATION
 (INPUT ACCORDING TO THE INTERNATIONAL TABLES FOR X-RAY CRYSTALLOGRAPHY)
 CRYSTAL FAMILY                       :  TRICLINIC   
 CRYSTAL CLASS  (GROTH - 1921)        :  TRICLINIC PEDIAL                     

 SPACE GROUP (NONCENTROSYMMETRIC)     :  P 1             

 LATTICE PARAMETERS  (ANGSTROMS AND DEGREES) - CONVENTIONAL CELL
        A           B           C        ALPHA        BETA       GAMMA
    15.02361    15.02392     8.20000    90.00032    89.99994   119.99596


 NUMBER OF IRREDUCIBLE ATOMS IN THE CONVENTIONAL CELL:   84

 INPUT COORDINATES

 ATOM AT. N.              COORDINATES
   1   5     6.136805400000E-01  2.273182200000E-01  2.505825300000E-01
   2   5     6.521038200000E-01  3.041725900000E-01  7.505825300000E-01
   3   5     7.727362000000E-01  3.863778800000E-01  2.505825300000E-01
   4   5     8.111594800000E-01  4.632322500000E-01  7.505825300000E-01
   5   5     6.136762700000E-01  3.863606700000E-01  2.493577500000E-01
   6   5     6.520995500000E-01  4.632150400000E-01  7.493577600000E-01
   7   5     2.272552500000E-01  6.136332200000E-01  2.505825300000E-01
   8   5     2.656785300000E-01  6.904875900000E-01  7.505825400000E-01
   9   5     3.863632200000E-01  6.136124500000E-01  2.505825300000E-01
  10   5     4.247865000000E-01  6.904668200000E-01  7.505825300000E-01
  11   5     3.863435000000E-01  7.727516500000E-01  2.493577500000E-01
  12   5     4.247667800000E-01  8.496060200000E-01  7.493577600000E-01
  13   1     9.030436200000E-01  3.089300500000E-01  2.480433200000E-01
  14   1     9.414669000000E-01  3.857844200000E-01  7.480433200000E-01
  15   1     9.663453000000E-02  6.910534400000E-01  2.476550300000E-01
  16   1     1.350578100000E-01  7.679078100000E-01  7.476550300000E-01
  17   1     9.029714200000E-01  5.940724300000E-01  2.475952700000E-01
  18   1     9.413947000000E-01  6.709268000000E-01  7.475952700000E-01
  19   1     9.673618000000E-02  4.056849400000E-01  2.476101700000E-01
  20   1     1.351594600000E-01  4.825393100000E-01  7.476101800000E-01
  21   1     6.910324000000E-01  9.700412000000E-02  2.519567000000E-01
  22   1     7.294556800000E-01  1.738584900000E-01  7.519567000000E-01
  23   1     3.089297200000E-01  9.034373100000E-01  2.523450200000E-01
  24   1     3.473530000000E-01  9.802916800000E-01  7.523450200000E-01
  25   1     4.058699900000E-01  9.704998000000E-02  2.524048100000E-01
  26   1     4.442932700000E-01  1.739043500000E-01  7.524048100000E-01
  27   1     5.943122100000E-01  9.033473200000E-01  2.523898100000E-01
  28   1     6.327354900000E-01  9.802016900000E-01  7.523898100000E-01
  29   1     6.910727400000E-01  5.940542100000E-01  2.480433400000E-01
  30   1     7.294960200000E-01  6.709085800000E-01  7.480433400000E-01
  31   1     3.089618300000E-01  4.056093300000E-01  2.476550100000E-01
  32   1     3.473851100000E-01  4.824637000000E-01  7.476550100000E-01
  33   1     4.058405700000E-01  3.088232500000E-01  2.475952200000E-01
  34   1     4.442638500000E-01  3.856776200000E-01  7.475952200000E-01
  35   1     5.942908800000E-01  6.909579300000E-01  2.476102200000E-01
  36   1     6.327141600000E-01  7.678123000000E-01  7.476102200000E-01
  37   6     8.918903100000E-01  4.459436900000E-01  2.493129400000E-01
  38   6     9.303135900000E-01  5.227980600000E-01  7.493129400000E-01
  39   6     9.464891100000E-01  3.927856300000E-01  2.481030700000E-01
  40   6     9.849123900000E-01  4.696400000000E-01  7.481030800000E-01
  41   6     5.338812000000E-02  6.071853000000E-01  2.479985600000E-01
  42   6     9.181140000000E-02  6.840396700000E-01  7.479985600000E-01
  43   6     9.464521100000E-01  5.536921900000E-01  2.483122200000E-01
  44   6     9.848753900000E-01  6.305465600000E-01  7.483122200000E-01
  45   6     5.342634000000E-02  4.462499700000E-01  2.475056200000E-01
  46   6     9.184962000000E-02  5.231043400000E-01  7.475056200000E-01
  47   6     1.080358900000E-01  5.540356300000E-01  2.483271400000E-01
  48   6     1.464591700000E-01  6.308900000000E-01  7.483271400000E-01
  49   6     5.540394200000E-01  1.081684600000E-01  2.506871000000E-01
  50   6     5.924627000000E-01  1.850228300000E-01  7.506871000000E-01
  51   6     6.071778500000E-01  5.355594000000E-02  2.518969300000E-01
  52   6     6.456011300000E-01  1.304103100000E-01  7.518969300000E-01
  53   6     3.927986700000E-01  9.466631600000E-01  2.520014900000E-01
  54   6     4.312219500000E-01  2.351753000000E-02  7.520014900000E-01
  55   6     4.462875800000E-01  5.360286000000E-02  2.516878400000E-01
  56   6     4.847108600000E-01  1.304572300000E-01  7.516878400000E-01
  57   6     5.537168500000E-01  9.466235600000E-01  2.524943800000E-01
  58   6     5.921401300000E-01  2.347793000000E-02  7.524943800000E-01
  59   6     4.459279100000E-01  8.919920600000E-01  2.516728900000E-01
  60   6     4.843511900000E-01  9.688464300000E-01  7.516728800000E-01
  61   6     5.540448700000E-01  4.458745500000E-01  2.493129400000E-01
  62   6     5.924681500000E-01  5.227289200000E-01  7.493129400000E-01
  63   6     6.072102200000E-01  5.536257800000E-01  2.481031000000E-01
  64   6     6.456335000000E-01  6.304801500000E-01  7.481031000000E-01
  65   6     3.928233700000E-01  4.461720300000E-01  2.479985400000E-01
  66   6     4.312466500000E-01  5.230264000000E-01  7.479985400000E-01
  67   6     4.462872600000E-01  3.926899900000E-01  2.483121800000E-01
  68   6     4.847105400000E-01  4.695443600000E-01  7.483121900000E-01
  69   6     5.537429600000E-01  6.070980000000E-01  2.475056500000E-01
  70   6     5.921662400000E-01  6.839523700000E-01  7.475056500000E-01
  71   6     4.459599800000E-01  5.539582300000E-01  2.483271400000E-01
  72   6     4.843832600000E-01  6.308126000000E-01  7.483271400000E-01
  73   8     5.607366800000E-01  2.803706300000E-01  2.496863500000E-01
  74   8     5.991599600000E-01  3.572250000000E-01  7.496863500000E-01
  75   8     7.196817000000E-01  2.803783300000E-01  2.522703400000E-01
  76   8     7.581049800000E-01  3.572327000000E-01  7.522703300000E-01
  77   8     7.196794200000E-01  4.393234600000E-01  2.483719600000E-01
  78   8     7.581027000000E-01  5.161778300000E-01  7.483719600000E-01
  79   8     2.803245100000E-01  7.196511100000E-01  2.496863600000E-01
  80   8     3.187477900000E-01  7.965054800000E-01  7.496863600000E-01
  81   8     2.803439700000E-01  5.606956100000E-01  2.522703400000E-01
  82   8     3.187672500000E-01  6.375499800000E-01  7.522703400000E-01
  83   8     4.392638400000E-01  7.196354200000E-01  2.483719500000E-01
  84   8     4.776871200000E-01  7.964897900000E-01  7.483719500000E-01

 *******************************************************************************

 << INFORMATION >>: FROM NOW ON, ALL COORDINATES REFER TO THE PRIMITIVE CELL

 *******************************************************************************

 LATTICE PARAMETERS  (ANGSTROMS AND DEGREES) - PRIMITIVE CELL
       A          B          C        ALPHA      BETA     GAMMA        VOLUME
   15.02361   15.02392    8.20000    90.00032  89.99994 119.99596   1602.948694

 COORDINATES OF THE EQUIVALENT ATOMS (FRACTIONAL UNITS)

 N. ATOM EQUIV AT. N.          X                  Y                  Z

   1   1   1    5 B    -3.86319460000E-01  2.27318220000E-01  2.50582530000E-01

   2   2   1    5 B    -3.47896180000E-01  3.04172590000E-01 -2.49417470000E-01

   3   3   1    5 B    -2.27263800000E-01  3.86377880000E-01  2.50582530000E-01

   4   4   1    5 B    -1.88840520000E-01  4.63232250000E-01 -2.49417470000E-01

   5   5   1    5 B    -3.86323730000E-01  3.86360670000E-01  2.49357750000E-01

   6   6   1    5 B    -3.47900450000E-01  4.63215040000E-01 -2.50642240000E-01

   7   7   1    5 B     2.27255250000E-01 -3.86366780000E-01  2.50582530000E-01

   8   8   1    5 B     2.65678530000E-01 -3.09512410000E-01 -2.49417460000E-01

   9   9   1    5 B     3.86363220000E-01 -3.86387550000E-01  2.50582530000E-01

  10  10   1    5 B     4.24786500000E-01 -3.09533180000E-01 -2.49417470000E-01

  11  11   1    5 B     3.86343500000E-01 -2.27248350000E-01  2.49357750000E-01

  12  12   1    5 B     4.24766780000E-01 -1.50393980000E-01 -2.50642240000E-01

  13  13   1    1 H    -9.69563800000E-02  3.08930050000E-01  2.48043320000E-01

  14  14   1    1 H    -5.85331000000E-02  3.85784420000E-01 -2.51956680000E-01

  15  15   1    1 H     9.66345300000E-02 -3.08946560000E-01  2.47655030000E-01

  16  16   1    1 H     1.35057810000E-01 -2.32092190000E-01 -2.52344970000E-01

  17  17   1    1 H    -9.70285800000E-02 -4.05927570000E-01  2.47595270000E-01

  18  18   1    1 H    -5.86053000000E-02 -3.29073200000E-01 -2.52404730000E-01

  19  19   1    1 H     9.67361800000E-02  4.05684940000E-01  2.47610170000E-01

  20  20   1    1 H     1.35159460000E-01  4.82539310000E-01 -2.52389820000E-01

  21  21   1    1 H    -3.08967600000E-01  9.70041200000E-02  2.51956700000E-01

  22  22   1    1 H    -2.70544320000E-01  1.73858490000E-01 -2.48043300000E-01

  23  23   1    1 H     3.08929720000E-01 -9.65626900000E-02  2.52345020000E-01

  24  24   1    1 H     3.47353000000E-01 -1.97083200000E-02 -2.47654980000E-01

  25  25   1    1 H     4.05869990000E-01  9.70499800000E-02  2.52404810000E-01

  26  26   1    1 H     4.44293270000E-01  1.73904350000E-01 -2.47595190000E-01

  27  27   1    1 H    -4.05687790000E-01 -9.66526800000E-02  2.52389810000E-01

  28  28   1    1 H    -3.67264510000E-01 -1.97983100000E-02 -2.47610190000E-01

  29  29   1    1 H    -3.08927260000E-01 -4.05945790000E-01  2.48043340000E-01

  30  30   1    1 H    -2.70503980000E-01 -3.29091420000E-01 -2.51956660000E-01

  31  31   1    1 H     3.08961830000E-01  4.05609330000E-01  2.47655010000E-01

  32  32   1    1 H     3.47385110000E-01  4.82463700000E-01 -2.52344990000E-01

  33  33   1    1 H     4.05840570000E-01  3.08823250000E-01  2.47595220000E-01

  34  34   1    1 H     4.44263850000E-01  3.85677620000E-01 -2.52404780000E-01

  35  35   1    1 H    -4.05709120000E-01 -3.09042070000E-01  2.47610220000E-01

  36  36   1    1 H    -3.67285840000E-01 -2.32187700000E-01 -2.52389780000E-01

  37  37   1    6 C    -1.08109690000E-01  4.45943690000E-01  2.49312940000E-01

  38  38   1    6 C    -6.96864100000E-02 -4.77201940000E-01 -2.50687060000E-01

  39  39   1    6 C    -5.35108900000E-02  3.92785630000E-01  2.48103070000E-01

  40  40   1    6 C    -1.50876100000E-02  4.69640000000E-01 -2.51896920000E-01

  41  41   1    6 C     5.33881200000E-02 -3.92814700000E-01  2.47998560000E-01

  42  42   1    6 C     9.18114000000E-02 -3.15960330000E-01 -2.52001440000E-01

  43  43   1    6 C    -5.35478900000E-02 -4.46307810000E-01  2.48312220000E-01

  44  44   1    6 C    -1.51246100000E-02 -3.69453440000E-01 -2.51687780000E-01

  45  45   1    6 C     5.34263400000E-02  4.46249970000E-01  2.47505620000E-01

  46  46   1    6 C     9.18496200000E-02 -4.76895660000E-01 -2.52494380000E-01

  47  47   1    6 C     1.08035890000E-01 -4.45964370000E-01  2.48327140000E-01

  48  48   1    6 C     1.46459170000E-01 -3.69110000000E-01 -2.51672860000E-01

  49  49   1    6 C    -4.45960580000E-01  1.08168460000E-01  2.50687100000E-01

  50  50   1    6 C    -4.07537300000E-01  1.85022830000E-01 -2.49312900000E-01

  51  51   1    6 C    -3.92822150000E-01  5.35559400000E-02  2.51896930000E-01

  52  52   1    6 C    -3.54398870000E-01  1.30410310000E-01 -2.48103070000E-01

  53  53   1    6 C     3.92798670000E-01 -5.33368400000E-02  2.52001490000E-01

  54  54   1    6 C     4.31221950000E-01  2.35175300000E-02 -2.47998510000E-01

  55  55   1    6 C     4.46287580000E-01  5.36028600000E-02  2.51687840000E-01

  56  56   1    6 C     4.84710860000E-01  1.30457230000E-01 -2.48312160000E-01

  57  57   1    6 C    -4.46283150000E-01 -5.33764400000E-02  2.52494380000E-01

  58  58   1    6 C    -4.07859870000E-01  2.34779300000E-02 -2.47505620000E-01

  59  59   1    6 C     4.45927910000E-01 -1.08007940000E-01  2.51672890000E-01

  60  60   1    6 C     4.84351190000E-01 -3.11535700000E-02 -2.48327120000E-01

  61  61   1    6 C    -4.45955130000E-01  4.45874550000E-01  2.49312940000E-01

  62  62   1    6 C    -4.07531850000E-01 -4.77271080000E-01 -2.50687060000E-01

  63  63   1    6 C    -3.92789780000E-01 -4.46374220000E-01  2.48103100000E-01

  64  64   1    6 C    -3.54366500000E-01 -3.69519850000E-01 -2.51896900000E-01

  65  65   1    6 C     3.92823370000E-01  4.46172030000E-01  2.47998540000E-01

  66  66   1    6 C     4.31246650000E-01 -4.76973600000E-01 -2.52001460000E-01

  67  67   1    6 C     4.46287260000E-01  3.92689990000E-01  2.48312180000E-01

  68  68   1    6 C     4.84710540000E-01  4.69544360000E-01 -2.51687810000E-01

  69  69   1    6 C    -4.46257040000E-01 -3.92902000000E-01  2.47505650000E-01

  70  70   1    6 C    -4.07833760000E-01 -3.16047630000E-01 -2.52494350000E-01

  71  71   1    6 C     4.45959980000E-01 -4.46041770000E-01  2.48327140000E-01

  72  72   1    6 C     4.84383260000E-01 -3.69187400000E-01 -2.51672860000E-01

  73  73   1    8 O    -4.39263320000E-01  2.80370630000E-01  2.49686350000E-01

  74  74   1    8 O    -4.00840040000E-01  3.57225000000E-01 -2.50313650000E-01

  75  75   1    8 O    -2.80318300000E-01  2.80378330000E-01  2.52270340000E-01

  76  76   1    8 O    -2.41895020000E-01  3.57232700000E-01 -2.47729670000E-01

  77  77   1    8 O    -2.80320580000E-01  4.39323460000E-01  2.48371960000E-01

  78  78   1    8 O    -2.41897300000E-01 -4.83822170000E-01 -2.51628040000E-01

  79  79   1    8 O     2.80324510000E-01 -2.80348890000E-01  2.49686360000E-01

  80  80   1    8 O     3.18747790000E-01 -2.03494520000E-01 -2.50313640000E-01

  81  81   1    8 O     2.80343970000E-01 -4.39304390000E-01  2.52270340000E-01

  82  82   1    8 O     3.18767250000E-01 -3.62450020000E-01 -2.47729660000E-01

  83  83   1    8 O     4.39263840000E-01 -2.80364580000E-01  2.48371950000E-01

  84  84   1    8 O     4.77687120000E-01 -2.03510210000E-01 -2.51628050000E-01

 NUMBER OF SYMMETRY OPERATORS         :    1
 *******************************************************************************
 * GEOMETRY EDITING - INPUT COORDINATES ARE GIVEN IN ANGSTROM         
 *******************************************************************************

 GCALCO - MAX INDICES DIRECT LATTICE VECTOR    12    12    20
 NO.OF VECTORS CREATED 6999 STARS 3500 RMAX   262.87005 BOHR

 GEOMETRY FOR WAVE FUNCTION - DIMENSIONALITY OF THE SYSTEM    3
 (NON PERIODIC DIRECTION: LATTICE PARAMETER FORMALLY SET TO 500)
 *******************************************************************************
 LATTICE PARAMETERS (ANGSTROMS AND DEGREES) - BOHR = 0.5291772083 ANGSTROM
 PRIMITIVE CELL - CENTRING CODE 1/0 VOLUME=  1602.948694 - DENSITY  0.808 g/cm^3
         A              B              C           ALPHA      BETA       GAMMA 
    15.02361100    15.02391600     8.20000000    90.000323  89.999944 119.995964
 *******************************************************************************
 ATOMS IN THE ASYMMETRIC UNIT   84 - ATOMS IN THE UNIT CELL:   84
     ATOM                 X/A                 Y/B                 Z/C    
 *******************************************************************************
      1 T   5 B    -3.863194600000E-01  2.273182200000E-01  2.505825300000E-01
      2 T   5 B    -3.478961800000E-01  3.041725900000E-01 -2.494174700000E-01
      3 T   5 B    -2.272638000000E-01  3.863778800000E-01  2.505825300000E-01
      4 T   5 B    -1.888405200000E-01  4.632322500000E-01 -2.494174700000E-01
      5 T   5 B    -3.863237300000E-01  3.863606700000E-01  2.493577500000E-01
      6 T   5 B    -3.479004500000E-01  4.632150400000E-01 -2.506422400000E-01
      7 T   5 B     2.272552500000E-01 -3.863667800000E-01  2.505825300000E-01
      8 T   5 B     2.656785300000E-01 -3.095124100000E-01 -2.494174600000E-01
      9 T   5 B     3.863632200000E-01 -3.863875500000E-01  2.505825300000E-01
     10 T   5 B     4.247865000000E-01 -3.095331800000E-01 -2.494174700000E-01
     11 T   5 B     3.863435000000E-01 -2.272483500000E-01  2.493577500000E-01
     12 T   5 B     4.247667800000E-01 -1.503939800000E-01 -2.506422400000E-01
     13 T   1 H    -9.695638000000E-02  3.089300500000E-01  2.480433200000E-01
     14 T   1 H    -5.853310000000E-02  3.857844200000E-01 -2.519566800000E-01
     15 T   1 H     9.663453000000E-02 -3.089465600000E-01  2.476550300000E-01
     16 T   1 H     1.350578100000E-01 -2.320921900000E-01 -2.523449700000E-01
     17 T   1 H    -9.702858000000E-02 -4.059275700000E-01  2.475952700000E-01
     18 T   1 H    -5.860530000000E-02 -3.290732000000E-01 -2.524047300000E-01
     19 T   1 H     9.673618000000E-02  4.056849400000E-01  2.476101700000E-01
     20 T   1 H     1.351594600000E-01  4.825393100000E-01 -2.523898200000E-01
     21 T   1 H    -3.089676000000E-01  9.700412000000E-02  2.519567000000E-01
     22 T   1 H    -2.705443200000E-01  1.738584900000E-01 -2.480433000000E-01
     23 T   1 H     3.089297200000E-01 -9.656269000000E-02  2.523450200000E-01
     24 T   1 H     3.473530000000E-01 -1.970832000000E-02 -2.476549800000E-01
     25 T   1 H     4.058699900000E-01  9.704998000000E-02  2.524048100000E-01
     26 T   1 H     4.442932700000E-01  1.739043500000E-01 -2.475951900000E-01
     27 T   1 H    -4.056877900000E-01 -9.665268000000E-02  2.523898100000E-01
     28 T   1 H    -3.672645100000E-01 -1.979831000000E-02 -2.476101900000E-01
     29 T   1 H    -3.089272600000E-01 -4.059457900000E-01  2.480433400000E-01
     30 T   1 H    -2.705039800000E-01 -3.290914200000E-01 -2.519566600000E-01
     31 T   1 H     3.089618300000E-01  4.056093300000E-01  2.476550100000E-01
     32 T   1 H     3.473851100000E-01  4.824637000000E-01 -2.523449900000E-01
     33 T   1 H     4.058405700000E-01  3.088232500000E-01  2.475952200000E-01
     34 T   1 H     4.442638500000E-01  3.856776200000E-01 -2.524047800000E-01
     35 T   1 H    -4.057091200000E-01 -3.090420700000E-01  2.476102200000E-01
     36 T   1 H    -3.672858400000E-01 -2.321877000000E-01 -2.523897800000E-01
     37 T   6 C    -1.081096900000E-01  4.459436900000E-01  2.493129400000E-01
     38 T   6 C    -6.968641000000E-02 -4.772019400000E-01 -2.506870600000E-01
     39 T   6 C    -5.351089000000E-02  3.927856300000E-01  2.481030700000E-01
     40 T   6 C    -1.508761000000E-02  4.696400000000E-01 -2.518969200000E-01
     41 T   6 C     5.338812000000E-02 -3.928147000000E-01  2.479985600000E-01
     42 T   6 C     9.181140000000E-02 -3.159603300000E-01 -2.520014400000E-01
     43 T   6 C    -5.354789000000E-02 -4.463078100000E-01  2.483122200000E-01
     44 T   6 C    -1.512461000000E-02 -3.694534400000E-01 -2.516877800000E-01
     45 T   6 C     5.342634000000E-02  4.462499700000E-01  2.475056200000E-01
     46 T   6 C     9.184962000000E-02 -4.768956600000E-01 -2.524943800000E-01
     47 T   6 C     1.080358900000E-01 -4.459643700000E-01  2.483271400000E-01
     48 T   6 C     1.464591700000E-01 -3.691100000000E-01 -2.516728600000E-01
     49 T   6 C    -4.459605800000E-01  1.081684600000E-01  2.506871000000E-01
     50 T   6 C    -4.075373000000E-01  1.850228300000E-01 -2.493129000000E-01
     51 T   6 C    -3.928221500000E-01  5.355594000000E-02  2.518969300000E-01
     52 T   6 C    -3.543988700000E-01  1.304103100000E-01 -2.481030700000E-01
     53 T   6 C     3.927986700000E-01 -5.333684000000E-02  2.520014900000E-01
     54 T   6 C     4.312219500000E-01  2.351753000000E-02 -2.479985100000E-01
     55 T   6 C     4.462875800000E-01  5.360286000000E-02  2.516878400000E-01
     56 T   6 C     4.847108600000E-01  1.304572300000E-01 -2.483121600000E-01
     57 T   6 C    -4.462831500000E-01 -5.337644000000E-02  2.524943800000E-01
     58 T   6 C    -4.078598700000E-01  2.347793000000E-02 -2.475056200000E-01
     59 T   6 C     4.459279100000E-01 -1.080079400000E-01  2.516728900000E-01
     60 T   6 C     4.843511900000E-01 -3.115357000000E-02 -2.483271200000E-01
     61 T   6 C    -4.459551300000E-01  4.458745500000E-01  2.493129400000E-01
     62 T   6 C    -4.075318500000E-01 -4.772710800000E-01 -2.506870600000E-01
     63 T   6 C    -3.927897800000E-01 -4.463742200000E-01  2.481031000000E-01
     64 T   6 C    -3.543665000000E-01 -3.695198500000E-01 -2.518969000000E-01
     65 T   6 C     3.928233700000E-01  4.461720300000E-01  2.479985400000E-01
     66 T   6 C     4.312466500000E-01 -4.769736000000E-01 -2.520014600000E-01
     67 T   6 C     4.462872600000E-01  3.926899900000E-01  2.483121800000E-01
     68 T   6 C     4.847105400000E-01  4.695443600000E-01 -2.516878100000E-01
     69 T   6 C    -4.462570400000E-01 -3.929020000000E-01  2.475056500000E-01
     70 T   6 C    -4.078337600000E-01 -3.160476300000E-01 -2.524943500000E-01
     71 T   6 C     4.459599800000E-01 -4.460417700000E-01  2.483271400000E-01
     72 T   6 C     4.843832600000E-01 -3.691874000000E-01 -2.516728600000E-01
     73 T   8 O    -4.392633200000E-01  2.803706300000E-01  2.496863500000E-01
     74 T   8 O    -4.008400400000E-01  3.572250000000E-01 -2.503136500000E-01
     75 T   8 O    -2.803183000000E-01  2.803783300000E-01  2.522703400000E-01
     76 T   8 O    -2.418950200000E-01  3.572327000000E-01 -2.477296700000E-01
     77 T   8 O    -2.803205800000E-01  4.393234600000E-01  2.483719600000E-01
     78 T   8 O    -2.418973000000E-01 -4.838221700000E-01 -2.516280400000E-01
     79 T   8 O     2.803245100000E-01 -2.803488900000E-01  2.496863600000E-01
     80 T   8 O     3.187477900000E-01 -2.034945200000E-01 -2.503136400000E-01
     81 T   8 O     2.803439700000E-01 -4.393043900000E-01  2.522703400000E-01
     82 T   8 O     3.187672500000E-01 -3.624500200000E-01 -2.477296600000E-01
     83 T   8 O     4.392638400000E-01 -2.803645800000E-01  2.483719500000E-01
     84 T   8 O     4.776871200000E-01 -2.035102100000E-01 -2.516280500000E-01

 T = ATOM BELONGING TO THE ASYMMETRIC UNIT

 ****    1 SYMMOPS - TRANSLATORS IN FRACTIONAL UNITS
 **** MATRICES AND TRANSLATORS IN THE CRYSTALLOGRAPHIC REFERENCE FRAME
   V INV                    ROTATION MATRICES                   TRANSLATORS
   1   1  1.00  0.00  0.00  0.00  1.00  0.00  0.00  0.00  1.00  0.00  0.00  0.00

 DIRECT LATTICE VECTORS CARTESIAN COMPONENTS (ANGSTROM)
          X                    Y                    Z
   0.130113578931E+02  -0.751088897922E+01   0.000000000000E+00
   0.000000000000E+00   0.150239160000E+02   0.000000000000E+00
  -0.174306773528E-04  -0.462267905665E-04   0.819999999985E+01


 CARTESIAN COORDINATES - PRIMITIVE CELL
 *******************************************************************************
 *      ATOM          X(ANGSTROM)         Y(ANGSTROM)         Z(ANGSTROM)
 *******************************************************************************
    1     5 B    -5.026545122936E+00  6.316800833494E+00  2.054776745963E+00
    2     5 B    -4.526597360092E+00  7.182884555705E+00 -2.045223253963E+00
    3     5 B    -2.957015005759E+00  7.511850400547E+00  2.054776745963E+00
    4     5 B    -2.457067242915E+00 -6.645981877242E+00 -2.045223253963E+00
    5     5 B    -5.026600660085E+00 -6.317642629158E+00  2.044733549963E+00
    6     5 B    -4.526652897241E+00 -5.451558906948E+00 -2.055266367963E+00
    7     5 B     2.956895023003E+00 -7.511642584231E+00  2.054776745963E+00
    8     5 B     3.456842785846E+00 -6.645558862020E+00 -2.045223171963E+00
    9     5 B     5.027105764311E+00  6.316919070655E+00  2.054776745963E+00
   10     5 B    -7.484304365902E+00 -3.300242279172E-01 -2.045223253963E+00
   11     5 B     5.026849201682E+00 -6.315954784889E+00  2.044733549963E+00
   12     5 B     5.526796964525E+00 -5.449871062679E+00 -2.055266367963E+00
   13     1 H    -1.261538483758E+00  5.369556260836E+00  2.033955223963E+00
   14     1 H    -7.615907209145E-01  6.235639983047E+00 -2.066044775963E+00
   15     1 H     1.257342137862E+00 -5.367409840615E+00  2.030771245963E+00
   16     1 H     1.757289900706E+00 -4.501326118404E+00 -2.069228753962E+00
   17     1 H    -1.262477895988E+00 -5.369862267108E+00  2.030281213963E+00
   18     1 H    -7.625301331445E-01 -4.503778544897E+00 -2.069718785962E+00
   19     1 H     1.258664743174E+00  5.368390306548E+00  2.030403393963E+00
   20     1 H     1.758612506018E+00  6.234474028758E+00 -2.069596523962E+00
   21     1 H    -4.020092412735E+00  3.777991445159E+00  2.066044939963E+00
   22     1 H    -3.520144649891E+00  4.644075167370E+00 -2.033955059963E+00
   23     1 H     4.019590752177E+00 -3.771098237695E+00  2.069229163962E+00
   24     1 H     4.519538515021E+00 -2.905014515484E+00 -2.030770835963E+00
   25     1 H     5.280915298354E+00 -1.590385355428E+00  2.069719441962E+00
   26     1 H     5.780863061198E+00 -7.243016332174E-01 -2.030280557963E+00
   27     1 H    -5.278553427859E+00  1.594962538248E+00  2.069596441962E+00
   28     1 H    -4.778605665015E+00  2.461046260459E+00 -2.030403557963E+00
   29     1 H    -4.019567466345E+00 -3.778588563248E+00  2.033955387963E+00
   30     1 H    -3.519619703501E+00 -2.912504841037E+00 -2.066044611963E+00
   31     1 H     4.020008628629E+00  3.773251050494E+00  2.030771081963E+00
   32     1 H     4.519956391473E+00  4.639334772705E+00 -2.069228917962E+00
   33     1 H     5.280532588040E+00  1.591499656783E+00  2.030280803963E+00
   34     1 H     5.780480350883E+00  2.457583378994E+00 -2.069719195962E+00
   35     1 H    -5.278830876811E+00 -1.595797388196E+00  2.030403803963E+00
   36     1 H    -4.778883113967E+00 -7.297136659854E-01 -2.069596195962E+00
   37     6 C    -1.406658213991E+00  7.511808893520E+00  2.044366107963E+00
   38     6 C    -9.067104511470E-01 -6.646023384269E+00 -2.055633891963E+00
   39     6 C    -6.962536655705E-01  6.303081196087E+00  2.034445173963E+00
   40     6 C    -1.963059027269E-01  7.169164918298E+00 -2.065554743963E+00
   41     6 C     6.946476137746E-01 -6.302618762672E+00  2.033588191963E+00
   42     6 C     1.194595376618E+00 -5.436535040461E+00 -2.066411807962E+00
   43     6 C    -6.967350894582E-01 -6.303110269400E+00  2.036160203963E+00
   44     6 C    -1.967873266144E-01 -5.437026547189E+00 -2.063839795963E+00
   45     6 C     6.951449164655E-01  6.303131314586E+00  2.029546083963E+00
   46     6 C     1.195092679309E+00  7.169215036797E+00 -2.070453915962E+00
   47     6 C     1.405689301575E+00 -7.511588288800E+00  2.036282547963E+00
   48     6 C     1.905637064418E+00 -6.645504566590E+00 -2.063717451963E+00
   49     6 C     7.208800810836E+00 -2.536226305300E+00  2.055634219963E+00
   50     6 C     7.708748573679E+00 -1.670142583089E+00 -2.044365779963E+00
   51     6 C    -5.111153972704E+00  3.755051856702E+00  2.065554825963E+00
   52     6 C    -4.611206209860E+00  4.621135578912E+00 -2.034445173963E+00
   53     6 C     5.110839682730E+00 -3.751607054639E+00  2.066412217962E+00
   54     6 C     5.610787445574E+00 -2.885523332429E+00 -2.033587781963E+00
   55     6 C     5.806803039517E+00 -2.546703234904E+00  2.063840287963E+00
   56     6 C     6.306750802360E+00 -1.680619512694E+00 -2.036159711963E+00
   57     6 C    -5.806754187439E+00  2.550048370001E+00  2.070453915962E+00
   58     6 C    -5.306806424595E+00  3.416132092212E+00 -2.029546083963E+00
   59     6 C     5.802123244684E+00 -4.972028876667E+00  2.063717697963E+00
   60     6 C     6.302071007528E+00 -4.105945154456E+00 -2.036282383963E+00
   61     6 C     7.208871746689E+00  2.537400752726E+00  2.044366107963E+00
   62     6 C    -5.302538383524E+00 -4.109542545846E+00 -2.055633891963E+00
   63     6 C    -5.110732728920E+00 -3.756099825105E+00  2.034445419963E+00
   64     6 C    -4.610784966076E+00 -2.890016102894E+00 -2.065554579963E+00
   65     6 C     5.111161133044E+00  3.752786915581E+00  2.033588027963E+00
   66     6 C     5.611108895888E+00  4.618870637792E+00 -2.066411971962E+00
   67     6 C     5.806798934722E+00  2.547715882427E+00  2.036159875963E+00
   68     6 C     6.306746697566E+00  3.413799604637E+00 -2.063840041963E+00
   69     6 C    -5.806414373927E+00 -2.551151001990E+00  2.029546329963E+00
   70     6 C    -5.306466611083E+00 -1.685067279779E+00 -2.070453669962E+00
   71     6 C     5.802540577250E+00  4.973054536708E+00  2.036282547963E+00
   72     6 C    -6.708869552963E+00 -1.673888761864E+00 -2.063717451963E+00
   73     8 O     7.295941275042E+00  6.223017340462E-04  2.047428069963E+00
   74     8 O     7.795889037886E+00  8.667060239449E-01 -2.052571929963E+00
   75     8 O    -3.647326122516E+00  6.317808446635E+00  2.068616787962E+00
   76     8 O    -3.147378359672E+00  7.183892168846E+00 -2.031383293963E+00
   77     8 O    -3.647355720461E+00 -6.318111966600E+00  2.036650071963E+00
   78     8 O    -3.147407957617E+00 -5.452028244389E+00 -2.063349927963E+00
   79     8 O     3.647398173603E+00 -6.317435989016E+00  2.047428151963E+00
   80     8 O     4.147345936447E+00 -5.451352266805E+00 -2.052571847963E+00
   81     8 O     3.647651329587E+00  6.318199649898E+00  2.068616787962E+00
   82     8 O     4.147599092431E+00  7.184283372109E+00 -2.031383211963E+00
   83     8 O    -7.295943190630E+00 -5.583363412392E-04  2.036649989963E+00
   84     8 O    -6.795995427786E+00  8.655253858696E-01 -2.063350009963E+00

 *******************************************************************************
 STARTING BASIS SET HANDLING 
 *******************************************************************************

 Loading internal basis set: SOLDEF2MSVP         

 Please cite in your publication:
 L. Dona', J. G. Brandenburg and B. Civalleri, J. Chem. Phys., 151, 121101 (2019
 )                                                                              
                                                                                
                    

 *******************************************************************************
 LOCAL ATOMIC FUNCTIONS BASIS SET
 *******************************************************************************
   ATOM   X(AU)   Y(AU)   Z(AU)  N. TYPE  EXPONENT  S COEF   P COEF   D/F/G COEF
 *******************************************************************************
   1 B   -9.499  11.937   3.883
                                  1 S  
                                         2.410E+03 1.755E-03 0.000E+00 0.000E+00
                                         3.619E+02 1.344E-02 0.000E+00 0.000E+00
                                         8.231E+01 6.637E-02 0.000E+00 0.000E+00
                                         2.311E+01 2.303E-01 0.000E+00 0.000E+00
                                         7.252E+00 5.150E-01 0.000E+00 0.000E+00
                                  2 S  
                                         2.367E+00 1.000E+00 0.000E+00 0.000E+00
                                  3 S  
                                         5.533E-01 1.000E+00 0.000E+00 0.000E+00
                                  4 S  
                                         1.716E-01 1.000E+00 0.000E+00 0.000E+00
                           5-     7 P  
                                         6.002E+00 0.000E+00-3.555E-02 0.000E+00
                                         1.240E+00 0.000E+00-1.983E-01 0.000E+00
                                         3.367E-01 0.000E+00-5.048E-01 0.000E+00
                           8-    10 P  
                                         1.256E-01 0.000E+00 1.000E+00 0.000E+00
                          11-    15 D  
                                         8.880E-01 0.000E+00 0.000E+00 1.000E+00
   2 B   -8.554  13.574  -3.865
   3 B   -5.588  14.195   3.883
   4 B   -4.643 -12.559  -3.865
   5 B   -9.499 -11.939   3.864
   6 B   -8.554 -10.302  -3.884
   7 B    5.588 -14.195   3.883
   8 B    6.532 -12.558  -3.865
   9 B    9.500  11.937   3.883
  10 B  -14.143  -0.624  -3.865
  11 B    9.499 -11.935   3.864
  12 B   10.444 -10.299  -3.884
  13 H   -2.384  10.147   3.844
                                181 S  
                                         1.874E+01 1.968E-02 0.000E+00 0.000E+00
                                         2.826E+00 1.380E-01 0.000E+00 0.000E+00
                                         6.401E-01 4.783E-01 0.000E+00 0.000E+00
                                182 S  
                                         1.756E-01 1.000E+00 0.000E+00 0.000E+00
  14 H   -1.439  11.784  -3.904
  15 H    2.376 -10.143   3.838
  16 H    3.321  -8.506  -3.910
  17 H   -2.386 -10.148   3.837
  18 H   -1.441  -8.511  -3.911
  19 H    2.379  10.145   3.837
  20 H    3.323  11.781  -3.911
  21 H   -7.597   7.139   3.904
  22 H   -6.652   8.776  -3.844
  23 H    7.596  -7.126   3.910
  24 H    8.541  -5.490  -3.838
  25 H    9.979  -3.005   3.911
  26 H   10.924  -1.369  -3.837
  27 H   -9.975   3.014   3.911
  28 H   -9.030   4.651  -3.837
  29 H   -7.596  -7.140   3.844
  30 H   -6.651  -5.504  -3.904
  31 H    7.597   7.130   3.838
  32 H    8.541   8.767  -3.910
  33 H    9.979   3.007   3.837
  34 H   10.924   4.644  -3.911
  35 H   -9.976  -3.016   3.837
  36 H   -9.031  -1.379  -3.911
  37 C   -2.658  14.195   3.863
                                229 S  
                                         3.624E+03 1.634E-03 0.000E+00 0.000E+00
                                         5.440E+02 1.252E-02 0.000E+00 0.000E+00
                                         1.237E+02 6.211E-02 0.000E+00 0.000E+00
                                         3.476E+01 2.182E-01 0.000E+00 0.000E+00
                                         1.093E+01 4.980E-01 0.000E+00 0.000E+00
                                230 S  
                                         3.574E+00 1.000E+00 0.000E+00 0.000E+00
                                231 S  
                                         7.742E-01 1.000E+00 0.000E+00 0.000E+00
                                232 S  
                                         2.330E-01 1.000E+00 0.000E+00 0.000E+00
                         233-   235 P  
                                         9.443E+00 0.000E+00 3.790E-02 0.000E+00
                                         2.002E+00 0.000E+00 2.082E-01 0.000E+00
                                         5.463E-01 0.000E+00 5.047E-01 0.000E+00
                         236-   238 P  
                                         1.820E-01 0.000E+00 1.000E+00 0.000E+00
                         239-   243 D  
                                         8.880E-01 0.000E+00 0.000E+00 1.000E+00
  38 C   -1.713 -12.559  -3.885
  39 C   -1.316  11.911   3.845
  40 C   -0.371  13.548  -3.903
  41 C    1.313 -11.910   3.843
  42 C    2.257 -10.274  -3.905
  43 C   -1.317 -11.911   3.848
  44 C   -0.372 -10.274  -3.900
  45 C    1.314  11.911   3.835
  46 C    2.258  13.548  -3.913
  47 C    2.656 -14.195   3.848
  48 C    3.601 -12.558  -3.900
  49 C   13.623  -4.793   3.885
  50 C   14.567  -3.156  -3.863
  51 C   -9.659   7.096   3.903
  52 C   -8.714   8.733  -3.845
  53 C    9.658  -7.090   3.905
  54 C   10.603  -5.453  -3.843
  55 C   10.973  -4.813   3.900
  56 C   11.918  -3.176  -3.848
  57 C  -10.973   4.819   3.913
  58 C  -10.028   6.456  -3.835
  59 C   10.964  -9.396   3.900
  60 C   11.909  -7.759  -3.848
  61 C   13.623   4.795   3.863
  62 C  -10.020  -7.766  -3.885
  63 C   -9.658  -7.098   3.845
  64 C   -8.713  -5.461  -3.903
  65 C    9.659   7.092   3.843
  66 C   10.603   8.728  -3.905
  67 C   10.973   4.814   3.848
  68 C   11.918   6.451  -3.900
  69 C  -10.973  -4.821   3.835
  70 C  -10.028  -3.184  -3.913
  71 C   10.965   9.398   3.848
  72 C  -12.678  -3.163  -3.900
  73 O   13.787   0.001   3.869
                                769 S  
                                         6.773E+03 1.727E-03 0.000E+00 0.000E+00
                                         1.017E+03 1.325E-02 0.000E+00 0.000E+00
                                         2.313E+02 6.603E-02 0.000E+00 0.000E+00
                                         6.501E+01 2.353E-01 0.000E+00 0.000E+00
                                         2.050E+01 5.498E-01 0.000E+00 0.000E+00
                                770 S  
                                         6.716E+00 1.000E+00 0.000E+00 0.000E+00
                                771 S  
                                         1.147E+00 1.000E+00 0.000E+00 0.000E+00
                                772 S  
                                         3.342E-01 1.000E+00 0.000E+00 0.000E+00
                         773-   775 P  
                                         1.769E+01 0.000E+00 4.359E-02 0.000E+00
                                         3.854E+00 0.000E+00 2.318E-01 0.000E+00
                                         1.047E+00 0.000E+00 5.146E-01 0.000E+00
                         776-   778 P  
                                         2.759E-01 0.000E+00 1.000E+00 0.000E+00
                         779-   783 D  
                                         8.000E-01 0.000E+00 0.000E+00 1.000E+00
  74 O   14.732   1.638  -3.879
  75 O   -6.892  11.939   3.909
  76 O   -5.948  13.576  -3.839
  77 O   -6.893 -11.940   3.849
  78 O   -5.948 -10.303  -3.899
  79 O    6.893 -11.938   3.869
  80 O    7.837 -10.302  -3.879
  81 O    6.893  11.940   3.909
  82 O    7.838  13.576  -3.839
  83 O  -13.787  -0.001   3.849
  84 O  -12.843   1.636  -3.899

 *******************************************************************************
 FINISHED BASIS SET HANDLING 
 *******************************************************************************

 INFORMATION **** SET_MPP **** PCRYSTAL CALCULATION
 INFORMATION **** READM2 **** NEW DEFAULT: FOCK/KS MATRIX MIXING SET TO 30 %
 INFORMATION **** READM2 **** NEW DEFAULT: FULL DIRECT SCF MODE
 INFORMATION **** READM2 **** NEW DEFAULT: COULOMB BIPOLAR BUFFER SET TO 32 Mb
 INFORMATION **** READM2 **** NEW DEFAULT: EXCHANGE BIPOLAR BUFFER SET TO 32 Mb

 *******************************************************************************
 NEW DEFAULT: DFT INTEGRATION GRID INCREASED TO XLGRID
 NEW DEFAULT: DIIS ACCELERATOR ACTIVE
 USE KEYWORD NODIIS TO TURN IT OFF
 *******************************************************************************

 WARNING **** RDDFTP **** HSEsol-HJS ACTIVE
 RANGE SEPARATION - OMEGA:   0.110000000000000     
 WARNING **** RDDFTP **** HSEsol-3c has to be combined with sol-def2-mSVP basis set
 *******************************************************************************
 N. OF ATOMS PER CELL        84  COULOMB OVERLAP TOL         (T1) 10**   -6
 NUMBER OF SHELLS           468  COULOMB PENETRATION TOL     (T2) 10**   -6
 NUMBER OF AO               948  EXCHANGE OVERLAP TOL        (T3) 10**   -6
 N. OF ELECTRONS PER CELL   396  EXCHANGE PSEUDO OVP (F(G))  (T4) 10**   -6
 CORE ELECTRONS PER CELL    120  EXCHANGE PSEUDO OVP (P(G))  (T5) 10**  -12
 N. OF SYMMETRY OPERATORS     1  POLE ORDER IN MONO ZONE                  4
 *******************************************************************************
 TYPE OF CALCULATION :  RESTRICTED CLOSED SHELL
 KOHN-SHAM HAMILTONIAN

 (EXCHANGE)[CORRELATION] FUNCTIONAL:(HSEsol GGA)[PBEsol]

 RANGE-SEPARATED HYBRID FUNCTIONAL 
 OMEGA (SHORT-RANGE)[LONG-RANGE]:(    0.1100)[    0.0000]

 HYBRID EXCHANGE - PERCENTAGE OF FOCK EXCHANGE    25.0000

 CAPPA:IS1  2;IS2  2;IS3  8; K PTS MONK NET  20; SYMMOPS:K SPACE   2;G SPACE   1

 *******************************************************************************
 MAX NUMBER OF SCF CYCLES      50  CONVERGENCE ON DELTAP        10**-16
 WEIGHT OF F(I) IN F(I+1)      30% CONVERGENCE ON ENERGY        10**- 6
 SHRINK. FACT.(MONKH.)    2  2  8  NUMBER OF K POINTS IN THE IBZ     20
 SHRINKING FACTOR(GILAT NET)    8  NUMBER OF K POINTS(GILAT NET)   1028
 *******************************************************************************
 *** K POINTS COORDINATES (OBLIQUE COORDINATES IN UNITS OF IS =  2)
   1-R(  0  0  0)   2-R(  1  0  0)   3-R(  0  1  0)   4-R(  1  1  0)
   5-C(  0  0  1)   6-C(  1  0  1)   7-C(  0  1  1)   8-C(  1  1  1)
   9-C(  0  0  2)  10-C(  1  0  2)  11-C(  0  1  2)  12-C(  1  1  2)
  13-C(  0  0  3)  14-C(  1  0  3)  15-C(  0  1  3)  16-C(  1  1  3)
  17-R(  0  0  4)  18-R(  1  0  4)  19-R(  0  1  4)  20-R(  1  1  4)

 DIRECT LATTICE VECTORS COMPON. (A.U.)     RECIP. LATTICE VECTORS COMPON. (A.U.) 
        X            Y            Z              X            Y            Z
   24.5879030  -14.1935232    0.0000000      0.2555397    0.0000000    0.0000005
    0.0000000   28.3910867    0.0000000      0.1277517    0.2213084    0.0000015
   -0.0000329   -0.0000874   15.4957543      0.0000000    0.0000000    0.4054779

 DISK SPACE FOR EIGENVECTORS (FTN 10)    28758528 REALS

 SYMMETRY ADAPTION OF THE BLOCH FUNCTIONS DISABLED
 TTTTTTTTTTTTTTTTTTTTTTTTTTTTTT gordsh1     TELAPSE        0.07 TCPU        0.07

 MATRIX SIZE: P(G)  647416, F(G)  136844, P(G) IRR  325610, F(G) IRR  137804
 MAX G-VECTOR INDEX FOR 1- AND 2-ELECTRON INTEGRALS  47

 TTTTTTTTTTTTTTTTTTTTTTTTTTTTTT INPUT       TELAPSE        3.32 TCPU        3.31

 NEIGHBORS OF THE NON-EQUIVALENT ATOMS

 N = NUMBER OF NEIGHBORS AT DISTANCE R
    ATOM  N     R/ANG      R/AU   NEIGHBORS (ATOM LABELS AND CELL INDICES)
   1 B    1     1.3791     2.6061   73 O   -1 0 0
   1 B    1     1.3793     2.6065   75 O    0 0 0
   1 B    1     1.5503     2.9297   49 C   -1 0 0
   1 B    1     2.3895     4.5155    5 B    0 1 0
   1 B    1     2.3898     4.5160    3 B    0 0 0
   1 B    1     2.5632     4.8437   51 C    0 0 0

   2 B    1     1.3791     2.6061   74 O   -1 0 0
   2 B    1     1.3793     2.6065   76 O    0 0 0
   2 B    1     1.5503     2.9297   50 C   -1 0 0
   2 B    1     2.3895     4.5155    6 B    0 1 0
   2 B    1     2.3898     4.5160    4 B    0 1 0
   2 B    1     2.5632     4.8437   52 C    0 0 0

   3 B    1     1.3793     2.6065   77 O    0 1 0
   3 B    1     1.3793     2.6065   75 O    0 0 0
   3 B    1     1.5504     2.9298   37 C    0 0 0
   3 B    1     2.3895     4.5156    5 B    0 1 0
   3 B    1     2.3898     4.5160    1 B    0 0 0
   3 B    1     2.5634     4.8440   43 C    0 1 0

   4 B    1     1.3793     2.6065   78 O    0 0 0
   4 B    1     1.3793     2.6065   76 O    0-1 0
   4 B    1     1.5504     2.9298   38 C    0 0 0
   4 B    1     2.3895     4.5156    6 B    0 0 0
   4 B    1     2.3898     4.5160    2 B    0-1 0
   4 B    1     2.5634     4.8440   44 C    0 0 0

   5 B    1     1.3791     2.6061   73 O   -1-1 0
   5 B    1     1.3793     2.6064   77 O    0 0 0
   5 B    1     1.5502     2.9294   61 C   -1-1 0
   5 B    1     2.3895     4.5155    1 B    0-1 0
   5 B    1     2.3895     4.5156    3 B    0-1 0
   5 B    1     2.5629     4.8433   63 C    0 0 0

   6 B    1     1.3791     2.6061   74 O   -1-1 0
   6 B    1     1.3793     2.6064   78 O    0 0 0
   6 B    1     1.5502     2.9294   62 C    0 0 0
   6 B    1     2.3895     4.5155    2 B    0-1 0
   6 B    1     2.3895     4.5156    4 B    0 0 0
   6 B    1     2.5629     4.8433   64 C    0 0 0

   7 B    1     1.3795     2.6068   79 O    0 0 0
   7 B    1     1.3795     2.6070   81 O    0-1 0
   7 B    1     1.5513     2.9316   47 C    0 0 0
   7 B    1     2.3905     4.5174   11 B    0 0 0
   7 B    1     2.3905     4.5175    9 B    0-1 0
   7 B    1     2.5648     4.8468   45 C    0-1 0

   8 B    1     1.3795     2.6068   80 O    0 0 0
   8 B    1     1.3795     2.6070   82 O    0-1 0
   8 B    1     1.5513     2.9316   48 C    0 0 0
   8 B    1     2.3905     4.5174   12 B    0 0 0
   8 B    1     2.3905     4.5175   10 B    1 0 0
   8 B    1     2.5648     4.8468   46 C    0-1 0

   9 B    1     1.3795     2.6069   81 O    0 0 0
   9 B    1     1.3797     2.6072   83 O    1 1 0
   9 B    1     1.5516     2.9322   71 C    0 0 0
   9 B    1     2.3905     4.5175    7 B    0 1 0
   9 B    1     2.3911     4.5185   11 B    0 1 0
   9 B    1     2.5651     4.8473   69 C    1 1 0

  10 B    1     1.3795     2.6069   82 O   -1-1 0
  10 B    1     1.3797     2.6072   84 O    0 0 0
  10 B    1     1.5516     2.9322   72 C    0 0 0
  10 B    1     2.3905     4.5175    8 B   -1 0 0
  10 B    1     2.3911     4.5185   12 B   -1 0 0
  10 B    1     2.5651     4.8473   70 C    0 0 0

  11 B    1     1.3795     2.6068   79 O    0 0 0
  11 B    1     1.3796     2.6071   83 O    1 0 0
  11 B    1     1.5516     2.9322   59 C    0 0 0
  11 B    1     2.3905     4.5174    7 B    0 0 0
  11 B    1     2.3911     4.5185    9 B    0-1 0
  11 B    1     2.5651     4.8473   57 C    1 0 0

  12 B    1     1.3795     2.6068   80 O    0 0 0
  12 B    1     1.3796     2.6071   84 O    1 0 0
  12 B    1     1.5516     2.9322   60 C    0 0 0
  12 B    1     2.3905     4.5174    8 B    0 0 0
  12 B    1     2.3911     4.5185   10 B    1 0 0
  12 B    1     2.5651     4.8473   58 C    1 0 0

  13 H    1     1.0913     2.0623   39 C    0 0 0
  13 H    1     2.1472     4.0576   37 C    0 0 0
  13 H    1     2.1680     4.0969   45 C    0 0 0
  13 H    1     2.5202     4.7625   19 H    0 0 0
  13 H    1     2.5676     4.8520   75 O    0 0 0
  13 H    1     2.7321     5.1630    3 B    0 0 0

  14 H    1     1.0913     2.0623   40 C    0 0 0
  14 H    1     2.1472     4.0576   38 C    0 1 0
  14 H    1     2.1680     4.0969   46 C    0 0 0
  14 H    1     2.5202     4.7625   20 H    0 0 0
  14 H    1     2.5676     4.8520   76 O    0 0 0
  14 H    1     2.7321     5.1630    4 B    0 1 0

  15 H    1     1.0914     2.0625   41 C    0 0 0
  15 H    1     2.1493     4.0616   47 C    0 0 0
  15 H    1     2.1666     4.0942   43 C    0 0 0
  15 H    1     2.5198     4.7618   17 H    0 0 0
  15 H    1     2.5720     4.8604   79 O    0 0 0
  15 H    1     2.7362     5.1707    7 B    0 0 0

  16 H    1     1.0914     2.0625   42 C    0 0 0
  16 H    1     2.1493     4.0616   48 C    0 0 0
  16 H    1     2.1666     4.0942   44 C    0 0 0
  16 H    1     2.5198     4.7618   18 H    0 0 0
  16 H    1     2.5720     4.8604   80 O    0 0 0
  16 H    1     2.7362     5.1707    8 B    0 0 0

  17 H    1     1.0914     2.0624   43 C    0 0 0
  17 H    1     2.1471     4.0575   37 C    0-1 0
  17 H    1     2.1680     4.0970   41 C    0 0 0
  17 H    1     2.5198     4.7618   15 H    0 0 0
  17 H    1     2.5665     4.8500   77 O    0 0 0
  17 H    1     2.7315     5.1618    3 B    0-1 0

  18 H    1     1.0914     2.0624   44 C    0 0 0
  18 H    1     2.1471     4.0575   38 C    0 0 0
  18 H    1     2.1680     4.0970   42 C    0 0 0
  18 H    1     2.5198     4.7618   16 H    0 0 0
  18 H    1     2.5665     4.8500   78 O    0 0 0
  18 H    1     2.7315     5.1618    4 B    0 0 0

  19 H    1     1.0915     2.0626   45 C    0 0 0
  19 H    1     2.1490     4.0610   47 C    0 1 0
  19 H    1     2.1669     4.0948   39 C    0 0 0
  19 H    1     2.5202     4.7625   13 H    0 0 0
  19 H    1     2.5712     4.8588   81 O    0 0 0
  19 H    1     2.7351     5.1686    7 B    0 1 0

  20 H    1     1.0915     2.0626   46 C    0 0 0
  20 H    1     2.1490     4.0610   48 C    0 1 0
  20 H    1     2.1669     4.0948   40 C    0 0 0
  20 H    1     2.5202     4.7625   14 H    0 0 0
  20 H    1     2.5712     4.8588   82 O    0 0 0
  20 H    1     2.7351     5.1686    8 B    0 1 0

  21 H    1     1.0913     2.0623   51 C    0 0 0
  21 H    1     2.1469     4.0571   49 C   -1 0 0
  21 H    1     2.1680     4.0968   57 C    0 0 0
  21 H    1     2.5198     4.7617   27 H    0 0 0
  21 H    1     2.5670     4.8510   75 O    0 0 0
  21 H    1     2.7310     5.1609    1 B    0 0 0

  22 H    1     1.0913     2.0623   52 C    0 0 0
  22 H    1     2.1469     4.0571   50 C   -1 0 0
  22 H    1     2.1680     4.0968   58 C    0 0 0
  22 H    1     2.5198     4.7617   28 H    0 0 0
  22 H    1     2.5670     4.8510   76 O    0 0 0
  22 H    1     2.7310     5.1609    2 B    0 0 0

  23 H    1     1.0914     2.0625   53 C    0 0 0
  23 H    1     2.1493     4.0617   59 C    0 0 0
  23 H    1     2.1664     4.0939   55 C    0 0 0
  23 H    1     2.5192     4.7606   25 H    0 0 0
  23 H    1     2.5735     4.8632   79 O    0 0 0
  23 H    1     2.7371     5.1723   11 B    0 0 0

  24 H    1     1.0914     2.0625   54 C    0 0 0
  24 H    1     2.1493     4.0617   60 C    0 0 0
  24 H    1     2.1664     4.0939   56 C    0 0 0
  24 H    1     2.5192     4.7606   26 H    0 0 0
  24 H    1     2.5735     4.8632   80 O    0 0 0
  24 H    1     2.7371     5.1723   12 B    0 0 0

  25 H    1     1.0914     2.0624   55 C    0 0 0
  25 H    1     2.1475     4.0581   49 C    0 0 0
  25 H    1     2.1679     4.0967   53 C    0 0 0
  25 H    1     2.5192     4.7606   23 H    0 0 0
  25 H    1     2.5675     4.8519   73 O    0 0 0
  25 H    1     2.7328     5.1643    1 B    1 0 0

  26 H    1     1.0914     2.0624   56 C    0 0 0
  26 H    1     2.1475     4.0581   50 C    0 0 0
  26 H    1     2.1679     4.0967   54 C    0 0 0
  26 H    1     2.5192     4.7606   24 H    0 0 0
  26 H    1     2.5675     4.8519   74 O    0 0 0
  26 H    1     2.7328     5.1643    2 B    1 0 0

  27 H    1     1.0914     2.0625   57 C    0 0 0
  27 H    1     2.1491     4.0612   59 C   -1 0 0
  27 H    1     2.1666     4.0942   51 C    0 0 0
  27 H    1     2.5198     4.7617   21 H    0 0 0
  27 H    1     2.5723     4.8609   83 O    0 0 0
  27 H    1     2.7355     5.1693   11 B   -1 0 0

  28 H    1     1.0914     2.0625   58 C    0 0 0
  28 H    1     2.1491     4.0612   60 C   -1 0 0
  28 H    1     2.1666     4.0942   52 C    0 0 0
  28 H    1     2.5198     4.7617   22 H    0 0 0
  28 H    1     2.5723     4.8609   84 O    0 0 0
  28 H    1     2.7355     5.1693   12 B   -1 0 0

  29 H    1     1.0914     2.0624   63 C    0 0 0
  29 H    1     2.1475     4.0582   61 C   -1-1 0
  29 H    1     2.1678     4.0966   69 C    0 0 0
  29 H    1     2.5200     4.7621   35 H    0 0 0
  29 H    1     2.5667     4.8503   77 O    0 0 0
  29 H    1     2.7315     5.1618    5 B    0 0 0

  30 H    1     1.0914     2.0624   64 C    0 0 0
  30 H    1     2.1475     4.0582   62 C    0 0 0
  30 H    1     2.1678     4.0966   70 C    0 0 0
  30 H    1     2.5200     4.7621   36 H    0 0 0
  30 H    1     2.5667     4.8503   78 O    0 0 0
  30 H    1     2.7315     5.1618    6 B    0 0 0

  31 H    1     1.0913     2.0623   65 C    0 0 0
  31 H    1     2.1487     4.0605   71 C    0 0 0
  31 H    1     2.1667     4.0945   67 C    0 0 0
  31 H    1     2.5197     4.7616   33 H    0 0 0
  31 H    1     2.5723     4.8610   81 O    0 0 0
  31 H    1     2.7359     5.1701    9 B    0 0 0

  32 H    1     1.0913     2.0623   66 C    0 0 0
  32 H    1     2.1487     4.0605   72 C    1 1 0
  32 H    1     2.1667     4.0945   68 C    0 0 0
  32 H    1     2.5197     4.7616   34 H    0 0 0
  32 H    1     2.5723     4.8610   82 O    0 0 0
  32 H    1     2.7359     5.1701   10 B    1 1 0

  33 H    1     1.0915     2.0626   67 C    0 0 0
  33 H    1     2.1479     4.0589   61 C    0 0 0
  33 H    1     2.1679     4.0968   65 C    0 0 0
  33 H    1     2.5197     4.7616   31 H    0 0 0
  33 H    1     2.5677     4.8522   73 O    0 0 0
  33 H    1     2.7331     5.1648    5 B    1 1 0

  34 H    1     1.0915     2.0626   68 C    0 0 0
  34 H    1     2.1479     4.0589   62 C    1 1 0
  34 H    1     2.1679     4.0968   66 C    0 0 0
  34 H    1     2.5197     4.7616   32 H    0 0 0
  34 H    1     2.5677     4.8522   74 O    0 0 0
  34 H    1     2.7331     5.1648    6 B    1 1 0

  35 H    1     1.0914     2.0624   69 C    0 0 0
  35 H    1     2.1486     4.0602   71 C   -1-1 0
  35 H    1     2.1668     4.0947   63 C    0 0 0
  35 H    1     2.5200     4.7621   29 H    0 0 0
  35 H    1     2.5717     4.8598   83 O    0 0 0
  35 H    1     2.7349     5.1682    9 B   -1-1 0

  36 H    1     1.0914     2.0624   70 C    0 0 0
  36 H    1     2.1486     4.0602   72 C    0 0 0
  36 H    1     2.1668     4.0947   64 C    0 0 0
  36 H    1     2.5200     4.7621   30 H    0 0 0
  36 H    1     2.5717     4.8598   84 O    0 0 0
  36 H    1     2.7349     5.1682   10 B    0 0 0

  37 C    1     1.4020     2.6495   43 C    0 1 0
  37 C    1     1.4021     2.6495   39 C    0 0 0
  37 C    1     1.5504     2.9298    3 B    0 0 0
  37 C    1     2.1471     4.0575   17 H    0 1 0
  37 C    1     2.1472     4.0576   13 H    0 0 0
  37 C    1     2.4246     4.5817   41 C    0 1 0

  38 C    1     1.4020     2.6495   44 C    0 0 0
  38 C    1     1.4021     2.6495   40 C    0-1 0
  38 C    1     1.5504     2.9298    4 B    0 0 0
  38 C    1     2.1471     4.0575   18 H    0 0 0
  38 C    1     2.1472     4.0576   14 H    0-1 0
  38 C    1     2.4246     4.5817   42 C    0 0 0

  39 C    1     1.0913     2.0623   13 H    0 0 0
  39 C    1     1.3914     2.6294   45 C    0 0 0
  39 C    1     1.4021     2.6495   37 C    0 0 0
  39 C    1     2.1669     4.0948   19 H    0 0 0
  39 C    1     2.4177     4.5688   43 C    0 1 0
  39 C    1     2.4250     4.5825   47 C    0 1 0

  40 C    1     1.0913     2.0623   14 H    0 0 0
  40 C    1     1.3914     2.6294   46 C    0 0 0
  40 C    1     1.4021     2.6495   38 C    0 1 0
  40 C    1     2.1669     4.0948   20 H    0 0 0
  40 C    1     2.4177     4.5688   44 C    0 1 0
  40 C    1     2.4250     4.5825   48 C    0 1 0

  41 C    1     1.0914     2.0625   15 H    0 0 0
  41 C    1     1.3914     2.6293   43 C    0 0 0
  41 C    1     1.4026     2.6505   47 C    0 0 0
  41 C    1     2.1680     4.0970   17 H    0 0 0
  41 C    1     2.4182     4.5697   45 C    0-1 0
  41 C    1     2.4246     4.5817   37 C    0-1 0

  42 C    1     1.0914     2.0625   16 H    0 0 0
  42 C    1     1.3914     2.6293   44 C    0 0 0
  42 C    1     1.4026     2.6505   48 C    0 0 0
  42 C    1     2.1680     4.0970   18 H    0 0 0
  42 C    1     2.4182     4.5697   46 C    0-1 0
  42 C    1     2.4246     4.5817   38 C    0 0 0

  43 C    1     1.0914     2.0624   17 H    0 0 0
  43 C    1     1.3914     2.6293   41 C    0 0 0
  43 C    1     1.4020     2.6495   37 C    0-1 0
  43 C    1     2.1666     4.0942   15 H    0 0 0
  43 C    1     2.4177     4.5688   39 C    0-1 0
  43 C    1     2.4250     4.5826   47 C    0 0 0

  44 C    1     1.0914     2.0624   18 H    0 0 0
  44 C    1     1.3914     2.6293   42 C    0 0 0
  44 C    1     1.4020     2.6495   38 C    0 0 0
  44 C    1     2.1666     4.0942   16 H    0 0 0
  44 C    1     2.4177     4.5688   40 C    0-1 0
  44 C    1     2.4250     4.5826   48 C    0 0 0

  45 C    1     1.0915     2.0626   19 H    0 0 0
  45 C    1     1.3914     2.6294   39 C    0 0 0
  45 C    1     1.4025     2.6504   47 C    0 1 0
  45 C    1     2.1680     4.0969   13 H    0 0 0
  45 C    1     2.4182     4.5697   41 C    0 1 0
  45 C    1     2.4246     4.5818   37 C    0 0 0

  46 C    1     1.0915     2.0626   20 H    0 0 0
  46 C    1     1.3914     2.6294   40 C    0 0 0
  46 C    1     1.4025     2.6504   48 C    0 1 0
  46 C    1     2.1680     4.0969   14 H    0 0 0
  46 C    1     2.4182     4.5697   42 C    0 1 0
  46 C    1     2.4246     4.5818   38 C    0 1 0

  47 C    1     1.4025     2.6504   45 C    0-1 0
  47 C    1     1.4026     2.6505   41 C    0 0 0
  47 C    1     1.5513     2.9316    7 B    0 0 0
  47 C    1     2.1490     4.0610   19 H    0-1 0
  47 C    1     2.1493     4.0616   15 H    0 0 0
  47 C    1     2.4250     4.5825   39 C    0-1 0

  48 C    1     1.4025     2.6504   46 C    0-1 0
  48 C    1     1.4026     2.6505   42 C    0 0 0
  48 C    1     1.5513     2.9316    8 B    0 0 0
  48 C    1     2.1490     4.0610   20 H    0-1 0
  48 C    1     2.1493     4.0616   16 H    0 0 0
  48 C    1     2.4250     4.5825   40 C    0-1 0

  49 C    1     1.4020     2.6494   51 C    1 0 0
  49 C    1     1.4021     2.6495   55 C    0 0 0
  49 C    1     1.5503     2.9297    1 B    1 0 0
  49 C    1     2.1469     4.0571   21 H    1 0 0
  49 C    1     2.1475     4.0581   25 H    0 0 0
  49 C    1     2.4246     4.5818   53 C    0 0 0

  50 C    1     1.4020     2.6494   52 C    1 0 0
  50 C    1     1.4021     2.6495   56 C    0 0 0
  50 C    1     1.5503     2.9297    2 B    1 0 0
  50 C    1     2.1469     4.0571   22 H    1 0 0
  50 C    1     2.1475     4.0581   26 H    0 0 0
  50 C    1     2.4246     4.5818   54 C    0 0 0

  51 C    1     1.0913     2.0623   21 H    0 0 0
  51 C    1     1.3914     2.6293   57 C    0 0 0
  51 C    1     1.4020     2.6494   49 C   -1 0 0
  51 C    1     2.1666     4.0942   27 H    0 0 0
  51 C    1     2.4175     4.5684   55 C   -1 0 0
  51 C    1     2.4251     4.5828   59 C   -1 0 0

  52 C    1     1.0913     2.0623   22 H    0 0 0
  52 C    1     1.3914     2.6293   58 C    0 0 0
  52 C    1     1.4020     2.6494   50 C   -1 0 0
  52 C    1     2.1666     4.0942   28 H    0 0 0
  52 C    1     2.4175     4.5684   56 C   -1 0 0
  52 C    1     2.4251     4.5828   60 C   -1 0 0

  53 C    1     1.0914     2.0625   23 H    0 0 0
  53 C    1     1.3915     2.6295   55 C    0 0 0
  53 C    1     1.4026     2.6505   59 C    0 0 0
  53 C    1     2.1679     4.0967   25 H    0 0 0
  53 C    1     2.4179     4.5691   57 C    1 0 0
  53 C    1     2.4246     4.5818   49 C    0 0 0

  54 C    1     1.0914     2.0625   24 H    0 0 0
  54 C    1     1.3915     2.6295   56 C    0 0 0
  54 C    1     1.4026     2.6505   60 C    0 0 0
  54 C    1     2.1679     4.0967   26 H    0 0 0
  54 C    1     2.4179     4.5691   58 C    1 0 0
  54 C    1     2.4246     4.5818   50 C    0 0 0

  55 C    1     1.0914     2.0624   25 H    0 0 0
  55 C    1     1.3915     2.6295   53 C    0 0 0
  55 C    1     1.4021     2.6495   49 C    0 0 0
  55 C    1     2.1664     4.0939   23 H    0 0 0
  55 C    1     2.4175     4.5684   51 C    1 0 0
  55 C    1     2.4253     4.5832   59 C    0 0 0

  56 C    1     1.0914     2.0624   26 H    0 0 0
  56 C    1     1.3915     2.6295   54 C    0 0 0
  56 C    1     1.4021     2.6495   50 C    0 0 0
  56 C    1     2.1664     4.0939   24 H    0 0 0
  56 C    1     2.4175     4.5684   52 C    1 0 0
  56 C    1     2.4253     4.5832   60 C    0 0 0

  57 C    1     1.0914     2.0625   27 H    0 0 0
  57 C    1     1.3914     2.6293   51 C    0 0 0
  57 C    1     1.4025     2.6504   59 C   -1 0 0
  57 C    1     2.1680     4.0968   21 H    0 0 0
  57 C    1     2.4179     4.5691   53 C   -1 0 0
  57 C    1     2.4247     4.5819   49 C   -1 0 0

  58 C    1     1.0914     2.0625   28 H    0 0 0
  58 C    1     1.3914     2.6293   52 C    0 0 0
  58 C    1     1.4025     2.6504   60 C   -1 0 0
  58 C    1     2.1680     4.0968   22 H    0 0 0
  58 C    1     2.4179     4.5691   54 C   -1 0 0
  58 C    1     2.4247     4.5819   50 C   -1 0 0

  59 C    1     1.4025     2.6504   57 C    1 0 0
  59 C    1     1.4026     2.6505   53 C    0 0 0
  59 C    1     1.5516     2.9322   11 B    0 0 0
  59 C    1     2.1491     4.0612   27 H    1 0 0
  59 C    1     2.1493     4.0617   23 H    0 0 0
  59 C    1     2.4251     4.5828   51 C    1 0 0

  60 C    1     1.4025     2.6504   58 C    1 0 0
  60 C    1     1.4026     2.6505   54 C    0 0 0
  60 C    1     1.5516     2.9322   12 B    0 0 0
  60 C    1     2.1491     4.0612   28 H    1 0 0
  60 C    1     2.1493     4.0617   24 H    0 0 0
  60 C    1     2.4251     4.5828   52 C    1 0 0

  61 C    1     1.4021     2.6496   63 C    1 1 0
  61 C    1     1.4021     2.6497   67 C    0 0 0
  61 C    1     1.5502     2.9294    5 B    1 1 0
  61 C    1     2.1475     4.0582   29 H    1 1 0
  61 C    1     2.1479     4.0589   33 H    0 0 0
  61 C    1     2.4244     4.5814   65 C    0 0 0

  62 C    1     1.4021     2.6496   64 C    0 0 0
  62 C    1     1.4021     2.6497   68 C   -1-1 0
  62 C    1     1.5502     2.9294    6 B    0 0 0
  62 C    1     2.1475     4.0582   30 H    0 0 0
  62 C    1     2.1479     4.0589   34 H   -1-1 0
  62 C    1     2.4244     4.5814   66 C   -1-1 0

  63 C    1     1.0914     2.0624   29 H    0 0 0
  63 C    1     1.3914     2.6293   69 C    0 0 0
  63 C    1     1.4021     2.6496   61 C   -1-1 0
  63 C    1     2.1668     4.0947   35 H    0 0 0
  63 C    1     2.4179     4.5692   67 C   -1-1 0
  63 C    1     2.4251     4.5827   71 C   -1-1 0

  64 C    1     1.0914     2.0624   30 H    0 0 0
  64 C    1     1.3914     2.6293   70 C    0 0 0
  64 C    1     1.4021     2.6496   62 C    0 0 0
  64 C    1     2.1668     4.0947   36 H    0 0 0
  64 C    1     2.4179     4.5692   68 C   -1-1 0
  64 C    1     2.4251     4.5827   72 C    0 0 0

  65 C    1     1.0913     2.0623   31 H    0 0 0
  65 C    1     1.3914     2.6294   67 C    0 0 0
  65 C    1     1.4025     2.6504   71 C    0 0 0
  65 C    1     2.1679     4.0968   33 H    0 0 0
  65 C    1     2.4178     4.5690   69 C    1 1 0
  65 C    1     2.4244     4.5814   61 C    0 0 0

  66 C    1     1.0913     2.0623   32 H    0 0 0
  66 C    1     1.3914     2.6294   68 C    0 0 0
  66 C    1     1.4025     2.6504   72 C    1 1 0
  66 C    1     2.1679     4.0968   34 H    0 0 0
  66 C    1     2.4178     4.5690   70 C    1 1 0
  66 C    1     2.4244     4.5814   62 C    1 1 0

  67 C    1     1.0915     2.0626   33 H    0 0 0
  67 C    1     1.3914     2.6294   65 C    0 0 0
  67 C    1     1.4021     2.6497   61 C    0 0 0
  67 C    1     2.1667     4.0945   31 H    0 0 0
  67 C    1     2.4179     4.5692   63 C    1 1 0
  67 C    1     2.4253     4.5832   71 C    0 0 0

  68 C    1     1.0915     2.0626   34 H    0 0 0
  68 C    1     1.3914     2.6294   66 C    0 0 0
  68 C    1     1.4021     2.6497   62 C    1 1 0
  68 C    1     2.1667     4.0945   32 H    0 0 0
  68 C    1     2.4179     4.5692   64 C    1 1 0
  68 C    1     2.4253     4.5832   72 C    1 1 0

  69 C    1     1.0914     2.0624   35 H    0 0 0
  69 C    1     1.3914     2.6293   63 C    0 0 0
  69 C    1     1.4025     2.6503   71 C   -1-1 0
  69 C    1     2.1678     4.0966   29 H    0 0 0
  69 C    1     2.4178     4.5690   65 C   -1-1 0
  69 C    1     2.4245     4.5817   61 C   -1-1 0

  70 C    1     1.0914     2.0624   36 H    0 0 0
  70 C    1     1.3914     2.6293   64 C    0 0 0
  70 C    1     1.4025     2.6503   72 C    0 0 0
  70 C    1     2.1678     4.0966   30 H    0 0 0
  70 C    1     2.4178     4.5690   66 C   -1-1 0
  70 C    1     2.4245     4.5817   62 C    0 0 0

  71 C    1     1.4025     2.6503   69 C    1 1 0
  71 C    1     1.4025     2.6504   65 C    0 0 0
  71 C    1     1.5516     2.9322    9 B    0 0 0
  71 C    1     2.1486     4.0602   35 H    1 1 0
  71 C    1     2.1487     4.0605   31 H    0 0 0
  71 C    1     2.4251     4.5827   63 C    1 1 0

  72 C    1     1.4025     2.6503   70 C    0 0 0
  72 C    1     1.4025     2.6504   66 C   -1-1 0
  72 C    1     1.5516     2.9322   10 B    0 0 0
  72 C    1     2.1486     4.0602   36 H    0 0 0
  72 C    1     2.1487     4.0605   32 H   -1-1 0
  72 C    1     2.4251     4.5827   64 C    0 0 0

  73 O    1     1.3791     2.6061    1 B    1 0 0
  73 O    1     1.3791     2.6061    5 B    1 1 0
  73 O    1     2.3880     4.5126   75 O    1 0 0
  73 O    1     2.3882     4.5130   77 O    1 1 0
  73 O    1     2.5383     4.7966   61 C    0 0 0
  73 O    1     2.5384     4.7968   49 C    0 0 0

  74 O    1     1.3791     2.6061    2 B    1 0 0
  74 O    1     1.3791     2.6061    6 B    1 1 0
  74 O    1     2.3880     4.5126   76 O    1 0 0
  74 O    1     2.3882     4.5130   78 O    1 1 0
  74 O    1     2.5383     4.7966   62 C    1 1 0
  74 O    1     2.5384     4.7968   50 C    0 0 0

  75 O    1     1.3793     2.6065    1 B    0 0 0
  75 O    1     1.3793     2.6065    3 B    0 0 0
  75 O    1     2.3880     4.5126   73 O   -1 0 0
  75 O    1     2.3882     4.5131   77 O    0 1 0
  75 O    1     2.5391     4.7981   37 C    0 0 0
  75 O    1     2.5395     4.7990   49 C   -1 0 0

  76 O    1     1.3793     2.6065    2 B    0 0 0
  76 O    1     1.3793     2.6065    4 B    0 1 0
  76 O    1     2.3880     4.5126   74 O   -1 0 0
  76 O    1     2.3882     4.5131   78 O    0 1 0
  76 O    1     2.5391     4.7981   38 C    0 1 0
  76 O    1     2.5395     4.7990   50 C   -1 0 0

  77 O    1     1.3793     2.6064    5 B    0 0 0
  77 O    1     1.3793     2.6065    3 B    0-1 0
  77 O    1     2.3882     4.5130   73 O   -1-1 0
  77 O    1     2.3882     4.5131   75 O    0-1 0
  77 O    1     2.5390     4.7980   37 C    0-1 0
  77 O    1     2.5391     4.7982   61 C   -1-1 0

  78 O    1     1.3793     2.6064    6 B    0 0 0
  78 O    1     1.3793     2.6065    4 B    0 0 0
  78 O    1     2.3882     4.5130   74 O   -1-1 0
  78 O    1     2.3882     4.5131   76 O    0-1 0
  78 O    1     2.5390     4.7980   38 C    0 0 0
  78 O    1     2.5391     4.7982   62 C    0 0 0

  79 O    1     1.3795     2.6068   11 B    0 0 0
  79 O    1     1.3795     2.6068    7 B    0 0 0
  79 O    1     2.3880     4.5126   83 O    1 0 0
  79 O    1     2.3884     4.5134   81 O    0-1 0
  79 O    1     2.5400     4.7998   47 C    0 0 0
  79 O    1     2.5403     4.8005   59 C    0 0 0

  80 O    1     1.3795     2.6068   12 B    0 0 0
  80 O    1     1.3795     2.6068    8 B    0 0 0
  80 O    1     2.3880     4.5126   84 O    1 0 0
  80 O    1     2.3884     4.5134   82 O    0-1 0
  80 O    1     2.5400     4.7998   48 C    0 0 0
  80 O    1     2.5403     4.8005   60 C    0 0 0

  81 O    1     1.3795     2.6069    9 B    0 0 0
  81 O    1     1.3795     2.6070    7 B    0 1 0
  81 O    1     2.3881     4.5128   83 O    1 1 0
  81 O    1     2.3884     4.5134   79 O    0 1 0
  81 O    1     2.5404     4.8006   47 C    0 1 0
  81 O    1     2.5405     4.8008   71 C    0 0 0

  82 O    1     1.3795     2.6069   10 B    1 1 0
  82 O    1     1.3795     2.6070    8 B    0 1 0
  82 O    1     2.3881     4.5128   84 O    1 1 0
  82 O    1     2.3884     4.5134   80 O    0 1 0
  82 O    1     2.5404     4.8006   48 C    0 1 0
  82 O    1     2.5405     4.8008   72 C    1 1 0

  83 O    1     1.3796     2.6071   11 B   -1 0 0
  83 O    1     1.3797     2.6072    9 B   -1-1 0
  83 O    1     2.3880     4.5126   79 O   -1 0 0
  83 O    1     2.3881     4.5128   81 O   -1-1 0
  83 O    1     2.5409     4.8016   71 C   -1-1 0
  83 O    1     2.5410     4.8019   59 C   -1 0 0

  84 O    1     1.3796     2.6071   12 B   -1 0 0
  84 O    1     1.3797     2.6072   10 B    0 0 0
  84 O    1     2.3880     4.5126   80 O   -1 0 0
  84 O    1     2.3881     4.5128   82 O   -1-1 0
  84 O    1     2.5409     4.8016   72 C    0 0 0
  84 O    1     2.5410     4.8019   60 C   -1 0 0


 SYMMETRY ALLOWED INTERNAL DEGREE(S) OF FREEDOM: 249
 TTTTTTTTTTTTTTTTTTTTTTTTTTTTTT SYMM        TELAPSE        3.32 TCPU        3.32
 TTTTTTTTTTTTTTTTTTTTTTTTTTTTTT INT_SCREEN  TELAPSE        3.53 TCPU        3.52

 DFT PARAMETERS

     ATOM       ELECTRONS   NET CHARGE   R(ANGSTROM)
   1   5  B       5.0000      0.0000     0.89000000
  13   1  H       1.0000      0.0000     1.11000000
  37   6  C       6.0000      0.0000     0.77000000
  73   8  O       8.0000      0.0000     0.74000000

 SIZE OF GRID=    2632124
 TTTTTTTTTTTTTTTTTTTTTTTTTTTTTT MAKE_GRID2  TELAPSE       23.76 TCPU       23.74
 BECKE WEIGHT FUNCTION
 RADSAFE =     2.00
 TOLERANCES - DENSITY:10**- 6; POTENTIAL:10**- 9; GRID WGT:10**-14

 RADIAL INTEGRATION  - INTERVALS (POINTS,UPPER LIMIT):            1( 75,  4.0*R)

 ANGULAR INTEGRATION - INTERVALS (ACCURACY LEVEL [N. POINTS] UPPER LIMIT):
  1(  4[  86]   0.2)  2(  8[ 194]   0.5)  3( 12[ 350]   0.9)  4( 16[ 974]   3.5)
  5( 12[ 350]9999.0)
 TTTTTTTTTTTTTTTTTTTTTTTTTTTTTT INT_CALC    TELAPSE       24.02 TCPU       24.00
 EEEEEEEEEE INT_CALC TERMINATION  DATE 19 02 2026 TIME 20:25:40.9

 *******************************************************************************
 cof-1_z41_L010_serr                                                             
 CRYSTAL - SCF - TYPE OF CALCULATION :  RESTRICTED CLOSED SHELL
 *******************************************************************************

 CAPPA:IS1  2;IS2  2;IS3  8; K PTS MONK NET  20; SYMMOPS:K SPACE   2;G SPACE   1

 TTTTTTTTTTTTTTTTTTTTTTTTTTTTTT SDIK        TELAPSE       26.33 TCPU       59.78

 AAAAAAAAAAAAAAAAAAAAAAAAAAAAAAAAAAAAAAAAAAAAAAAAAAAAAAAAAAAAAAAAAAAAAAAAAAAAAAA
         ATOMIC WAVEFUNCTION(S)


 NUCLEAR CHARGE  5.0  SYMMETRY SPECIES            S    P
 N. ELECTRONS    5.0  NUMBER OF PRIMITIVE GTOS    8    4
                      NUMBER OF CONTRACTED GTOS   4    2
                      NUMBER OF CLOSED SHELLS     2    0
                      OPEN SHELL OCCUPATION       0    1

  ZNUC  SCFIT    TOTAL HF ENERGY   KINETIC ENERGY   VIRIAL THEOREM ACCURACY
   5.0    11    -2.451164084E+01  2.462155050E+01 -1.995536038E+00  1.5E-06

 NUCLEAR CHARGE  1.0  SYMMETRY SPECIES            S
 N. ELECTRONS    1.0  NUMBER OF PRIMITIVE GTOS    4
                      NUMBER OF CONTRACTED GTOS   2
                      NUMBER OF CLOSED SHELLS     0
                      OPEN SHELL OCCUPATION       1

  ZNUC  SCFIT    TOTAL HF ENERGY   KINETIC ENERGY   VIRIAL THEOREM ACCURACY
   1.0     1    -4.977266687E-01  5.190767460E-01 -1.958869132E+00  0.0E+00

 NUCLEAR CHARGE  6.0  SYMMETRY SPECIES            S    P
 N. ELECTRONS    6.0  NUMBER OF PRIMITIVE GTOS    8    4
                      NUMBER OF CONTRACTED GTOS   4    2
                      NUMBER OF CLOSED SHELLS     2    0
                      OPEN SHELL OCCUPATION       0    2

  ZNUC  SCFIT    TOTAL HF ENERGY   KINETIC ENERGY   VIRIAL THEOREM ACCURACY
   6.0     9    -3.766704647E+01  3.775180683E+01 -1.997754800E+00  1.1E-06

 NUCLEAR CHARGE  8.0  SYMMETRY SPECIES            S    P
 N. ELECTRONS    8.0  NUMBER OF PRIMITIVE GTOS    8    4
                      NUMBER OF CONTRACTED GTOS   4    2
                      NUMBER OF CLOSED SHELLS     2    0
                      OPEN SHELL OCCUPATION       0    4

  ZNUC  SCFIT    TOTAL HF ENERGY   KINETIC ENERGY   VIRIAL THEOREM ACCURACY
   8.0    12    -7.477373220E+01  7.477365593E+01 -2.000001020E+00  3.8E-06

 AAAAAAAAAAAAAAAAAAAAAAAAAAAAAAAAAAAAAAAAAAAAAAAAAAAAAAAAAAAAAAAAAAAAAAAAAAAAAAA

 CHARGE NORMALIZATION FACTOR   1.00000000
 TOTAL ATOMIC CHARGES:
   5.0000000   5.0000000   5.0000000   5.0000000   5.0000000   5.0000000
   5.0000000   5.0000000   5.0000000   5.0000000   5.0000000   5.0000000
   1.0000000   1.0000000   1.0000000   1.0000000   1.0000000   1.0000000
   1.0000000   1.0000000   1.0000000   1.0000000   1.0000000   1.0000000
   1.0000000   1.0000000   1.0000000   1.0000000   1.0000000   1.0000000
   1.0000000   1.0000000   1.0000000   1.0000000   1.0000000   1.0000000
   6.0000000   6.0000000   6.0000000   6.0000000   6.0000000   6.0000000
   6.0000000   6.0000000   6.0000000   6.0000000   6.0000000   6.0000000
   6.0000000   6.0000000   6.0000000   6.0000000   6.0000000   6.0000000
   6.0000000   6.0000000   6.0000000   6.0000000   6.0000000   6.0000000
   6.0000000   6.0000000   6.0000000   6.0000000   6.0000000   6.0000000
   6.0000000   6.0000000   6.0000000   6.0000000   6.0000000   6.0000000
   8.0000000   8.0000000   8.0000000   8.0000000   8.0000000   8.0000000
   8.0000000   8.0000000   8.0000000   8.0000000   8.0000000   8.0000000
 TTTTTTTTTTTTTTTTTTTTTTTTTTTTTT MOQGAD      TELAPSE       26.48 TCPU       64.08
 TTTTTTTTTTTTTTTTTTTTTTTTTTTTTT SHELLXN     TELAPSE       44.12 TCPU      626.11
 TTTTTTTTTTTTTTTTTTTTTTTTTTTTTT MONMO3      TELAPSE       44.72 TCPU      645.20
 NUMERICALLY INTEGRATED DENSITY    396.0000424115
 TTTTTTTTTTTTTTTTTTTTTTTTTTTTTT NUMDFT      TELAPSE       46.22 TCPU      693.30
 CYC   0 ETOT(AU) -2.591913325341E+03 DETOT -2.59E+03 tst  0.00E+00 PX  1.00E+00
 TTTTTTTTTTTTTTTTTTTTTTTTTTTTTT DIIS        TELAPSE       46.33 TCPU      696.82
 TTTTTTTTTTTTTTTTTTTTTTTTTTTTTT FDIK        TELAPSE       48.29 TCPU      759.25
 INSULATING STATE
 TOP OF VALENCE BANDS -    BAND    198; K    1; EIG -3.0900711E-01 AU
 BOTTOM OF VIRTUAL BANDS - BAND    199; K    1; EIG -1.6181307E-01 AU
 DIRECT ENERGY BAND GAP:   4.0054 eV
 TTTTTTTTTTTTTTTTTTTTTTTTTTTTTT PDIG        TELAPSE       49.93 TCPU      766.04
 CHARGE NORMALIZATION FACTOR   1.00000000
 TOTAL ATOMIC CHARGES:
   4.1599972   4.1493003   4.1521583   4.1568016   4.1523917   4.1570535
   4.1566771   4.1520557   4.1564610   4.1518323   4.1489866   4.1596543
   0.7853939   0.7855677   0.7856810   0.7855078   0.7856355   0.7852681
   0.7853853   0.7857529   0.7853014   0.7855636   0.7857282   0.7854674
   0.7852908   0.7855528   0.7856905   0.7854307   0.7856383   0.7852695
   0.7854507   0.7858184   0.7853460   0.7855207   0.7856753   0.7855015
   6.0474493   6.0460521   6.2674311   6.2658839   6.2658408   6.2673901
   6.2662752   6.2668582   6.2667985   6.2662091   6.0453138   6.0466827
   6.0447852   6.0480346   6.2660015   6.2670197   6.2670896   6.2660764
   6.2659189   6.2669285   6.2671036   6.2661015   6.0467867   6.0435652
   6.0478172   6.0464120   6.2660343   6.2666271   6.2671799   6.2665804
   6.2670541   6.2655104   6.2661259   6.2676654   6.0448368   6.0462184
   8.6945605   8.6957894   8.6946631   8.6958970   8.6960338   8.6930197
   8.6962068   8.6949780   8.6934190   8.6964319   8.6963793   8.6951559
 TTTTTTTTTTTTTTTTTTTTTTTTTTTTTT MOQGAD      TELAPSE       50.03 TCPU      766.14
 TTTTTTTTTTTTTTTTTTTTTTTTTTTTTT SHELLXN     TELAPSE       67.71 TCPU     1330.03
 TTTTTTTTTTTTTTTTTTTTTTTTTTTTTT MONMO3      TELAPSE       68.31 TCPU     1349.10
 NUMERICALLY INTEGRATED DENSITY    396.0000390745
 TTTTTTTTTTTTTTTTTTTTTTTTTTTTTT NUMDFT      TELAPSE       69.84 TCPU     1397.97
 CYC   1 ETOT(AU) -2.577618279769E+03 DETOT  1.43E+01 tst  0.00E+00 PX  1.00E+00
 TTTTTTTTTTTTTTTTTTTTTTTTTTTTTT DIIS        TELAPSE       69.97 TCPU     1402.38
 DIIS TEST: 0.22730E+01 AT SCF   CYCLE   1 - MIX   30 %
 TTTTTTTTTTTTTTTTTTTTTTTTTTTTTT FDIK        TELAPSE       71.95 TCPU     1465.63
 INSULATING STATE
 TOP OF VALENCE BANDS -    BAND    198; K    1; EIG -2.1464467E-01 AU
 BOTTOM OF VIRTUAL BANDS - BAND    199; K    1; EIG -8.3746223E-02 AU
 DIRECT ENERGY BAND GAP:   3.5619 eV
 TTTTTTTTTTTTTTTTTTTTTTTTTTTTTT PDIG        TELAPSE       73.59 TCPU     1472.44
 CHARGE NORMALIZATION FACTOR   1.00000000
 TOTAL ATOMIC CHARGES:
   4.6993907   4.7222121   4.7150913   4.7043088   4.7151204   4.7043327
   4.7046989   4.7154928   4.7046920   4.7154255   4.7225482   4.6997708
   0.9166687   0.9182397   0.9183222   0.9167280   0.9176105   0.9185323
   0.9185902   0.9176292   0.9187654   0.9153424   0.9153907   0.9188741
   0.9187470   0.9153286   0.9153695   0.9188536   0.9175969   0.9185367
   0.9186649   0.9177035   0.9166198   0.9181846   0.9183321   0.9167229
   5.8727803   5.8537139   6.1370405   6.1071338   6.1076737   6.1375220
   6.1229522   6.1335481   6.1341246   6.1236579   5.8565184   5.8756127
   5.8413209   5.8853815   6.1173066   6.1339454   6.1347968   6.1180495
   6.1175626   6.1342152   6.1347125   6.1179318   5.8888151   5.8447540
   5.8727344   5.8536892   6.1230153   6.1335662   6.1339809   6.1235271
   6.1372446   6.1073257   6.1074277   6.1372914   5.8566952   5.8758340
   8.3352642   8.3397833   8.3356264   8.3401765   8.3455157   8.3352008
   8.3396760   8.3351215   8.3349076   8.3452899   8.3400787   8.3355200
 TTTTTTTTTTTTTTTTTTTTTTTTTTTTTT MOQGAD      TELAPSE       73.69 TCPU     1472.54
 TTTTTTTTTTTTTTTTTTTTTTTTTTTTTT SHELLXN     TELAPSE       91.37 TCPU     2036.50
 TTTTTTTTTTTTTTTTTTTTTTTTTTTTTT MONMO3      TELAPSE       91.97 TCPU     2055.61
 NUMERICALLY INTEGRATED DENSITY    396.0000570941
 TTTTTTTTTTTTTTTTTTTTTTTTTTTTTT NUMDFT      TELAPSE       93.50 TCPU     2104.51
 CYC   2 ETOT(AU) -2.578007499036E+03 DETOT -3.89E-01 tst  4.62E-03 PX  1.58E-01
 TTTTTTTTTTTTTTTTTTTTTTTTTTTTTT DIIS        TELAPSE       93.66 TCPU     2109.65
 DIIS TEST: 0.96718E+00 AT SCF   CYCLE   2 - DIIS ACTIVE - HISTORY:     2 CYCLES
 TTTTTTTTTTTTTTTTTTTTTTTTTTTTTT FDIK        TELAPSE       95.65 TCPU     2173.01
 INSULATING STATE
 TOP OF VALENCE BANDS -    BAND    198; K    1; EIG -2.3028435E-01 AU
 BOTTOM OF VIRTUAL BANDS - BAND    199; K    1; EIG -7.9610404E-02 AU
 DIRECT ENERGY BAND GAP:   4.1000 eV
 TTTTTTTTTTTTTTTTTTTTTTTTTTTTTT PDIG        TELAPSE       97.28 TCPU     2179.81
 CHARGE NORMALIZATION FACTOR   1.00000000
 TOTAL ATOMIC CHARGES:
   4.4945904   4.5016105   4.4987651   4.4955461   4.4989311   4.4956790
   4.4950913   4.4983215   4.4949407   4.4980654   4.5008873   4.4938632
   0.8933027   0.8881329   0.8882079   0.8935003   0.8897629   0.8930563
   0.8931976   0.8898683   0.8901227   0.8910508   0.8913536   0.8902896
   0.8901575   0.8911048   0.8912727   0.8902167   0.8897572   0.8930828
   0.8932524   0.8899307   0.8933182   0.8881411   0.8881629   0.8934489
   5.8863260   5.8959394   6.1560427   6.1643490   6.1636268   6.1552778
   6.1622154   6.1593825   6.1585848   6.1613045   5.8944860   5.8848616
   5.9017583   5.8833879   6.1633691   6.1568546   6.1560314   6.1626836
   6.1634344   6.1569347   6.1560356   6.1626715   5.8814041   5.8999696
   5.8866569   5.8962894   6.1621482   6.1592250   6.1587538   6.1614721
   6.1559116   6.1642373   6.1636497   6.1553341   5.8941497   5.8845365
   8.5102172   8.5102413   8.5103612   8.5104363   8.5098411   8.5088621
   8.5103641   8.5103968   8.5090253   8.5098584   8.5105235   8.5105937
 TTTTTTTTTTTTTTTTTTTTTTTTTTTTTT MOQGAD      TELAPSE       97.39 TCPU     2179.91
 TTTTTTTTTTTTTTTTTTTTTTTTTTTTTT SHELLXN     TELAPSE      115.01 TCPU     2742.21
 TTTTTTTTTTTTTTTTTTTTTTTTTTTTTT MONMO3      TELAPSE      115.61 TCPU     2761.26
 NUMERICALLY INTEGRATED DENSITY    396.0000533546
 TTTTTTTTTTTTTTTTTTTTTTTTTTTTTT NUMDFT      TELAPSE      117.14 TCPU     2810.10
 CYC   3 ETOT(AU) -2.578207482010E+03 DETOT -2.00E-01 tst  7.38E-04 PX  6.16E-02
 TTTTTTTTTTTTTTTTTTTTTTTTTTTTTT DIIS        TELAPSE      117.32 TCPU     2815.90
 DIIS TEST: 0.24135E-01 AT SCF   CYCLE   3 - DIIS ACTIVE - HISTORY:     3 CYCLES
 TTTTTTTTTTTTTTTTTTTTTTTTTTTTTT FDIK        TELAPSE      119.29 TCPU     2878.99
 INSULATING STATE
 TOP OF VALENCE BANDS -    BAND    198; K    1; EIG -2.3961256E-01 AU
 BOTTOM OF VIRTUAL BANDS - BAND    199; K    1; EIG -8.8742439E-02 AU
 DIRECT ENERGY BAND GAP:   4.1054 eV
 TTTTTTTTTTTTTTTTTTTTTTTTTTTTTT PDIG        TELAPSE      120.93 TCPU     2885.80
 CHARGE NORMALIZATION FACTOR   1.00000000
 TOTAL ATOMIC CHARGES:
   4.5008533   4.5102694   4.5058571   4.5011669   4.5060036   4.5012822
   4.5016294   4.5062886   4.5014975   4.5060526   4.5104586   4.5011782
   0.8736205   0.8759682   0.8760712   0.8736278   0.8747629   0.8753202
   0.8753741   0.8747503   0.8763100   0.8726584   0.8726474   0.8764595
   0.8763218   0.8726804   0.8725869   0.8764110   0.8747696   0.8753506
   0.8754330   0.8748061   0.8736208   0.8759586   0.8760408   0.8735834
   5.9497163   5.9296674   6.1707978   6.1468655   6.1480910   6.1718724
   6.1598392   6.1650254   6.1662340   6.1614135   5.9338427   5.9539570
   5.9177584   5.9622562   6.1515614   6.1692565   6.1709055   6.1529092
   6.1516112   6.1693492   6.1709606   6.1529210   5.9668909   5.9223834
   5.9497308   5.9297017   6.1597337   6.1648666   6.1663253   6.1615406
   6.1706603   6.1467218   6.1481695   6.1719694   5.9338597   5.9540144
   8.4784690   8.4831295   8.4787409   8.4834535   8.4877432   8.4775471
   8.4833342   8.4785504   8.4774873   8.4879267   8.4836714   8.4788965
 TTTTTTTTTTTTTTTTTTTTTTTTTTTTTT MOQGAD      TELAPSE      121.03 TCPU     2885.90
 TTTTTTTTTTTTTTTTTTTTTTTTTTTTTT SHELLXN     TELAPSE      138.66 TCPU     3448.18
 TTTTTTTTTTTTTTTTTTTTTTTTTTTTTT MONMO3      TELAPSE      139.26 TCPU     3467.25
 NUMERICALLY INTEGRATED DENSITY    396.0000529659
 TTTTTTTTTTTTTTTTTTTTTTTTTTTTTT NUMDFT      TELAPSE      140.78 TCPU     3516.11
 CYC   4 ETOT(AU) -2.578212126981E+03 DETOT -4.64E-03 tst  2.63E-05 PX  1.92E-02
 TTTTTTTTTTTTTTTTTTTTTTTTTTTTTT DIIS        TELAPSE      140.99 TCPU     3522.63
 DIIS TEST: 0.88894E-02 AT SCF   CYCLE   4 - DIIS ACTIVE - HISTORY:     4 CYCLES
 TTTTTTTTTTTTTTTTTTTTTTTTTTTTTT FDIK        TELAPSE      142.96 TCPU     3585.48
 INSULATING STATE
 TOP OF VALENCE BANDS -    BAND    198; K    1; EIG -2.3824147E-01 AU
 BOTTOM OF VIRTUAL BANDS - BAND    199; K    1; EIG -8.8002739E-02 AU
 DIRECT ENERGY BAND GAP:   4.0882 eV
 TTTTTTTTTTTTTTTTTTTTTTTTTTTTTT PDIG        TELAPSE      144.60 TCPU     3592.29
 CHARGE NORMALIZATION FACTOR   1.00000000
 TOTAL ATOMIC CHARGES:
   4.5004587   4.5131964   4.5086379   4.5027179   4.5087866   4.5028438
   4.5024016   4.5083566   4.5022688   4.5081217   4.5126914   4.4999133
   0.8785037   0.8765926   0.8767050   0.8787501   0.8772639   0.8787767
   0.8789664   0.8774291   0.8773911   0.8769589   0.8772990   0.8775775
   0.8774038   0.8769886   0.8772344   0.8775241   0.8772559   0.8788005
   0.8790283   0.8774973   0.8784941   0.8765761   0.8766804   0.8787175
   5.9219937   5.9217471   6.1657860   6.1599052   6.1588294   6.1647081
   6.1643558   6.1676866   6.1665341   6.1629818   5.9193616   5.9196163
   5.9210804   5.9239666   6.1642308   6.1649029   6.1637563   6.1632827
   6.1643633   6.1650453   6.1637286   6.1632209   5.9213131   5.9185781
   5.9222579   5.9220312   6.1643039   6.1675507   6.1666369   6.1630876
   6.1657465   6.1598785   6.1587854   6.1646921   5.9191184   5.9193924
   8.4891575   8.4904821   8.4893364   8.4907142   8.4921986   8.4885099
   8.4904455   8.4892170   8.4885456   8.4920177   8.4906544   8.4894552
 TTTTTTTTTTTTTTTTTTTTTTTTTTTTTT MOQGAD      TELAPSE      144.71 TCPU     3592.39
 TTTTTTTTTTTTTTTTTTTTTTTTTTTTTT SHELLXN     TELAPSE      162.33 TCPU     4154.73
 TTTTTTTTTTTTTTTTTTTTTTTTTTTTTT MONMO3      TELAPSE      162.93 TCPU     4173.75
 NUMERICALLY INTEGRATED DENSITY    396.0000530661
 TTTTTTTTTTTTTTTTTTTTTTTTTTTTTT NUMDFT      TELAPSE      164.46 TCPU     4222.57
 CYC   5 ETOT(AU) -2.578214156484E+03 DETOT -2.03E-03 tst  1.16E-05 PX  1.07E-02
 TTTTTTTTTTTTTTTTTTTTTTTTTTTTTT DIIS        TELAPSE      164.69 TCPU     4229.19
 DIIS TEST: 0.35704E-03 AT SCF   CYCLE   5 - DIIS ACTIVE - HISTORY:     5 CYCLES
 TTTTTTTTTTTTTTTTTTTTTTTTTTTTTT FDIK        TELAPSE      166.67 TCPU     4292.15
 INSULATING STATE
 TOP OF VALENCE BANDS -    BAND    198; K    1; EIG -2.3768344E-01 AU
 BOTTOM OF VIRTUAL BANDS - BAND    199; K    1; EIG -8.7399777E-02 AU
 DIRECT ENERGY BAND GAP:   4.0894 eV
 TTTTTTTTTTTTTTTTTTTTTTTTTTTTTT PDIG        TELAPSE      168.31 TCPU     4298.95
 CHARGE NORMALIZATION FACTOR   1.00000000
 TOTAL ATOMIC CHARGES:
   4.5012704   4.5115530   4.5073911   4.5025024   4.5075380   4.5026209
   4.5029808   4.5078074   4.5028513   4.5075719   4.5117059   4.5015939
   0.8792368   0.8784392   0.8785200   0.8791928   0.8784176   0.8802700
   0.8802834   0.8783591   0.8796714   0.8777311   0.8776900   0.8798173
   0.8796931   0.8777651   0.8776197   0.8797589   0.8784210   0.8802986
   0.8803418   0.8784161   0.8792444   0.8784363   0.8784851   0.8791441
   5.9214546   5.9128055   6.1669821   6.1551989   6.1568601   6.1684571
   6.1621261   6.1642428   6.1659148   6.1642920   5.9181449   5.9268414
   5.9076731   5.9279793   6.1574339   6.1662435   6.1682757   6.1590999
   6.1574420   6.1662909   6.1683552   6.1591458   5.9334616   5.9131678
   5.9215417   5.9129137   6.1620322   6.1640863   6.1660373   6.1644414
   6.1668027   6.1550217   6.1569573   6.1685800   5.9180727   5.9268022
   8.4887853   8.4914044   8.4890272   8.4917007   8.4938126   8.4876277
   8.4917419   8.4889484   8.4876662   8.4941824   8.4920295   8.4892557
 TTTTTTTTTTTTTTTTTTTTTTTTTTTTTT MOQGAD      TELAPSE      168.41 TCPU     4299.06
 TTTTTTTTTTTTTTTTTTTTTTTTTTTTTT SHELLXN     TELAPSE      186.05 TCPU     4861.75
 TTTTTTTTTTTTTTTTTTTTTTTTTTTTTT MONMO3      TELAPSE      186.65 TCPU     4880.82
 NUMERICALLY INTEGRATED DENSITY    396.0000531205
 TTTTTTTTTTTTTTTTTTTTTTTTTTTTTT NUMDFT      TELAPSE      188.18 TCPU     4929.75
 CYC   6 ETOT(AU) -2.578214177617E+03 DETOT -2.11E-05 tst  4.03E-06 PX  3.31E-03
 TTTTTTTTTTTTTTTTTTTTTTTTTTTTTT DIIS        TELAPSE      188.43 TCPU     4936.36
 DIIS TEST: 0.27733E-03 AT SCF   CYCLE   6 - DIIS ACTIVE - HISTORY:     6 CYCLES
 TTTTTTTTTTTTTTTTTTTTTTTTTTTTTT FDIK        TELAPSE      190.42 TCPU     4999.72
 INSULATING STATE
 TOP OF VALENCE BANDS -    BAND    198; K    1; EIG -2.3781132E-01 AU
 BOTTOM OF VIRTUAL BANDS - BAND    199; K    1; EIG -8.7403699E-02 AU
 DIRECT ENERGY BAND GAP:   4.0928 eV
 TTTTTTTTTTTTTTTTTTTTTTTTTTTTTT PDIG        TELAPSE      192.06 TCPU     5006.53
 CHARGE NORMALIZATION FACTOR   1.00000000
 TOTAL ATOMIC CHARGES:
   4.5012774   4.5121642   4.5078938   4.5027793   4.5080427   4.5029023
   4.5026124   4.5077431   4.5024799   4.5075064   4.5117782   4.5009065
   0.8792859   0.8781637   0.8782702   0.8794725   0.8783380   0.8800447
   0.8801983   0.8784570   0.8791884   0.8777494   0.8779983   0.8793591
   0.8792036   0.8777792   0.8779329   0.8793053   0.8783358   0.8800722
   0.8802572   0.8785193   0.8792836   0.8781539   0.8782406   0.8794329
   5.9238898   5.9183792   6.1666296   6.1569060   6.1563914   6.1660745
   6.1631544   6.1658513   6.1652582   6.1624737   5.9175854   5.9231264
   5.9149606   5.9286929   6.1601414   6.1658317   6.1653867   6.1597727
   6.1602429   6.1659572   6.1653845   6.1597357   5.9278800   5.9142492
   5.9240832   5.9185914   6.1630767   6.1656991   6.1653746   6.1626043
   6.1665429   6.1568257   6.1563979   6.1661068   5.9174119   5.9229780
   8.4884867   8.4907090   8.4886884   8.4909644   8.4930327   8.4876091
   8.4907514   8.4885725   8.4876292   8.4929479   8.4909939   8.4888387
 TTTTTTTTTTTTTTTTTTTTTTTTTTTTTT MOQGAD      TELAPSE      192.16 TCPU     5006.63
 TTTTTTTTTTTTTTTTTTTTTTTTTTTTTT SHELLXN     TELAPSE      209.82 TCPU     5570.00
 TTTTTTTTTTTTTTTTTTTTTTTTTTTTTT MONMO3      TELAPSE      210.42 TCPU     5589.04
 NUMERICALLY INTEGRATED DENSITY    396.0000531048
 TTTTTTTTTTTTTTTTTTTTTTTTTTTTTT NUMDFT      TELAPSE      211.94 TCPU     5637.87
 CYC   7 ETOT(AU) -2.578214247504E+03 DETOT -6.99E-05 tst  1.32E-06 PX  1.72E-03
 TTTTTTTTTTTTTTTTTTTTTTTTTTTTTT DIIS        TELAPSE      212.22 TCPU     5644.58
 DIIS TEST: 0.15624E-04 AT SCF   CYCLE   7 - DIIS ACTIVE - HISTORY:     7 CYCLES
 TTTTTTTTTTTTTTTTTTTTTTTTTTTTTT FDIK        TELAPSE      214.21 TCPU     5707.79
 INSULATING STATE
 TOP OF VALENCE BANDS -    BAND    198; K    1; EIG -2.3784183E-01 AU
 BOTTOM OF VIRTUAL BANDS - BAND    199; K    1; EIG -8.7443957E-02 AU
 DIRECT ENERGY BAND GAP:   4.0925 eV
 TTTTTTTTTTTTTTTTTTTTTTTTTTTTTT PDIG        TELAPSE      215.85 TCPU     5714.59
 CHARGE NORMALIZATION FACTOR   1.00000000
 TOTAL ATOMIC CHARGES:
   4.5010836   4.5122940   4.5079746   4.5027106   4.5081228   4.5028334
   4.5027439   4.5079988   4.5026118   4.5077626   4.5120752   4.5009204
   0.8793177   0.8780572   0.8781546   0.8794339   0.8783203   0.8799937
   0.8801028   0.8783833   0.8790473   0.8777849   0.8779526   0.8792137
   0.8790643   0.8778168   0.8778853   0.8791580   0.8783176   0.8800201
   0.8801629   0.8784463   0.8793164   0.8780477   0.8781248   0.8793936
   5.9226682   5.9178498   6.1660213   6.1568212   6.1569607   6.1660768
   6.1627161   6.1655676   6.1656787   6.1629218   5.9189226   5.9237699
   5.9147855   5.9271190   6.1602278   6.1651768   6.1654482   6.1604491
   6.1603085   6.1652807   6.1654655   6.1604321   5.9281190   5.9158657
   5.9228522   5.9180543   6.1626441   6.1654213   6.1657897   6.1630470
   6.1659218   6.1567290   6.1569784   6.1661210   5.9187575   5.9236308
   8.4885123   8.4905797   8.4887204   8.4908414   8.4927726   8.4876484
   8.4907056   8.4886142   8.4876845   8.4928366   8.4909521   8.4888852
 TTTTTTTTTTTTTTTTTTTTTTTTTTTTTT MOQGAD      TELAPSE      215.95 TCPU     5714.69
 TTTTTTTTTTTTTTTTTTTTTTTTTTTTTT SHELLXN     TELAPSE      233.62 TCPU     6278.52
 TTTTTTTTTTTTTTTTTTTTTTTTTTTTTT MONMO3      TELAPSE      234.22 TCPU     6297.59
 NUMERICALLY INTEGRATED DENSITY    396.0000531055
 TTTTTTTTTTTTTTTTTTTTTTTTTTTTTT NUMDFT      TELAPSE      235.75 TCPU     6346.50
 CYC   8 ETOT(AU) -2.578214251218E+03 DETOT -3.71E-06 tst  7.10E-08 PX  3.97E-04
 TTTTTTTTTTTTTTTTTTTTTTTTTTTTTT DIIS        TELAPSE      236.05 TCPU     6353.18
 DIIS TEST: 0.18973E-05 AT SCF   CYCLE   8 - DIIS ACTIVE - HISTORY:     8 CYCLES
 TTTTTTTTTTTTTTTTTTTTTTTTTTTTTT FDIK        TELAPSE      238.04 TCPU     6416.55
 INSULATING STATE
 TOP OF VALENCE BANDS -    BAND    198; K    1; EIG -2.3783778E-01 AU
 BOTTOM OF VIRTUAL BANDS - BAND    199; K    1; EIG -8.7462266E-02 AU
 DIRECT ENERGY BAND GAP:   4.0919 eV
 TTTTTTTTTTTTTTTTTTTTTTTTTTTTTT PDIG        TELAPSE      239.68 TCPU     6423.35
 CHARGE NORMALIZATION FACTOR   1.00000000
 TOTAL ATOMIC CHARGES:
   4.5011411   4.5123695   4.5080447   4.5027680   4.5081926   4.5028902
   4.5027578   4.5080323   4.5026262   4.5077965   4.5121165   4.5009353
   0.8792638   0.8780566   0.8781565   0.8793958   0.8782913   0.8799697
   0.8800905   0.8783685   0.8790612   0.8777359   0.8779207   0.8792287
   0.8790779   0.8777673   0.8778537   0.8791734   0.8782893   0.8799966
   0.8801502   0.8784308   0.8792628   0.8780473   0.8781265   0.8793551
   5.9229301   5.9178309   6.1662208   6.1568409   6.1568371   6.1661426
   6.1628676   6.1656107   6.1655522   6.1628617   5.9184713   5.9236013
   5.9145846   5.9275212   6.1601381   6.1654182   6.1655355   6.1602305
   6.1602184   6.1655229   6.1655533   6.1602137   5.9281321   5.9152813
   5.9231086   5.9180295   6.1627928   6.1654622   6.1656653   6.1629897
   6.1661185   6.1567454   6.1568581   6.1661901   5.9183117   5.9234680
   8.4885509   8.4906684   8.4887598   8.4909311   8.4928758   8.4876534
   8.4907786   8.4886524   8.4876803   8.4929004   8.4910268   8.4889246
 TTTTTTTTTTTTTTTTTTTTTTTTTTTTTT MOQGAD      TELAPSE      239.78 TCPU     6423.45
 TTTTTTTTTTTTTTTTTTTTTTTTTTTTTT SHELLXN     TELAPSE      257.46 TCPU     6987.43
 TTTTTTTTTTTTTTTTTTTTTTTTTTTTTT MONMO3      TELAPSE      258.06 TCPU     7006.52
 NUMERICALLY INTEGRATED DENSITY    396.0000531091
 TTTTTTTTTTTTTTTTTTTTTTTTTTTTTT NUMDFT      TELAPSE      259.59 TCPU     7055.41
 CYC   9 ETOT(AU) -2.578214251427E+03 DETOT -2.09E-07 tst  3.88E-09 PX  1.46E-04
 TTTTTTTTTTTTTTTTTTTTTTTTTTTTTT DIIS        TELAPSE      259.91 TCPU     7062.11
 DIIS TEST: 0.33650E-07 AT SCF   CYCLE   9 - DIIS ACTIVE - HISTORY:     9 CYCLES
 TTTTTTTTTTTTTTTTTTTTTTTTTTTTTT FDIK        TELAPSE      261.90 TCPU     7125.41
 INSULATING STATE
 TOP OF VALENCE BANDS -    BAND    198; K    1; EIG -2.3783976E-01 AU
 BOTTOM OF VIRTUAL BANDS - BAND    199; K    1; EIG -8.7455591E-02 AU
 DIRECT ENERGY BAND GAP:   4.0922 eV
 TTTTTTTTTTTTTTTTTTTTTTTTTTTTTT PDIG        TELAPSE      263.54 TCPU     7132.22
 CHARGE NORMALIZATION FACTOR   1.00000000
 TOTAL ATOMIC CHARGES:
   4.5011484   4.5123261   4.5080055   4.5027552   4.5081537   4.5028779
   4.5027472   4.5079938   4.5026152   4.5077576   4.5120735   4.5009427
   0.8792612   0.8780588   0.8781586   0.8793928   0.8782949   0.8799683
   0.8800869   0.8783700   0.8790591   0.8777359   0.8779203   0.8792262
   0.8790754   0.8777669   0.8778537   0.8791713   0.8782926   0.8799952
   0.8801465   0.8784326   0.8792596   0.8780492   0.8781289   0.8793527
   5.9229125   5.9178233   6.1662470   6.1568307   6.1568302   6.1661723
   6.1628452   6.1656311   6.1655961   6.1628659   5.9185010   5.9236192
   5.9146255   5.9275069   6.1601516   6.1654167   6.1655399   6.1602510
   6.1602385   6.1655275   6.1655511   6.1602277   5.9281236   5.9153268
   5.9230985   5.9180290   6.1627709   6.1654825   6.1657093   6.1629935
   6.1661507   6.1567413   6.1568451   6.1662135   5.9183342   5.9234783
   8.4885383   8.4906588   8.4887446   8.4909188   8.4928862   8.4876586
   8.4907662   8.4886362   8.4876923   8.4929196   8.4910118   8.4889059
 TTTTTTTTTTTTTTTTTTTTTTTTTTTTTT MOQGAD      TELAPSE      263.64 TCPU     7132.32
 TTTTTTTTTTTTTTTTTTTTTTTTTTTTTT SHELLXN     TELAPSE      281.31 TCPU     7695.93
 +++ ENERGIES IN A.U. +++
 ::: EXT EL-POLE                                  -2.4081354386861E+03
 ::: EXT EL-SPHEROPOLE                             2.7899536682377E+01
 ::: BIELET ZONE E-E                               4.2379770079642E+03
 ::: TOTAL E-E                                     1.8577411059605E+03
 ::: TOTAL E-N + N-E                              -7.3754366935043E+03
 ::: TOTAL N-N                                     6.4705334585244E+02
 ::: KINETIC ENERGY                                2.5598545524874E+03
 ::: PSEUDO TOTAL   ENERGY                        -2.3107876892040E+03
 ::: VIRIAL COEFFICIENT                            1.0511363493610E+00
 TTTTTTTTTTTTTTTTTTTTTTTTTTTTTT MONMO3      TELAPSE      281.91 TCPU     7715.03
 NUMERICALLY INTEGRATED DENSITY    396.0000531088
 EXCHANGE ENERGY: -0.252046904537E+03  CORRELATION ENERGY: -0.153796577488E+02
 TTTTTTTTTTTTTTTTTTTTTTTTTTTTTT NUMDFT      TELAPSE      283.44 TCPU     7763.90
 CYC  10 ETOT(AU) -2.578214251490E+03 DETOT -6.33E-08 tst  6.73E-11 PX  1.46E-04

 == SCF ENDED - CONVERGENCE ON ENERGY      E(AU) -2.5782142514903E+03 CYCLES  10


 ENERGY EXPRESSION=HARTREE+FOCK EXCH*0.00000+(HSESOL     EXCH)*1.00000+PBESOL     CORR


 TOTAL ENERGY(DFT)(AU)( 10) -2.5782142514903E+03 DE-6.3E-08 tester 6.7E-11
 TTTTTTTTTTTTTTTTTTTTTTTTTTTTTT EDFT        TELAPSE      283.44 TCPU     7763.91
 
 INFORMATION **** DFTD3 ENERGY **** CALCULATE DFTD3 ENERGY

           DFT-D V3(BJ)
 DF                                         hsesol3c  
 parameters
 s6       :    1.0000
 s8       :    0.0000
 a1       :    0.5196
 a2       :    4.9385
 k1 k3    :   16.0000   -4.0000
 Cutoff   :   50.2022
 CN-Cutoff:   21.1671
 ABC-Cutoff:   21.1671
 
 Edisp /kcal,au:   -50.6065 -0.08064651

 E6    /kcal :   -53.9536
 E8    /kcal :     0.0000
 E6(ABC) "   :   3.347110
 
 INFORMATION **** DFTD3 ENERGY **** NORMAL TERMINATION OF DFTD3 MODULE

 GCP ENERGY CALCULATION
  level        hsesol3c            basis:hsesol3c
  Nbf            948
  Atoms           84

  Parameters: 
  sigma     1.0000
  eta       1.4281
  alpha     0.2936
  beta      1.9467

  dmp_scal      4.0000
  dmp_exp       6.0000
 cutoffs: 
   distance [bohr] 60.0
   noise    [a.u.] 2.2E-16
 SR-damping   T
 ** gCP correction **
  Egcp:        0.1659062608 / (a.u.) ||     104.1078 / (kcal/mol)
 INFORMATION **** GCP **** NORMAL TERMINATION OF GCP MODULE

 *******************************************************************************

 DFT-D3-GCP DISPERSION AND COUNTERPOISE CORRECTION

 D3 DISPERSION ENERGY (AU)      -8.0646508597324E-02
 GCP ENERGY (AU)                 1.6590626083924E-01
 TOTAL ENERGY + DISP + GCP (AU) -2.5781289917380E+03

 *******************************************************************************

 EIGENVECTORS IN FORTRAN UNIT  8
 TTTTTTTTTTTTTTTTTTTTTTTTTTTTTT END         TELAPSE      286.28 TCPU     7772.51
 EEEEEEEEEE TERMINATION  DATE 19 02 2026 TIME 20:30:03.2
