 Default number of threads is:           32

         
 *******************************************************************************
 *                                                                             *
 *                               CRYSTAL23                                     *
 *                      public : 1.0.1 - October 2022                          *
 *                       HTTP://WWW.CRYSTAL.UNITO.IT                           *
 *                                                                             *
 *                              MAIN AUTHORS                                   *
 *                                                                             *
 *  R. DOVESI(1,11), V.R. SAUNDERS(2), C. ROETTI(1,11), R. ORLANDO(1,11),      *
 *  C.M. ZICOVICH-WILSON(1,3), F. PASCALE(4), B. CIVALLERI(1,11),              *
 *  K. DOLL(5), N.M. HARRISON(6), I.J. BUSH(7), Ph. D'ARCO(8),                 *
 *  M. LLUNELL(9), M. CAUSA'(10), Y. NOEL(8), L. MASCHIO(1,11), A. ERBA(1,11)  *
 *  M. RE'RAT(14), S. CASASSA(1,11), B.G. SEARLE(2), J.K. DESMARAIS(1)         *
 *                                                                             *
 *        CONTRIBUTIONS TO THE CODE HAVE ALSO BEEN GIVEN BY                    *
 *                                                                             *
 *  M. FERRABONE(1,11), M. DE LA PIERRE(1,11), M. FERRERO(1,11),               *
 *  J. BAIMA(1,11), E. ALBANESE(1,11), M.F. PEINTINGER(12), R. BAST(13),       *
 *  B. KIRTMAN(15), V. LACIVITA(1,11), R. DEMICHELIS(1,16)                     *
 *  G. BRANDEBURG(17), S. SALUSTRO(1,11), G. SANSONE(1,11)                     *
 *  M.T. RUGGIERO(18), L.E. DAGA(1), L. DONA'(1), A. COSSARD(1)                *
 *                                                                             *
 * (1) THEORETICAL CHEMISTRY GROUP - UNIVERSITA' DI TORINO - TORINO (ITALY)    *
 * (2) SCIENTIFIC COMPUTING DEPARTMENT - STFC DARESBURY (UK)                   *
 * (3) UNIVERSIDAD AUTONOMA DEL ESTADO DE MORELOS - CUERNAVACA (MEXICO)        *
 * (4) UNIVERSITE' DE LORRAINE - NANCY (FRANCE)                                *
 * (5) UNIVERSITAET STUTTGART- STUTTGART (GERMANY)                             *
 * (6) IMPERIAL COLLEGE - LONDON (UK)                                          *
 * (7) SCIENTIFIC COMPUTING DEPARTMENT - STFC RAL (UK)                         *
 * (8) UPMC - SORBONNE UNIVERSITES - PARIS (FRANCE)                            *
 * (9) UNIVERSIDAD DE BARCELONA - BARCELONA (SPAIN)                            *
 *(10) UNIVERSITA' DI NAPOLI "FEDERICO II" - NAPOLI (ITALY)                    *
 *(11) NIS - NANOSTRUCTURED INTERFACES AND SURFACES - TORINO (ITALY)           *
 *(12) MPI FUER CHEMISCHE ENERGIEKONVERSION - MUELHEIM AN DER RUHR (GERMANY)   *
 *(13) UNIVERSITY OF TROMSO - TROMSO (NORWAY)                                  *
 *(14) UNIVERSITE' DE PAU ET DES PAYS DE L'ADOUR - PAU (FRANCE)                *
 *(15) UNIVERSITY OF CALIFORNIA SANTA BARBARA - SANTA BARBARA (USA)            *
 *(16) CURTIN UNIVERSITY - PERTH (AUSTRALIA)                                   *
 *(17) UNIVERSITY COLLEGE LONDON - LONDON (UK)                                 *
 *(18) UNIVERSITY OF VERMONT - BURLINGTON (USA)                                *
 *                                                                             *
 *******************************************************************************
 EEEEEEEEEE STARTING  DATE 02 12 2025 TIME 08:01:57.7
 COF-5_z38_inc_L075                                                              

 CRYSTAL CALCULATION
 (INPUT ACCORDING TO THE INTERNATIONAL TABLES FOR X-RAY CRYSTALLOGRAPHY)
 CRYSTAL FAMILY                       :  TRICLINIC   
 CRYSTAL CLASS  (GROTH - 1921)        :  TRICLINIC PEDIAL                     

 SPACE GROUP (NONCENTROSYMMETRIC)     :  P 1             

 LATTICE PARAMETERS  (ANGSTROMS AND DEGREES) - CONVENTIONAL CELL
        A           B           C        ALPHA        BETA       GAMMA
    15.02070    15.04439     8.40774    39.45843    89.99968   120.05310


 NUMBER OF IRREDUCIBLE ATOMS IN THE CONVENTIONAL CELL:   42

 INPUT COORDINATES

 ATOM AT. N.              COORDINATES
   1   5     4.709924600000E-01 -6.025471000000E-02  5.006114000000E-01
   2   5     6.297689800000E-01  9.876625000000E-02  5.006213900000E-01
   3   5     4.709503500000E-01  9.927717000000E-02  4.991915300000E-01
   4   5     8.278085000000E-02  3.232677400000E-01  5.054059900000E-01
   5   5     2.401872800000E-01  3.204380200000E-01  5.094495500000E-01
   6   5     2.421831300000E-01  4.832121800000E-01  5.034844100000E-01
   7   1     7.586713300000E-01  1.897370000000E-02  5.045094700000E-01
   8   1    -4.353264000000E-02  4.075400300000E-01  4.929201100000E-01
   9   1     7.621250300000E-01  3.103202000000E-01  4.927818200000E-01
  10   1    -4.676466000000E-02  1.164359200000E-01  5.040780800000E-01
  11   1     4.487395400000E-01  6.128323800000E-01  5.042001400000E-01
  12   1     2.653871300000E-01 -1.862039600000E-01  4.945522000000E-01
  13   1     1.666693300000E-01  6.193315800000E-01  4.958589300000E-01
  14   1     5.473787900000E-01 -1.924056400000E-01  5.023389600000E-01
  15   1     4.501986200000E-01  4.038796200000E-01  4.977562500000E-01
  16   1     2.604956100000E-01  1.749615000000E-02  5.060386900000E-01
  17   1     1.632369600000E-01  1.136277500000E-01  5.056738400000E-01
  18   1     5.477203900000E-01  3.074828000000E-01  4.986896200000E-01
  19   6     7.491337000000E-01  1.583393200000E-01  5.003714100000E-01
  20   6     8.031477400000E-01  1.041457300000E-01  5.021373600000E-01
  21   6    -8.798846000000E-02  3.221637600000E-01  4.957450000000E-01
  22   6     8.049356700000E-01  2.684446700000E-01  4.960821300000E-01
  23   6    -8.963567000000E-02  1.580814000000E-01  5.014937000000E-01
  24   6    -3.450369000000E-02  2.670108600000E-01  4.993106200000E-01
  25   6     3.016175700000E-01  6.035280100000E-01  5.018527500000E-01
  26   6     4.093781200000E-01  6.577853500000E-01  5.022429000000E-01
  27   6     3.044428300000E-01 -2.316308800000E-01  4.969669700000E-01
  28   6     2.500013700000E-01  6.607696500000E-01  4.980855500000E-01
  29   6     4.638766500000E-01 -2.345203100000E-01  5.008056100000E-01
  30   6     4.116663700000E-01 -1.785916500000E-01  4.991814900000E-01
  31   6     3.017671500000E-01  2.655689000000E-01  4.999526400000E-01
  32   6     4.097756400000E-01  3.191414900000E-01  4.994012100000E-01
  33   6     3.016313600000E-01  1.025069200000E-01  5.039243600000E-01
  34   6     2.479055100000E-01  1.559026400000E-01  5.033164700000E-01
  35   6     4.633182200000E-01  2.655365500000E-01  5.003394900000E-01
  36   6     4.102048700000E-01  1.570980500000E-01  5.015812300000E-01
  37   8     4.181733000000E-01 -6.846020000000E-03  4.995813700000E-01
  38   8     5.764690200000E-01 -8.270800000000E-03  5.025711600000E-01
  39   8     5.773830600000E-01  1.530759200000E-01  4.980518300000E-01
  40   8     1.363960800000E-01  4.306776800000E-01  5.027178200000E-01
  41   8     1.339933100000E-01  2.673038100000E-01  5.102049300000E-01
  42   8     2.944905700000E-01  4.289645500000E-01  5.051893400000E-01

 *******************************************************************************

 << INFORMATION >>: FROM NOW ON, ALL COORDINATES REFER TO THE PRIMITIVE CELL

 *******************************************************************************

 LATTICE PARAMETERS  (ANGSTROMS AND DEGREES) - PRIMITIVE CELL
       A          B          C        ALPHA      BETA     GAMMA        VOLUME
   15.02070   15.04439    8.40774    39.45843  89.99968 120.05310    743.356657

 COORDINATES OF THE EQUIVALENT ATOMS (FRACTIONAL UNITS)

 N. ATOM EQUIV AT. N.          X                  Y                  Z

   1   1   1    5 B     4.70992460000E-01 -6.02547100000E-02 -4.99388600000E-01

   2   2   1    5 B    -3.70231020000E-01  9.87662500000E-02 -4.99378610000E-01

   3   3   1    5 B     4.70950350000E-01  9.92771700000E-02  4.99191530000E-01

   4   4   1    5 B     8.27808500000E-02  3.23267740000E-01 -4.94594010000E-01

   5   5   1    5 B     2.40187280000E-01  3.20438020000E-01 -4.90550450000E-01

   6   6   1    5 B     2.42183130000E-01  4.83212180000E-01 -4.96515590000E-01

   7   7   1    1 H    -2.41328670000E-01  1.89737000000E-02 -4.95490530000E-01

   8   8   1    1 H    -4.35326400000E-02  4.07540030000E-01  4.92920110000E-01

   9   9   1    1 H    -2.37874970000E-01  3.10320200000E-01  4.92781820000E-01

  10  10   1    1 H    -4.67646600000E-02  1.16435920000E-01 -4.95921920000E-01

  11  11   1    1 H     4.48739540000E-01 -3.87167620000E-01 -4.95799860000E-01

  12  12   1    1 H     2.65387130000E-01 -1.86203960000E-01  4.94552200000E-01

  13  13   1    1 H     1.66669330000E-01 -3.80668420000E-01  4.95858930000E-01

  14  14   1    1 H    -4.52621210000E-01 -1.92405640000E-01 -4.97661040000E-01

  15  15   1    1 H     4.50198620000E-01  4.03879620000E-01  4.97756250000E-01

  16  16   1    1 H     2.60495610000E-01  1.74961500000E-02 -4.93961310000E-01

  17  17   1    1 H     1.63236960000E-01  1.13627750000E-01 -4.94326160000E-01

  18  18   1    1 H    -4.52279610000E-01  3.07482800000E-01  4.98689620000E-01

  19  19   1    6 C    -2.50866300000E-01  1.58339320000E-01 -4.99628590000E-01

  20  20   1    6 C    -1.96852260000E-01  1.04145730000E-01 -4.97862640000E-01

  21  21   1    6 C    -8.79884600000E-02  3.22163760000E-01  4.95745000000E-01

  22  22   1    6 C    -1.95064330000E-01  2.68444670000E-01  4.96082130000E-01

  23  23   1    6 C    -8.96356700000E-02  1.58081400000E-01 -4.98506300000E-01

  24  24   1    6 C    -3.45036900000E-02  2.67010860000E-01  4.99310620000E-01

  25  25   1    6 C     3.01617570000E-01 -3.96471990000E-01 -4.98147250000E-01

  26  26   1    6 C     4.09378120000E-01 -3.42214650000E-01 -4.97757100000E-01

  27  27   1    6 C     3.04442830000E-01 -2.31630880000E-01  4.96966970000E-01

  28  28   1    6 C     2.50001370000E-01 -3.39230350000E-01  4.98085550000E-01

  29  29   1    6 C     4.63876650000E-01 -2.34520310000E-01 -4.99194390000E-01

  30  30   1    6 C     4.11666370000E-01 -1.78591650000E-01  4.99181490000E-01

  31  31   1    6 C     3.01767150000E-01  2.65568900000E-01  4.99952640000E-01

  32  32   1    6 C     4.09775640000E-01  3.19141490000E-01  4.99401210000E-01

  33  33   1    6 C     3.01631360000E-01  1.02506920000E-01 -4.96075640000E-01

  34  34   1    6 C     2.47905510000E-01  1.55902640000E-01 -4.96683530000E-01

  35  35   1    6 C     4.63318220000E-01  2.65536550000E-01 -4.99660510000E-01

  36  36   1    6 C     4.10204870000E-01  1.57098050000E-01 -4.98418770000E-01

  37  37   1    8 O     4.18173300000E-01 -6.84602000000E-03  4.99581370000E-01

  38  38   1    8 O    -4.23530980000E-01 -8.27080000000E-03 -4.97428840000E-01

  39  39   1    8 O    -4.22616940000E-01  1.53075920000E-01  4.98051830000E-01

  40  40   1    8 O     1.36396080000E-01  4.30677680000E-01 -4.97282180000E-01

  41  41   1    8 O     1.33993310000E-01  2.67303810000E-01 -4.89795070000E-01

  42  42   1    8 O     2.94490570000E-01  4.28964550000E-01 -4.94810660000E-01

 NUMBER OF SYMMETRY OPERATORS         :    1
 *******************************************************************************
 * GEOMETRY EDITING - INPUT COORDINATES ARE GIVEN IN ANGSTROM         
 *******************************************************************************

 GCALCO - MAX INDICES DIRECT LATTICE VECTOR     9    15    23
 NO.OF VECTORS CREATED 6999 STARS 3500 RMAX   212.94953 BOHR

 GEOMETRY FOR WAVE FUNCTION - DIMENSIONALITY OF THE SYSTEM    3
 (NON PERIODIC DIRECTION: LATTICE PARAMETER FORMALLY SET TO 500)
 *******************************************************************************
 LATTICE PARAMETERS (ANGSTROMS AND DEGREES) - BOHR = 0.5291772083 ANGSTROM
 PRIMITIVE CELL - CENTRING CODE 1/0 VOLUME=   743.356657 - DENSITY  0.871 g/cm^3
         A              B              C           ALPHA      BETA       GAMMA 
    15.02070100    15.04438700     8.40773500    39.458432  89.999677 120.053104
 *******************************************************************************
 ATOMS IN THE ASYMMETRIC UNIT   42 - ATOMS IN THE UNIT CELL:   42
     ATOM                 X/A                 Y/B                 Z/C    
 *******************************************************************************
      1 T   5 B     4.709924600000E-01 -6.025471000000E-02 -4.993886000000E-01
      2 T   5 B    -3.702310200000E-01  9.876625000000E-02 -4.993786100000E-01
      3 T   5 B     4.709503500000E-01  9.927717000000E-02  4.991915300000E-01
      4 T   5 B     8.278085000000E-02  3.232677400000E-01 -4.945940100000E-01
      5 T   5 B     2.401872800000E-01  3.204380200000E-01 -4.905504500000E-01
      6 T   5 B     2.421831300000E-01  4.832121800000E-01 -4.965155900000E-01
      7 T   1 H    -2.413286700000E-01  1.897370000000E-02 -4.954905300000E-01
      8 T   1 H    -4.353264000000E-02  4.075400300000E-01  4.929201100000E-01
      9 T   1 H    -2.378749700000E-01  3.103202000000E-01  4.927818200000E-01
     10 T   1 H    -4.676466000000E-02  1.164359200000E-01 -4.959219200000E-01
     11 T   1 H     4.487395400000E-01 -3.871676200000E-01 -4.957998600000E-01
     12 T   1 H     2.653871300000E-01 -1.862039600000E-01  4.945522000000E-01
     13 T   1 H     1.666693300000E-01 -3.806684200000E-01  4.958589300000E-01
     14 T   1 H    -4.526212100000E-01 -1.924056400000E-01 -4.976610400000E-01
     15 T   1 H     4.501986200000E-01  4.038796200000E-01  4.977562500000E-01
     16 T   1 H     2.604956100000E-01  1.749615000000E-02 -4.939613100000E-01
     17 T   1 H     1.632369600000E-01  1.136277500000E-01 -4.943261600000E-01
     18 T   1 H    -4.522796100000E-01  3.074828000000E-01  4.986896200000E-01
     19 T   6 C    -2.508663000000E-01  1.583393200000E-01 -4.996285900000E-01
     20 T   6 C    -1.968522600000E-01  1.041457300000E-01 -4.978626400000E-01
     21 T   6 C    -8.798846000000E-02  3.221637600000E-01  4.957450000000E-01
     22 T   6 C    -1.950643300000E-01  2.684446700000E-01  4.960821300000E-01
     23 T   6 C    -8.963567000000E-02  1.580814000000E-01 -4.985063000000E-01
     24 T   6 C    -3.450369000000E-02  2.670108600000E-01  4.993106200000E-01
     25 T   6 C     3.016175700000E-01 -3.964719900000E-01 -4.981472500000E-01
     26 T   6 C     4.093781200000E-01 -3.422146500000E-01 -4.977571000000E-01
     27 T   6 C     3.044428300000E-01 -2.316308800000E-01  4.969669700000E-01
     28 T   6 C     2.500013700000E-01 -3.392303500000E-01  4.980855500000E-01
     29 T   6 C     4.638766500000E-01 -2.345203100000E-01 -4.991943900000E-01
     30 T   6 C     4.116663700000E-01 -1.785916500000E-01  4.991814900000E-01
     31 T   6 C     3.017671500000E-01  2.655689000000E-01  4.999526400000E-01
     32 T   6 C     4.097756400000E-01  3.191414900000E-01  4.994012100000E-01
     33 T   6 C     3.016313600000E-01  1.025069200000E-01 -4.960756400000E-01
     34 T   6 C     2.479055100000E-01  1.559026400000E-01 -4.966835300000E-01
     35 T   6 C     4.633182200000E-01  2.655365500000E-01 -4.996605100000E-01
     36 T   6 C     4.102048700000E-01  1.570980500000E-01 -4.984187700000E-01
     37 T   8 O     4.181733000000E-01 -6.846020000000E-03  4.995813700000E-01
     38 T   8 O    -4.235309800000E-01 -8.270800000000E-03 -4.974288400000E-01
     39 T   8 O    -4.226169400000E-01  1.530759200000E-01  4.980518300000E-01
     40 T   8 O     1.363960800000E-01  4.306776800000E-01 -4.972821800000E-01
     41 T   8 O     1.339933100000E-01  2.673038100000E-01 -4.897950700000E-01
     42 T   8 O     2.944905700000E-01  4.289645500000E-01 -4.948106600000E-01

 T = ATOM BELONGING TO THE ASYMMETRIC UNIT

 ****    1 SYMMOPS - TRANSLATORS IN FRACTIONAL UNITS
 **** MATRICES AND TRANSLATORS IN THE CRYSTALLOGRAPHIC REFERENCE FRAME
   V INV                    ROTATION MATRICES                   TRANSLATORS
   1   1  1.00  0.00  0.00  0.00  1.00  0.00 -0.00 -0.00  1.00  0.00  0.00  0.00

 DIRECT LATTICE VECTORS CARTESIAN COMPONENTS (ANGSTROM)
          X                    Y                    Z
   0.130013421718E+02  -0.752240388864E+01   0.000000000000E+00
   0.000000000000E+00   0.150443870000E+02   0.000000000000E+00
   0.375594653474E+01   0.649149325808E+01   0.380044586052E+01


 CARTESIAN COORDINATES - PRIMITIVE CELL
 *******************************************************************************
 *      ATOM          X(ANGSTROM)         Y(ANGSTROM)         Z(ANGSTROM)
 *******************************************************************************
    1     5 B     4.919107163897E-01  8.616253234242E-01 -5.698345198182E+00
    2     5 B     2.556256103659E+00  2.059681925320E+00 -5.698307231728E+00
    3     5 B    -1.247472293495E+00  1.608940197511E-01  5.697596244317E+00
    4     5 B    -7.814065018414E-01  1.030000315830E+00 -1.879677757943E+00
    5     5 B     1.280275749796E+00 -1.703970856024E-01 -1.864310427079E+00
    6     5 B     1.283819731657E+00  2.224704115143E+00 -1.886980618700E+00
    7     1 H    -4.998632553678E+00 -1.115654023665E+00 -1.883084933666E+00
    8     1 H    -2.470547703962E+00  3.166954342489E+00 -1.927129668904E+00
    9     1 H    -1.241831709860E+00 -5.387528355711E+00  1.872790627959E+00
   10     1 H    -2.470659563131E+00 -1.115784098797E+00 -1.884724408006E+00
   11     1 H     3.972018539454E+00  2.625605981622E+00 -1.884260525584E+00
   12     1 H     5.307900506952E+00 -1.587291341813E+00  1.879518861302E+00
   13     1 H     2.733980839846E-01  4.791081597707E+00 -1.915960842600E+00
   14     1 H    -3.997924949336E+00  3.771104613153E+00  1.909112021110E+00
   15     1 H     3.966785631474E+00 -5.707664620928E-01 -1.908750180660E+00
   16     1 H     1.531500289266E+00 -4.902880851644E+00 -1.877273215847E+00
   17     1 H     2.656369443578E-01 -2.727389432666E+00 -1.878659808519E+00
   18     1 H    -4.007190416778E+00 -3.779026557836E+00  1.895242902014E+00
   19     6 C    -5.138176876933E+00  1.025900014518E+00 -1.898811406663E+00
   20     6 C    -4.429289047031E+00 -1.842610983791E-01 -1.892100009296E+00
   21     6 C    -3.037922895502E+00  2.235273083623E+00 -1.916393827397E+00
   22     6 C    -4.428786677457E+00  2.234758722365E+00 -1.915112583084E+00
   23     6 C    -3.037747026496E+00 -1.835368138882E-01 -1.894546204279E+00
   24     6 C    -2.329156821670E+00  1.026343668210E+00 -1.902842881628E+00
   25     6 C     2.050418795162E+00  3.577100251424E+00 -1.893181654192E+00
   26     6 C     3.452915960871E+00  3.585282947707E+00 -1.891698910240E+00
   27     6 C     2.068800238686E+00  6.004064949033E+00 -1.911749796569E+00
   28     6 C     1.365189515570E+00  4.802088786294E+00 -1.907498693838E+00
   29     6 C     4.001250781269E-01 -1.705305094042E+00 -5.697607113592E+00
   30     6 C    -2.018281312483E+00 -3.573579176468E+00  5.697558087840E+00
   31     6 C     2.045226824354E+00 -1.520747142019E+00 -1.900402919376E+00
   32     6 C     3.447411018703E+00 -1.530843454777E+00 -1.902498599237E+00
   33     6 C     2.058378940072E+00 -3.947110813299E+00 -1.885308612543E+00
   34     6 C     1.357587578413E+00 -2.743603508351E+00 -1.887618865577E+00
   35     6 C     4.147060551557E+00 -2.733974990954E+00 -1.898932716895E+00
   36     6 C     3.461179623368E+00 -3.957764933237E+00 -1.894213551252E+00
   37     8 O    -1.932180561165E+00 -1.036123390401E+00  5.699077810131E+00
   38     8 O     1.870608317832E+00  8.629758669603E-01 -5.690897236403E+00
   39     8 O     1.320151352185E-01  1.622350484184E-01  5.693264876169E+00
   40     8 O    -9.443317378936E-02  2.225151368763E+00 -1.889894002492E+00
   41     8 O    -9.755122385973E-02 -1.660312267260E-01 -1.861439646285E+00
   42     8 O     1.970290283152E+00  1.026171627130E+00 -1.880501124539E+00

 *******************************************************************************
 STARTING BASIS SET HANDLING 
 *******************************************************************************

 Loading internal basis set: SOLDEF2MSVP         

 Please cite in your publication:
 L. Dona', J. G. Brandenburg and B. Civalleri, J. Chem. Phys., 151, 121101 (2019
 )                                                                              
                                                                                
                    

 *******************************************************************************
 LOCAL ATOMIC FUNCTIONS BASIS SET
 *******************************************************************************
   ATOM   X(AU)   Y(AU)   Z(AU)  N. TYPE  EXPONENT  S COEF   P COEF   D/F/G COEF
 *******************************************************************************
   1 B    0.930   1.628 -10.768
                                  1 S  
                                         2.410E+03 1.755E-03 0.000E+00 0.000E+00
                                         3.619E+02 1.344E-02 0.000E+00 0.000E+00
                                         8.231E+01 6.637E-02 0.000E+00 0.000E+00
                                         2.311E+01 2.303E-01 0.000E+00 0.000E+00
                                         7.252E+00 5.150E-01 0.000E+00 0.000E+00
                                  2 S  
                                         2.367E+00 1.000E+00 0.000E+00 0.000E+00
                                  3 S  
                                         5.533E-01 1.000E+00 0.000E+00 0.000E+00
                                  4 S  
                                         1.716E-01 1.000E+00 0.000E+00 0.000E+00
                           5-     7 P  
                                         6.002E+00 0.000E+00-3.555E-02 0.000E+00
                                         1.240E+00 0.000E+00-1.983E-01 0.000E+00
                                         3.367E-01 0.000E+00-5.048E-01 0.000E+00
                           8-    10 P  
                                         1.256E-01 0.000E+00 1.000E+00 0.000E+00
                          11-    15 D  
                                         8.880E-01 0.000E+00 0.000E+00 1.000E+00
   2 B    4.831   3.892 -10.768
   3 B   -2.357   0.304  10.767
   4 B   -1.477   1.946  -3.552
   5 B    2.419  -0.322  -3.523
   6 B    2.426   4.204  -3.566
   7 H   -9.446  -2.108  -3.559
                                 91 S  
                                         1.874E+01 1.968E-02 0.000E+00 0.000E+00
                                         2.826E+00 1.380E-01 0.000E+00 0.000E+00
                                         6.401E-01 4.783E-01 0.000E+00 0.000E+00
                                 92 S  
                                         1.756E-01 1.000E+00 0.000E+00 0.000E+00
   8 H   -4.669   5.985  -3.642
   9 H   -2.347 -10.181   3.539
  10 H   -4.669  -2.109  -3.562
  11 H    7.506   4.962  -3.561
  12 H   10.030  -3.000   3.552
  13 H    0.517   9.054  -3.621
  14 H   -7.555   7.126   3.608
  15 H    7.496  -1.079  -3.607
  16 H    2.894  -9.265  -3.548
  17 H    0.502  -5.154  -3.550
  18 H   -7.572  -7.141   3.581
  19 C   -9.710   1.939  -3.588
                                115 S  
                                         3.624E+03 1.634E-03 0.000E+00 0.000E+00
                                         5.440E+02 1.252E-02 0.000E+00 0.000E+00
                                         1.237E+02 6.211E-02 0.000E+00 0.000E+00
                                         3.476E+01 2.182E-01 0.000E+00 0.000E+00
                                         1.093E+01 4.980E-01 0.000E+00 0.000E+00
                                116 S  
                                         3.574E+00 1.000E+00 0.000E+00 0.000E+00
                                117 S  
                                         7.742E-01 1.000E+00 0.000E+00 0.000E+00
                                118 S  
                                         2.330E-01 1.000E+00 0.000E+00 0.000E+00
                         119-   121 P  
                                         9.443E+00 0.000E+00 3.790E-02 0.000E+00
                                         2.002E+00 0.000E+00 2.082E-01 0.000E+00
                                         5.463E-01 0.000E+00 5.047E-01 0.000E+00
                         122-   124 P  
                                         1.820E-01 0.000E+00 1.000E+00 0.000E+00
                         125-   129 D  
                                         8.880E-01 0.000E+00 0.000E+00 1.000E+00
  20 C   -8.370  -0.348  -3.576
  21 C   -5.741   4.224  -3.621
  22 C   -8.369   4.223  -3.619
  23 C   -5.741  -0.347  -3.580
  24 C   -4.401   1.940  -3.596
  25 C    3.875   6.760  -3.578
  26 C    6.525   6.775  -3.575
  27 C    3.909  11.346  -3.613
  28 C    2.580   9.075  -3.605
  29 C    0.756  -3.223 -10.767
  30 C   -3.814  -6.753  10.767
  31 C    3.865  -2.874  -3.591
  32 C    6.515  -2.893  -3.595
  33 C    3.890  -7.459  -3.563
  34 C    2.565  -5.185  -3.567
  35 C    7.837  -5.166  -3.588
  36 C    6.541  -7.479  -3.580
  37 O   -3.651  -1.958  10.770
                                385 S  
                                         6.773E+03 1.727E-03 0.000E+00 0.000E+00
                                         1.017E+03 1.325E-02 0.000E+00 0.000E+00
                                         2.313E+02 6.603E-02 0.000E+00 0.000E+00
                                         6.501E+01 2.353E-01 0.000E+00 0.000E+00
                                         2.050E+01 5.498E-01 0.000E+00 0.000E+00
                                386 S  
                                         6.716E+00 1.000E+00 0.000E+00 0.000E+00
                                387 S  
                                         1.147E+00 1.000E+00 0.000E+00 0.000E+00
                                388 S  
                                         3.342E-01 1.000E+00 0.000E+00 0.000E+00
                         389-   391 P  
                                         1.769E+01 0.000E+00 4.359E-02 0.000E+00
                                         3.854E+00 0.000E+00 2.318E-01 0.000E+00
                                         1.047E+00 0.000E+00 5.146E-01 0.000E+00
                         392-   394 P  
                                         2.759E-01 0.000E+00 1.000E+00 0.000E+00
                         395-   399 D  
                                         8.000E-01 0.000E+00 0.000E+00 1.000E+00
  38 O    3.535   1.631 -10.754
  39 O    0.249   0.307  10.759
  40 O   -0.178   4.205  -3.571
  41 O   -0.184  -0.314  -3.518
  42 O    3.723   1.939  -3.554

 *******************************************************************************
 FINISHED BASIS SET HANDLING 
 *******************************************************************************

 INFORMATION **** SET_MPP **** PCRYSTAL CALCULATION
 INFORMATION **** READM2 **** NEW DEFAULT: FOCK/KS MATRIX MIXING SET TO 30 %
 INFORMATION **** READM2 **** NEW DEFAULT: FULL DIRECT SCF MODE
 INFORMATION **** READM2 **** NEW DEFAULT: COULOMB BIPOLAR BUFFER SET TO 32 Mb
 INFORMATION **** READM2 **** NEW DEFAULT: EXCHANGE BIPOLAR BUFFER SET TO 32 Mb

 *******************************************************************************
 NEW DEFAULT: DFT INTEGRATION GRID INCREASED TO XLGRID
 NEW DEFAULT: DIIS ACCELERATOR ACTIVE
 USE KEYWORD NODIIS TO TURN IT OFF
 *******************************************************************************

 WARNING **** RDDFTP **** HSEsol-HJS ACTIVE
 RANGE SEPARATION - OMEGA:   0.110000000000000     
 WARNING **** RDDFTP **** HSEsol-3c has to be combined with sol-def2-mSVP basis set
 *******************************************************************************
 N. OF ATOMS PER CELL        42  COULOMB OVERLAP TOL         (T1) 10**   -6
 NUMBER OF SHELLS           234  COULOMB PENETRATION TOL     (T2) 10**   -6
 NUMBER OF AO               474  EXCHANGE OVERLAP TOL        (T3) 10**   -6
 N. OF ELECTRONS PER CELL   198  EXCHANGE PSEUDO OVP (F(G))  (T4) 10**   -6
 CORE ELECTRONS PER CELL     60  EXCHANGE PSEUDO OVP (P(G))  (T5) 10**  -12
 N. OF SYMMETRY OPERATORS     1  POLE ORDER IN MONO ZONE                  4
 *******************************************************************************
 TYPE OF CALCULATION :  RESTRICTED CLOSED SHELL
 KOHN-SHAM HAMILTONIAN

 (EXCHANGE)[CORRELATION] FUNCTIONAL:(HSEsol GGA)[PBEsol]

 RANGE-SEPARATED HYBRID FUNCTIONAL 
 OMEGA (SHORT-RANGE)[LONG-RANGE]:(    0.1100)[    0.0000]

 HYBRID EXCHANGE - PERCENTAGE OF FOCK EXCHANGE    25.0000

 CAPPA:IS1  2;IS2  2;IS3  8; K PTS MONK NET  20; SYMMOPS:K SPACE   2;G SPACE   1

 *******************************************************************************
 MAX NUMBER OF SCF CYCLES      50  CONVERGENCE ON DELTAP        10**-16
 WEIGHT OF F(I) IN F(I+1)      30% CONVERGENCE ON ENERGY        10**- 6
 SHRINK. FACT.(MONKH.)    2  2  8  NUMBER OF K POINTS IN THE IBZ     20
 SHRINKING FACTOR(GILAT NET)    8  NUMBER OF K POINTS(GILAT NET)   1028
 *******************************************************************************
 *** K POINTS COORDINATES (OBLIQUE COORDINATES IN UNITS OF IS =  2)
   1-R(  0  0  0)   2-R(  1  0  0)   3-R(  0  1  0)   4-R(  1  1  0)
   5-C(  0  0  1)   6-C(  1  0  1)   7-C(  0  1  1)   8-C(  1  1  1)
   9-C(  0  0  2)  10-C(  1  0  2)  11-C(  0  1  2)  12-C(  1  1  2)
  13-C(  0  0  3)  14-C(  1  0  3)  15-C(  0  1  3)  16-C(  1  1  3)
  17-R(  0  0  4)  18-R(  1  0  4)  19-R(  0  1  4)  20-R(  1  1  4)

 DIRECT LATTICE VECTORS COMPON. (A.U.)     RECIP. LATTICE VECTORS COMPON. (A.U.) 
        X            Y            Z              X            Y            Z
   24.5689761  -14.2152832    0.0000000      0.2557366    0.0000000   -0.2527421
    0.0000000   28.4297713    0.0000000      0.1278719    0.2210072   -0.5038743
    7.0977103   12.2671445    7.1818019      0.0000000    0.0000000    0.8748759

 DISK SPACE FOR EIGENVECTORS (FTN 10)     7189632 REALS

 SYMMETRY ADAPTION OF THE BLOCH FUNCTIONS DISABLED
 TTTTTTTTTTTTTTTTTTTTTTTTTTTTTT gordsh1     TELAPSE        0.04 TCPU        0.04

 MATRIX SIZE: P(G)  307896, F(G)   60237, P(G) IRR  155115, F(G) IRR   60717
 MAX G-VECTOR INDEX FOR 1- AND 2-ELECTRON INTEGRALS  53

 TTTTTTTTTTTTTTTTTTTTTTTTTTTTTT INPUT       TELAPSE        0.41 TCPU        0.41

 NEIGHBORS OF THE NON-EQUIVALENT ATOMS

 N = NUMBER OF NEIGHBORS AT DISTANCE R
    ATOM  N     R/ANG      R/AU   NEIGHBORS (ATOM LABELS AND CELL INDICES)
   1 B    1     1.3787     2.6054   38 O    0 0 0
   1 B    1     1.3795     2.6068   37 O    1 2-3
   1 B    1     1.5517     2.9323   30 C    1 2-3
   1 B    1     2.3868     4.5104    2 B    0 0 0
   1 B    1     2.3912     4.5187    3 B    1 2-3
   1 B    1     2.5629     4.8432   27 C    0 0-1

   2 B    1     1.3792     2.6064   38 O    0 0 0
   2 B    1     1.3798     2.6075   39 O    1 2-3
   2 B    1     1.5510     2.9309   19 C    1 1-1
   2 B    1     2.3868     4.5104    1 B    0 0 0
   2 B    1     2.3894     4.5154    3 B    1 2-3
   2 B    1     2.5618     4.8411   22 C    1 1-1

   3 B    1     1.3790     2.6060   37 O    0 0 0
   3 B    1     1.3795     2.6069   39 O    0 0 0
   3 B    1     1.5529     2.9346   36 C   -1-1 2
   3 B    1     2.3894     4.5154    2 B   -1-2 3
   3 B    1     2.3912     4.5187    1 B   -1-2 3
   3 B    1     2.5679     4.8526   35 C   -1-1 2

   4 B    1     1.3779     2.6038   41 O    0 0 0
   4 B    1     1.3786     2.6051   40 O    0 0 0
   4 B    1     1.5479     2.9252   24 C    0 0 0
   4 B    1     2.3857     4.5084    5 B    0 0 0
   4 B    1     2.3859     4.5087    6 B    0 0 0
   4 B    1     2.5585     4.8349   21 C    0 0 0

   5 B    1     1.3778     2.6037   41 O    0 0 0
   5 B    1     1.3814     2.6104   42 O    0 0 0
   5 B    1     1.5524     2.9336   31 C    0 0 0
   5 B    1     2.3857     4.5084    4 B    0 0 0
   5 B    1     2.3952     4.5263    6 B    0 0 0
   5 B    1     2.5591     4.8359   32 C    0 0 0

   6 B    1     1.3783     2.6045   40 O    0 0 0
   6 B    1     1.3812     2.6101   42 O    0 0 0
   6 B    1     1.5546     2.9377   25 C    0 0 0
   6 B    1     2.3859     4.5087    4 B    0 0 0
   6 B    1     2.3952     4.5263    5 B    0 0 0
   6 B    1     2.5605     4.8386   26 C    0 0 0

   7 H    1     1.0917     2.0629   20 C    0 0 0
   7 H    1     2.1462     4.0556   19 C    0 0 0
   7 H    1     2.1712     4.1029   23 C    0 0 0
   7 H    1     2.5280     4.7772   10 H    0 0 0
   7 H    1     2.5583     4.8346   38 O   -1-1 1
   7 H    1     2.7310     5.1609    2 B   -1-1 1

   8 H    1     1.0909     2.0615   21 C    0 0 0
   8 H    1     2.1454     4.0542   24 C    0 0 0
   8 H    1     2.1688     4.0985   22 C    0 0 0
   8 H    1     2.5272     4.7758    9 H    0 1-1
   8 H    1     2.5562     4.8306   40 O    0 0 0
   8 H    1     2.7243     5.1483    4 B    0 0 0

   9 H    1     1.0908     2.0614   22 C    0-1 1
   9 H    1     2.1443     4.0521   19 C    0-1 1
   9 H    1     2.1694     4.0995   21 C    0-1 1
   9 H    1     2.5272     4.7758    8 H    0-1 1
   9 H    1     2.5616     4.8407   39 O    0 0-1
   9 H    1     2.7249     5.1492    2 B   -1-2 2

  10 H    1     1.0912     2.0621   23 C    0 0 0
  10 H    1     2.1469     4.0570   24 C    0 0 0
  10 H    1     2.1689     4.0986   20 C    0 0 0
  10 H    1     2.5280     4.7772    7 H    0 0 0
  10 H    1     2.5562     4.8305   41 O    0 0 0
  10 H    1     2.7309     5.1607    4 B    0 0 0

  11 H    1     1.0911     2.0619   26 C    0 0 0
  11 H    1     2.1443     4.0521   25 C    0 0 0
  11 H    1     2.1684     4.0978   29 C    0 0 1
  11 H    1     2.5223     4.7664   14 H    1 1-1
  11 H    1     2.5622     4.8419   42 O    0 0 0
  11 H    1     2.7179     5.1361    6 B    0 0 0

  12 H    1     1.0917     2.0630   27 C    0-1 1
  12 H    1     2.1441     4.0518   30 C    1 1-1
  12 H    1     2.1716     4.1037   28 C    0-1 1
  12 H    1     2.5226     4.7669   13 H    0-1 1
  12 H    1     2.5541     4.8265   37 O    1 1-1
  12 H    1     2.7237     5.1471    1 B    0-1 2

  13 H    1     1.0919     2.0634   28 C    0 0 0
  13 H    1     2.1522     4.0671   25 C    0 0 0
  13 H    1     2.1668     4.0946   27 C    0 0 0
  13 H    1     2.5226     4.7669   12 H    0 1-1
  13 H    1     2.5923     4.8987   40 O    0 0 0
  13 H    1     2.7583     5.2124    6 B    0 0 0

  14 H    1     1.0915     2.0627   29 C   -1-1 2
  14 H    1     2.1483     4.0597   30 C    0 1-1
  14 H    1     2.1679     4.0968   26 C   -1-1 1
  14 H    1     2.5223     4.7664   11 H   -1-1 1
  14 H    1     2.5809     4.8771   38 O   -1-1 2
  14 H    1     2.7404     5.1785    1 B   -1-1 2

  15 H    1     1.0916     2.0628   32 C    0 0 0
  15 H    1     2.1436     4.0508   31 C    0 0 0
  15 H    1     2.1707     4.1021   35 C    0 0 0
  15 H    1     2.5217     4.7654   18 H    1 1-1
  15 H    1     2.5568     4.8316   42 O    0 0 0
  15 H    1     2.7165     5.1335    5 B    0 0 0

  16 H    1     1.0914     2.0625   33 C    0 0 0
  16 H    1     2.1488     4.0606   36 C    0 0 0
  16 H    1     2.1663     4.0937   34 C    0 0 0
  16 H    1     2.5170     4.7564   17 H    0 0 0
  16 H    1     2.5780     4.8717   37 O    1 1-2
  16 H    1     2.7396     5.1770    3 B    1 1-2

  17 H    1     1.0921     2.0638   34 C    0 0 0
  17 H    1     2.1502     4.0633   31 C    0 0 0
  17 H    1     2.1683     4.0976   33 C    0 0 0
  17 H    1     2.5170     4.7564   16 H    0 0 0
  17 H    1     2.5870     4.8888   41 O    0 0 0
  17 H    1     2.7510     5.1986    5 B    0 0 0

  18 H    1     1.0913     2.0622   35 C   -1-1 1
  18 H    1     2.1495     4.0619   36 C   -1-1 1
  18 H    1     2.1656     4.0923   32 C   -1-1 1
  18 H    1     2.5217     4.7654   15 H   -1-1 1
  18 H    1     2.5789     4.8734   39 O    0 0-1
  18 H    1     2.7392     5.1763    3 B    0 0-1

  19 C    1     1.4017     2.6489   22 C    0 0 0
  19 C    1     1.4025     2.6504   20 C    0 0 0
  19 C    1     1.5510     2.9309    2 B   -1-1 1
  19 C    1     2.1443     4.0521    9 H    0 1-1
  19 C    1     2.1462     4.0556    7 H    0 0 0
  19 C    1     2.4236     4.5800   21 C    0 0 0

  20 C    1     1.0917     2.0629    7 H    0 0 0
  20 C    1     1.3915     2.6296   23 C    0 0 0
  20 C    1     1.4025     2.6504   19 C    0 0 0
  20 C    1     2.1689     4.0986   10 H    0 0 0
  20 C    1     2.4191     4.5715   22 C    0 0 0
  20 C    1     2.4241     4.5809   24 C    0 0 0

  21 C    1     1.0909     2.0615    8 H    0 0 0
  21 C    1     1.3909     2.6284   22 C    0 0 0
  21 C    1     1.4014     2.6483   24 C    0 0 0
  21 C    1     2.1694     4.0995    9 H    0 1-1
  21 C    1     2.4189     4.5711   23 C    0 0 0
  21 C    1     2.4236     4.5800   19 C    0 0 0

  22 C    1     1.0908     2.0614    9 H    0 1-1
  22 C    1     1.3909     2.6284   21 C    0 0 0
  22 C    1     1.4017     2.6489   19 C    0 0 0
  22 C    1     2.1688     4.0985    8 H    0 0 0
  22 C    1     2.4191     4.5715   20 C    0 0 0
  22 C    1     2.4226     4.5780   24 C    0 0 0

  23 C    1     1.0912     2.0621   10 H    0 0 0
  23 C    1     1.3915     2.6296   20 C    0 0 0
  23 C    1     1.4021     2.6496   24 C    0 0 0
  23 C    1     2.1712     4.1029    7 H    0 0 0
  23 C    1     2.4189     4.5711   21 C    0 0 0
  23 C    1     2.4237     4.5802   19 C    0 0 0

  24 C    1     1.4014     2.6483   21 C    0 0 0
  24 C    1     1.4021     2.6496   23 C    0 0 0
  24 C    1     1.5479     2.9252    4 B    0 0 0
  24 C    1     2.1454     4.0542    8 H    0 0 0
  24 C    1     2.1469     4.0570   10 H    0 0 0
  24 C    1     2.4226     4.5780   22 C    0 0 0

  25 C    1     1.4025     2.6504   26 C    0 0 0
  25 C    1     1.4037     2.6526   28 C    0 0 0
  25 C    1     1.5546     2.9377    6 B    0 0 0
  25 C    1     2.1443     4.0521   11 H    0 0 0
  25 C    1     2.1522     4.0671   13 H    0 0 0
  25 C    1     2.4271     4.5866   27 C    0 0 0

  26 C    1     1.0911     2.0619   11 H    0 0 0
  26 C    1     1.3916     2.6298   29 C    0 0 1
  26 C    1     1.4025     2.6504   25 C    0 0 0
  26 C    1     2.1679     4.0968   14 H    1 1-1
  26 C    1     2.4165     4.5665   28 C    0 0 0
  26 C    1     2.4246     4.5819   30 C    1 2-2

  27 C    1     1.0917     2.0630   12 H    0 1-1
  27 C    1     1.3928     2.6320   28 C    0 0 0
  27 C    1     1.4024     2.6502   30 C    1 2-2
  27 C    1     2.1668     4.0946   13 H    0 0 0
  27 C    1     2.4166     4.5668   29 C    0 0 1
  27 C    1     2.4271     4.5866   25 C    0 0 0

  28 C    1     1.0919     2.0634   13 H    0 0 0
  28 C    1     1.3928     2.6320   27 C    0 0 0
  28 C    1     1.4037     2.6526   25 C    0 0 0
  28 C    1     2.1716     4.1037   12 H    0 1-1
  28 C    1     2.4165     4.5665   26 C    0 0 0
  28 C    1     2.4277     4.5877   30 C    1 2-2

  29 C    1     1.0915     2.0627   14 H    1 1-2
  29 C    1     1.3916     2.6298   26 C    0 0-1
  29 C    1     1.4023     2.6499   30 C    1 2-3
  29 C    1     2.1684     4.0978   11 H    0 0-1
  29 C    1     2.4166     4.5668   27 C    0 0-1
  29 C    1     2.4281     4.5884   25 C    0 0-1

  30 C    1     1.4023     2.6499   29 C   -1-2 3
  30 C    1     1.4024     2.6502   27 C   -1-2 2
  30 C    1     1.5517     2.9323    1 B   -1-2 3
  30 C    1     2.1441     4.0518   12 H   -1-1 1
  30 C    1     2.1483     4.0597   14 H    0-1 1
  30 C    1     2.4246     4.5819   26 C   -1-2 2

  31 C    1     1.4022     2.6498   32 C    0 0 0
  31 C    1     1.4030     2.6513   34 C    0 0 0
  31 C    1     1.5524     2.9336    5 B    0 0 0
  31 C    1     2.1436     4.0508   15 H    0 0 0
  31 C    1     2.1502     4.0633   17 H    0 0 0
  31 C    1     2.4264     4.5853   33 C    0 0 0

  32 C    1     1.0916     2.0628   15 H    0 0 0
  32 C    1     1.3918     2.6301   35 C    0 0 0
  32 C    1     1.4022     2.6498   31 C    0 0 0
  32 C    1     2.1656     4.0923   18 H    1 1-1
  32 C    1     2.4163     4.5661   34 C    0 0 0
  32 C    1     2.4270     4.5863   36 C    0 0 0

  33 C    1     1.0914     2.0625   16 H    0 0 0
  33 C    1     1.3927     2.6318   34 C    0 0 0
  33 C    1     1.4029     2.6510   36 C    0 0 0
  33 C    1     2.1683     4.0976   17 H    0 0 0
  33 C    1     2.4155     4.5646   35 C    0 0 0
  33 C    1     2.4264     4.5853   31 C    0 0 0

  34 C    1     1.0921     2.0638   17 H    0 0 0
  34 C    1     1.3927     2.6318   33 C    0 0 0
  34 C    1     1.4030     2.6513   31 C    0 0 0
  34 C    1     2.1663     4.0937   16 H    0 0 0
  34 C    1     2.4163     4.5661   32 C    0 0 0
  34 C    1     2.4289     4.5899   36 C    0 0 0

  35 C    1     1.0913     2.0622   18 H    1 1-1
  35 C    1     1.3918     2.6301   32 C    0 0 0
  35 C    1     1.4029     2.6511   36 C    0 0 0
  35 C    1     2.1707     4.1021   15 H    0 0 0
  35 C    1     2.4155     4.5646   33 C    0 0 0
  35 C    1     2.4269     4.5861   31 C    0 0 0

  36 C    1     1.4029     2.6510   33 C    0 0 0
  36 C    1     1.4029     2.6511   35 C    0 0 0
  36 C    1     1.5529     2.9346    3 B    1 1-2
  36 C    1     2.1488     4.0606   16 H    0 0 0
  36 C    1     2.1495     4.0619   18 H    1 1-1
  36 C    1     2.4270     4.5863   32 C    0 0 0

  37 O    1     1.3790     2.6060    3 B    0 0 0
  37 O    1     1.3795     2.6068    1 B   -1-2 3
  37 O    1     2.3868     4.5105   39 O    0 0 0
  37 O    1     2.3885     4.5136   38 O   -1-2 3
  37 O    1     2.5389     4.7979   30 C    0 0 0
  37 O    1     2.5412     4.8022   36 C   -1-1 2

  38 O    1     1.3787     2.6054    1 B    0 0 0
  38 O    1     1.3792     2.6064    2 B    0 0 0
  38 O    1     2.3885     4.5136   37 O    1 2-3
  38 O    1     2.3912     4.5187   39 O    1 2-3
  38 O    1     2.5351     4.7906   19 C    1 1-1
  38 O    1     2.5405     4.8008   30 C    1 2-3

  39 O    1     1.3795     2.6069    3 B    0 0 0
  39 O    1     1.3798     2.6075    2 B   -1-2 3
  39 O    1     2.3868     4.5105   37 O    0 0 0
  39 O    1     2.3912     4.5187   38 O   -1-2 3
  39 O    1     2.5416     4.8030   19 C    0-1 2
  39 O    1     2.5427     4.8050   36 C   -1-1 2

  40 O    1     1.3783     2.6045    6 B    0 0 0
  40 O    1     1.3786     2.6051    4 B    0 0 0
  40 O    1     2.3876     4.5119   42 O    0 0 0
  40 O    1     2.3914     4.5190   41 O    0 0 0
  40 O    1     2.5354     4.7912   25 C    0 0 0
  40 O    1     2.5360     4.7923   24 C    0 0 0

  41 O    1     1.3778     2.6037    5 B    0 0 0
  41 O    1     1.3779     2.6038    4 B    0 0 0
  41 O    1     2.3870     4.5107   42 O    0 0 0
  41 O    1     2.3914     4.5190   40 O    0 0 0
  41 O    1     2.5305     4.7820   24 C    0 0 0
  41 O    1     2.5354     4.7912   31 C    0 0 0

  42 O    1     1.3812     2.6101    6 B    0 0 0
  42 O    1     1.3814     2.6104    5 B    0 0 0
  42 O    1     2.3870     4.5107   41 O    0 0 0
  42 O    1     2.3876     4.5119   40 O    0 0 0
  42 O    1     2.5481     4.8152   31 C    0 0 0
  42 O    1     2.5522     4.8230   25 C    0 0 0


 SYMMETRY ALLOWED INTERNAL DEGREE(S) OF FREEDOM: 123
 TTTTTTTTTTTTTTTTTTTTTTTTTTTTTT SYMM        TELAPSE        0.42 TCPU        0.41
 TTTTTTTTTTTTTTTTTTTTTTTTTTTTTT INT_SCREEN  TELAPSE        0.45 TCPU        0.45

 DFT PARAMETERS

     ATOM       ELECTRONS   NET CHARGE   R(ANGSTROM)
   1   5  B       5.0000      0.0000     0.89000000
   7   1  H       1.0000      0.0000     1.11000000
  19   6  C       6.0000      0.0000     0.77000000
  37   8  O       8.0000      0.0000     0.74000000

 SIZE OF GRID=    1315006
 TTTTTTTTTTTTTTTTTTTTTTTTTTTTTT MAKE_GRID2  TELAPSE        8.67 TCPU        8.66
 BECKE WEIGHT FUNCTION
 RADSAFE =     2.00
 TOLERANCES - DENSITY:10**- 6; POTENTIAL:10**- 9; GRID WGT:10**-14

 RADIAL INTEGRATION  - INTERVALS (POINTS,UPPER LIMIT):            1( 75,  4.0*R)

 ANGULAR INTEGRATION - INTERVALS (ACCURACY LEVEL [N. POINTS] UPPER LIMIT):
  1(  4[  86]   0.2)  2(  8[ 194]   0.5)  3( 12[ 350]   0.9)  4( 16[ 974]   3.5)
  5( 12[ 350]9999.0)
 TTTTTTTTTTTTTTTTTTTTTTTTTTTTTT INT_CALC    TELAPSE        8.75 TCPU        8.75
 EEEEEEEEEE INT_CALC TERMINATION  DATE 02 12 2025 TIME 08:02:06.4

 *******************************************************************************
 COF-5_z38_inc_L075                                                              
 CRYSTAL - SCF - TYPE OF CALCULATION :  RESTRICTED CLOSED SHELL
 *******************************************************************************

 CAPPA:IS1  2;IS2  2;IS3  8; K PTS MONK NET  20; SYMMOPS:K SPACE   2;G SPACE   1

 TTTTTTTTTTTTTTTTTTTTTTTTTTTTTT SDIK        TELAPSE        9.55 TCPU       22.43

 AAAAAAAAAAAAAAAAAAAAAAAAAAAAAAAAAAAAAAAAAAAAAAAAAAAAAAAAAAAAAAAAAAAAAAAAAAAAAAA
         ATOMIC WAVEFUNCTION(S)


 NUCLEAR CHARGE  5.0  SYMMETRY SPECIES            S    P
 N. ELECTRONS    5.0  NUMBER OF PRIMITIVE GTOS    8    4
                      NUMBER OF CONTRACTED GTOS   4    2
                      NUMBER OF CLOSED SHELLS     2    0
                      OPEN SHELL OCCUPATION       0    1

  ZNUC  SCFIT    TOTAL HF ENERGY   KINETIC ENERGY   VIRIAL THEOREM ACCURACY
   5.0    11    -2.451164084E+01  2.462155050E+01 -1.995536038E+00  1.5E-06

 NUCLEAR CHARGE  1.0  SYMMETRY SPECIES            S
 N. ELECTRONS    1.0  NUMBER OF PRIMITIVE GTOS    4
                      NUMBER OF CONTRACTED GTOS   2
                      NUMBER OF CLOSED SHELLS     0
                      OPEN SHELL OCCUPATION       1

  ZNUC  SCFIT    TOTAL HF ENERGY   KINETIC ENERGY   VIRIAL THEOREM ACCURACY
   1.0     1    -4.977266687E-01  5.190767460E-01 -1.958869132E+00  0.0E+00

 NUCLEAR CHARGE  6.0  SYMMETRY SPECIES            S    P
 N. ELECTRONS    6.0  NUMBER OF PRIMITIVE GTOS    8    4
                      NUMBER OF CONTRACTED GTOS   4    2
                      NUMBER OF CLOSED SHELLS     2    0
                      OPEN SHELL OCCUPATION       0    2

  ZNUC  SCFIT    TOTAL HF ENERGY   KINETIC ENERGY   VIRIAL THEOREM ACCURACY
   6.0     9    -3.766704647E+01  3.775180683E+01 -1.997754800E+00  1.1E-06

 NUCLEAR CHARGE  8.0  SYMMETRY SPECIES            S    P
 N. ELECTRONS    8.0  NUMBER OF PRIMITIVE GTOS    8    4
                      NUMBER OF CONTRACTED GTOS   4    2
                      NUMBER OF CLOSED SHELLS     2    0
                      OPEN SHELL OCCUPATION       0    4

  ZNUC  SCFIT    TOTAL HF ENERGY   KINETIC ENERGY   VIRIAL THEOREM ACCURACY
   8.0    12    -7.477373220E+01  7.477365593E+01 -2.000001020E+00  3.8E-06

 AAAAAAAAAAAAAAAAAAAAAAAAAAAAAAAAAAAAAAAAAAAAAAAAAAAAAAAAAAAAAAAAAAAAAAAAAAAAAAA

 CHARGE NORMALIZATION FACTOR   1.00000000
 TOTAL ATOMIC CHARGES:
   5.0000000   5.0000000   5.0000000   5.0000000   5.0000000   5.0000000
   1.0000000   1.0000000   1.0000000   1.0000000   1.0000000   1.0000000
   1.0000000   1.0000000   1.0000000   1.0000000   1.0000000   1.0000000
   6.0000000   6.0000000   6.0000000   6.0000000   6.0000000   6.0000000
   6.0000000   6.0000000   6.0000000   6.0000000   6.0000000   6.0000000
   6.0000000   6.0000000   6.0000000   6.0000000   6.0000000   6.0000000
   8.0000000   8.0000000   8.0000000   8.0000000   8.0000000   8.0000000
 TTTTTTTTTTTTTTTTTTTTTTTTTTTTTT MOQGAD      TELAPSE        9.63 TCPU       25.04
 TTTTTTTTTTTTTTTTTTTTTTTTTTTTTT SHELLXN     TELAPSE       16.26 TCPU      236.47
 TTTTTTTTTTTTTTTTTTTTTTTTTTTTTT MONMO3      TELAPSE       16.41 TCPU      241.28
 NUMERICALLY INTEGRATED DENSITY    197.9999447319
 TTTTTTTTTTTTTTTTTTTTTTTTTTTTTT NUMDFT      TELAPSE       17.04 TCPU      261.41
 CYC   0 ETOT(AU) -1.295948918230E+03 DETOT -1.30E+03 tst  0.00E+00 PX  1.00E+00
 TTTTTTTTTTTTTTTTTTTTTTTTTTTTTT DIIS        TELAPSE       17.08 TCPU      262.78
 TTTTTTTTTTTTTTTTTTTTTTTTTTTTTT FDIK        TELAPSE       17.61 TCPU      279.54
 INSULATING STATE
 TOP OF VALENCE BANDS -    BAND     99; K    1; EIG -3.1051797E-01 AU
 BOTTOM OF VIRTUAL BANDS - BAND    100; K    1; EIG -1.5857814E-01 AU
 DIRECT ENERGY BAND GAP:   4.1345 eV
 TTTTTTTTTTTTTTTTTTTTTTTTTTTTTT PDIG        TELAPSE       17.95 TCPU      285.60
 CHARGE NORMALIZATION FACTOR   1.00000000
 TOTAL ATOMIC CHARGES:
   4.1508227   4.1611374   4.1622679   4.1639474   4.1612897   4.1490626
   0.7852503   0.7852162   0.7853901   0.7854342   0.7855178   0.7854072
   0.7863919   0.7859442   0.7849722   0.7855490   0.7856133   0.7858496
   6.0435417   6.2655828   6.2656378   6.2661119   6.2648216   6.0458486
   6.0432640   6.2670154   6.2651163   6.2677198   6.2674292   6.0465492
   6.0427750   6.2656363   6.2665363   6.2656279   6.2672371   6.0402886
   8.6951030   8.6943312   8.6948558   8.6940094   8.6934646   8.6964329
 TTTTTTTTTTTTTTTTTTTTTTTTTTTTTT MOQGAD      TELAPSE       17.99 TCPU      285.64
 TTTTTTTTTTTTTTTTTTTTTTTTTTTTTT SHELLXN     TELAPSE       24.99 TCPU      508.51
 TTTTTTTTTTTTTTTTTTTTTTTTTTTTTT MONMO3      TELAPSE       25.13 TCPU      513.23
 NUMERICALLY INTEGRATED DENSITY    197.9999713186
 TTTTTTTTTTTTTTTTTTTTTTTTTTTTTT NUMDFT      TELAPSE       25.78 TCPU      533.96
 CYC   1 ETOT(AU) -1.288814205755E+03 DETOT  7.13E+00 tst  0.00E+00 PX  1.00E+00
 TTTTTTTTTTTTTTTTTTTTTTTTTTTTTT DIIS        TELAPSE       25.83 TCPU      535.56
 DIIS TEST: 0.11148E+01 AT SCF   CYCLE   1 - MIX   30 %
 TTTTTTTTTTTTTTTTTTTTTTTTTTTTTT FDIK        TELAPSE       26.34 TCPU      551.94
 INSULATING STATE
 TOP OF VALENCE BANDS -    BAND     99; K    1; EIG -2.2156637E-01 AU
 BOTTOM OF VIRTUAL BANDS - BAND    100; K    1; EIG -8.4573261E-02 AU
 DIRECT ENERGY BAND GAP:   3.7278 eV
 TTTTTTTTTTTTTTTTTTTTTTTTTTTTTT PDIG        TELAPSE       26.68 TCPU      558.01
 CHARGE NORMALIZATION FACTOR   1.00000000
 TOTAL ATOMIC CHARGES:
   4.7125543   4.7065398   4.7066764   4.7075290   4.7063583   4.7126546
   0.9072820   0.9077388   0.9082691   0.9082218   0.9059587   0.9055805
   0.9062788   0.9065600   0.9070425   0.9073338   0.9081671   0.9081943
   5.8708617   6.1428012   6.1413959   6.1303370   6.1315630   5.8665315
   5.8915499   6.1241018   6.1253278   6.1299475   6.1263684   5.8850411
   5.8712872   6.1381882   6.1406552   6.1319128   6.1298114   5.8732076
   8.3375245   8.3364605   8.3311180   8.3356946   8.3277354   8.3416380
 TTTTTTTTTTTTTTTTTTTTTTTTTTTTTT MOQGAD      TELAPSE       26.72 TCPU      558.06
 TTTTTTTTTTTTTTTTTTTTTTTTTTTTTT SHELLXN     TELAPSE       33.69 TCPU      779.99
 TTTTTTTTTTTTTTTTTTTTTTTTTTTTTT MONMO3      TELAPSE       33.83 TCPU      784.63
 NUMERICALLY INTEGRATED DENSITY    197.9999642235
 TTTTTTTTTTTTTTTTTTTTTTTTTTTTTT NUMDFT      TELAPSE       34.48 TCPU      805.31
 CYC   2 ETOT(AU) -1.289008238541E+03 DETOT -1.94E-01 tst  3.58E-03 PX  1.59E-01
 TTTTTTTTTTTTTTTTTTTTTTTTTTTTTT DIIS        TELAPSE       34.54 TCPU      807.13
 DIIS TEST: 0.46462E+00 AT SCF   CYCLE   2 - DIIS ACTIVE - HISTORY:     2 CYCLES
 TTTTTTTTTTTTTTTTTTTTTTTTTTTTTT FDIK        TELAPSE       35.10 TCPU      825.08
 INSULATING STATE
 TOP OF VALENCE BANDS -    BAND     99; K    1; EIG -2.3509267E-01 AU
 BOTTOM OF VIRTUAL BANDS - BAND    100; K    1; EIG -7.8711713E-02 AU
 DIRECT ENERGY BAND GAP:   4.2553 eV
 TTTTTTTTTTTTTTTTTTTTTTTTTTTTTT PDIG        TELAPSE       35.44 TCPU      831.15
 CHARGE NORMALIZATION FACTOR   1.00000000
 TOTAL ATOMIC CHARGES:
   4.4995989   4.4996634   4.5000890   4.5018449   4.4999428   4.4984867
   0.8865629   0.8863794   0.8870415   0.8871165   0.8837349   0.8834659
   0.8849186   0.8843060   0.8853970   0.8864087   0.8872423   0.8868884
   5.8898515   6.1619175   6.1626373   6.1618907   6.1621605   5.8916411
   5.8895500   6.1618441   6.1627222   6.1644925   6.1650986   5.8925709
   5.8911141   6.1615891   6.1623601   6.1631736   6.1632564   5.8899669
   8.5116411   8.5109364   8.5142372   8.5102117   8.5124256   8.5136231
 TTTTTTTTTTTTTTTTTTTTTTTTTTTTTT MOQGAD      TELAPSE       35.48 TCPU      831.19
 TTTTTTTTTTTTTTTTTTTTTTTTTTTTTT SHELLXN     TELAPSE       42.26 TCPU     1047.32
 TTTTTTTTTTTTTTTTTTTTTTTTTTTTTT MONMO3      TELAPSE       42.41 TCPU     1052.05
 NUMERICALLY INTEGRATED DENSITY    197.9999657634
 TTTTTTTTTTTTTTTTTTTTTTTTTTTTTT NUMDFT      TELAPSE       43.05 TCPU     1072.43
 CYC   3 ETOT(AU) -1.289103895774E+03 DETOT -9.57E-02 tst  7.12E-04 PX  6.47E-02
 TTTTTTTTTTTTTTTTTTTTTTTTTTTTTT DIIS        TELAPSE       43.11 TCPU     1074.54
 DIIS TEST: 0.13365E-01 AT SCF   CYCLE   3 - DIIS ACTIVE - HISTORY:     3 CYCLES
 TTTTTTTTTTTTTTTTTTTTTTTTTTTTTT FDIK        TELAPSE       43.71 TCPU     1093.47
 INSULATING STATE
 TOP OF VALENCE BANDS -    BAND     99; K    1; EIG -2.4421224E-01 AU
 BOTTOM OF VIRTUAL BANDS - BAND    100; K    1; EIG -8.7214676E-02 AU
 DIRECT ENERGY BAND GAP:   4.2721 eV
 TTTTTTTTTTTTTTTTTTTTTTTTTTTTTT PDIG        TELAPSE       44.04 TCPU     1099.54
 CHARGE NORMALIZATION FACTOR   1.00000000
 TOTAL ATOMIC CHARGES:
   4.5056045   4.5047455   4.5050952   4.5064166   4.5043761   4.5047195
   0.8691186   0.8694761   0.8702084   0.8704391   0.8675972   0.8675829
   0.8685827   0.8686738   0.8686284   0.8692859   0.8706468   0.8704122
   5.9412667   6.1724250   6.1710909   6.1649353   6.1644962   5.9382081
   5.9534648   6.1627878   6.1618324   6.1657674   6.1626862   5.9488991
   5.9402366   6.1699712   6.1716122   6.1650674   6.1648182   5.9408606
   8.4817829   8.4807795   8.4764817   8.4803330   8.4736833   8.4849043
 TTTTTTTTTTTTTTTTTTTTTTTTTTTTTT MOQGAD      TELAPSE       44.09 TCPU     1099.58
 TTTTTTTTTTTTTTTTTTTTTTTTTTTTTT SHELLXN     TELAPSE       50.87 TCPU     1315.63
 TTTTTTTTTTTTTTTTTTTTTTTTTTTTTT MONMO3      TELAPSE       51.01 TCPU     1320.27
 NUMERICALLY INTEGRATED DENSITY    197.9999659215
 TTTTTTTTTTTTTTTTTTTTTTTTTTTTTT NUMDFT      TELAPSE       51.66 TCPU     1341.00
 CYC   4 ETOT(AU) -1.289106698436E+03 DETOT -2.80E-03 tst  3.40E-05 PX  1.37E-02
 TTTTTTTTTTTTTTTTTTTTTTTTTTTTTT DIIS        TELAPSE       51.74 TCPU     1343.44
 DIIS TEST: 0.38933E-02 AT SCF   CYCLE   4 - DIIS ACTIVE - HISTORY:     4 CYCLES
 TTTTTTTTTTTTTTTTTTTTTTTTTTTTTT FDIK        TELAPSE       52.30 TCPU     1361.40
 INSULATING STATE
 TOP OF VALENCE BANDS -    BAND     99; K    1; EIG -2.4263714E-01 AU
 BOTTOM OF VIRTUAL BANDS - BAND    100; K    1; EIG -8.6991760E-02 AU
 DIRECT ENERGY BAND GAP:   4.2353 eV
 TTTTTTTTTTTTTTTTTTTTTTTTTTTTTT PDIG        TELAPSE       52.64 TCPU     1367.48
 CHARGE NORMALIZATION FACTOR   1.00000000
 TOTAL ATOMIC CHARGES:
   4.5091752   4.5068380   4.5072143   4.5087429   4.5068621   4.5083366
   0.8724020   0.8723571   0.8730892   0.8731253   0.8702444   0.8699172
   0.8712727   0.8708248   0.8715516   0.8724096   0.8733232   0.8731097
   5.9207085   6.1705330   6.1708336   6.1661530   6.1665924   5.9214249
   5.9274595   6.1643066   6.1652379   6.1672241   6.1669961   5.9286254
   5.9219227   6.1693362   6.1703907   6.1672655   6.1668163   5.9211224
   8.4899443   8.4890987   8.4892460   8.4883880   8.4872450   8.4923335
 TTTTTTTTTTTTTTTTTTTTTTTTTTTTTT MOQGAD      TELAPSE       52.68 TCPU     1367.52
 TTTTTTTTTTTTTTTTTTTTTTTTTTTTTT SHELLXN     TELAPSE       59.53 TCPU     1585.69
 TTTTTTTTTTTTTTTTTTTTTTTTTTTTTT MONMO3      TELAPSE       59.68 TCPU     1590.38
 NUMERICALLY INTEGRATED DENSITY    197.9999660352
 TTTTTTTTTTTTTTTTTTTTTTTTTTTTTT NUMDFT      TELAPSE       60.33 TCPU     1611.31
 CYC   5 ETOT(AU) -1.289107591339E+03 DETOT -8.93E-04 tst  6.79E-06 PX  7.11E-03
 TTTTTTTTTTTTTTTTTTTTTTTTTTTTTT DIIS        TELAPSE       60.41 TCPU     1613.78
 DIIS TEST: 0.73985E-04 AT SCF   CYCLE   5 - DIIS ACTIVE - HISTORY:     5 CYCLES
 TTTTTTTTTTTTTTTTTTTTTTTTTTTTTT FDIK        TELAPSE       60.92 TCPU     1630.03
 INSULATING STATE
 TOP OF VALENCE BANDS -    BAND     99; K    1; EIG -2.4248315E-01 AU
 BOTTOM OF VIRTUAL BANDS - BAND    100; K    1; EIG -8.6412544E-02 AU
 DIRECT ENERGY BAND GAP:   4.2469 eV
 TTTTTTTTTTTTTTTTTTTTTTTTTTTTTT PDIG        TELAPSE       61.25 TCPU     1636.10
 CHARGE NORMALIZATION FACTOR   1.00000000
 TOTAL ATOMIC CHARGES:
   4.5080969   4.5069340   4.5073069   4.5087312   4.5068061   4.5071827
   0.8731009   0.8733558   0.8738756   0.8740970   0.8710334   0.8710113
   0.8720174   0.8719821   0.8724693   0.8731881   0.8742609   0.8739536
   5.9223801   6.1709299   6.1699261   6.1659674   6.1654345   5.9200651
   5.9296677   6.1647170   6.1638170   6.1677198   6.1652715   5.9264587
   5.9214195   6.1689254   6.1703681   6.1662284   6.1663343   5.9219719
   8.4900499   8.4891736   8.4874178   8.4886923   8.4847149   8.4929461
 TTTTTTTTTTTTTTTTTTTTTTTTTTTTTT MOQGAD      TELAPSE       61.30 TCPU     1636.15
 TTTTTTTTTTTTTTTTTTTTTTTTTTTTTT SHELLXN     TELAPSE       68.32 TCPU     1859.85
 TTTTTTTTTTTTTTTTTTTTTTTTTTTTTT MONMO3      TELAPSE       68.46 TCPU     1864.48
 NUMERICALLY INTEGRATED DENSITY    197.9999659940
 TTTTTTTTTTTTTTTTTTTTTTTTTTTTTT NUMDFT      TELAPSE       69.12 TCPU     1885.54
 CYC   6 ETOT(AU) -1.289107610101E+03 DETOT -1.88E-05 tst  2.04E-07 PX  1.36E-03
 TTTTTTTTTTTTTTTTTTTTTTTTTTTTTT DIIS        TELAPSE       69.21 TCPU     1888.27
 DIIS TEST: 0.14341E-04 AT SCF   CYCLE   6 - DIIS ACTIVE - HISTORY:     6 CYCLES
 TTTTTTTTTTTTTTTTTTTTTTTTTTTTTT FDIK        TELAPSE       69.76 TCPU     1905.81
 INSULATING STATE
 TOP OF VALENCE BANDS -    BAND     99; K    1; EIG -2.4247415E-01 AU
 BOTTOM OF VIRTUAL BANDS - BAND    100; K    1; EIG -8.6492261E-02 AU
 DIRECT ENERGY BAND GAP:   4.2445 eV
 TTTTTTTTTTTTTTTTTTTTTTTTTTTTTT PDIG        TELAPSE       70.10 TCPU     1911.89
 CHARGE NORMALIZATION FACTOR   1.00000000
 TOTAL ATOMIC CHARGES:
   4.5086178   4.5068191   4.5072043   4.5087080   4.5068003   4.5077307
   0.8732155   0.8732319   0.8739608   0.8740235   0.8711047   0.8708306
   0.8721213   0.8717671   0.8724088   0.8732373   0.8742165   0.8739990
   5.9212920   6.1700979   6.1701323   6.1654406   6.1657952   5.9214700
   5.9283829   6.1637088   6.1643640   6.1666601   6.1659572   5.9286652
   5.9221797   6.1687211   6.1698999   6.1664682   6.1660046   5.9215424
   8.4897329   8.4888446   8.4881813   8.4881727   8.4860827   8.4922062
 TTTTTTTTTTTTTTTTTTTTTTTTTTTTTT MOQGAD      TELAPSE       70.14 TCPU     1911.93
 TTTTTTTTTTTTTTTTTTTTTTTTTTTTTT SHELLXN     TELAPSE       76.90 TCPU     2127.27
 TTTTTTTTTTTTTTTTTTTTTTTTTTTTTT MONMO3      TELAPSE       77.05 TCPU     2132.01
 NUMERICALLY INTEGRATED DENSITY    197.9999659950
 TTTTTTTTTTTTTTTTTTTTTTTTTTTTTT NUMDFT      TELAPSE       77.71 TCPU     2153.30
 CYC   7 ETOT(AU) -1.289107612600E+03 DETOT -2.50E-06 tst  7.49E-08 PX  5.30E-04
 TTTTTTTTTTTTTTTTTTTTTTTTTTTTTT DIIS        TELAPSE       77.82 TCPU     2156.80
 DIIS TEST: 0.19252E-05 AT SCF   CYCLE   7 - DIIS ACTIVE - HISTORY:     7 CYCLES
 TTTTTTTTTTTTTTTTTTTTTTTTTTTTTT FDIK        TELAPSE       78.37 TCPU     2174.28
 INSULATING STATE
 TOP OF VALENCE BANDS -    BAND     99; K    1; EIG -2.4247756E-01 AU
 BOTTOM OF VIRTUAL BANDS - BAND    100; K    1; EIG -8.6513361E-02 AU
 DIRECT ENERGY BAND GAP:   4.2440 eV
 TTTTTTTTTTTTTTTTTTTTTTTTTTTTTT PDIG        TELAPSE       78.72 TCPU     2180.36
 CHARGE NORMALIZATION FACTOR   1.00000000
 TOTAL ATOMIC CHARGES:
   4.5086684   4.5069063   4.5072843   4.5087642   4.5068515   4.5077858
   0.8731425   0.8732371   0.8738931   0.8740215   0.8710293   0.8708500
   0.8720425   0.8717896   0.8723911   0.8731880   0.8742058   0.8739414
   5.9216774   6.1703373   6.1700316   6.1656264   6.1655920   5.9209427
   5.9288476   6.1640321   6.1640975   6.1669691   6.1657050   5.9279354
   5.9218623   6.1687679   6.1699955   6.1663112   6.1661427   5.9217099
   8.4897757   8.4889190   8.4881671   8.4883180   8.4858258   8.4924182
 TTTTTTTTTTTTTTTTTTTTTTTTTTTTTT MOQGAD      TELAPSE       78.77 TCPU     2180.40
 TTTTTTTTTTTTTTTTTTTTTTTTTTTTTT SHELLXN     TELAPSE       85.50 TCPU     2394.76
 TTTTTTTTTTTTTTTTTTTTTTTTTTTTTT MONMO3      TELAPSE       85.63 TCPU     2399.10
 NUMERICALLY INTEGRATED DENSITY    197.9999659942
 TTTTTTTTTTTTTTTTTTTTTTTTTTTTTT NUMDFT      TELAPSE       86.25 TCPU     2418.74
 CYC   8 ETOT(AU) -1.289107612929E+03 DETOT -3.29E-07 tst  8.95E-09 PX  1.70E-04
 TTTTTTTTTTTTTTTTTTTTTTTTTTTTTT DIIS        TELAPSE       86.33 TCPU     2421.55
 DIIS TEST: 0.81801E-07 AT SCF   CYCLE   8 - DIIS ACTIVE - HISTORY:     8 CYCLES
 TTTTTTTTTTTTTTTTTTTTTTTTTTTTTT FDIK        TELAPSE       86.82 TCPU     2437.23
 INSULATING STATE
 TOP OF VALENCE BANDS -    BAND     99; K    1; EIG -2.4248228E-01 AU
 BOTTOM OF VIRTUAL BANDS - BAND    100; K    1; EIG -8.6505538E-02 AU
 DIRECT ENERGY BAND GAP:   4.2443 eV
 TTTTTTTTTTTTTTTTTTTTTTTTTTTTTT PDIG        TELAPSE       87.16 TCPU     2443.30
 CHARGE NORMALIZATION FACTOR   1.00000000
 TOTAL ATOMIC CHARGES:
   4.5086140   4.5069145   4.5072912   4.5087720   4.5068596   4.5077285
   0.8731398   0.8732254   0.8738928   0.8740004   0.8710339   0.8708323
   0.8720419   0.8717783   0.8723838   0.8731809   0.8741855   0.8739419
   5.9215569   6.1703450   6.1700791   6.1655939   6.1656921   5.9210261
   5.9286850   6.1640112   6.1642150   6.1669801   6.1657760   5.9279730
   5.9219140   6.1687867   6.1700382   6.1664036   6.1661063   5.9216216
   8.4898392   8.4889571   8.4880421   8.4883396   8.4857690   8.4924325
 TTTTTTTTTTTTTTTTTTTTTTTTTTTTTT MOQGAD      TELAPSE       87.20 TCPU     2443.34
 TTTTTTTTTTTTTTTTTTTTTTTTTTTTTT SHELLXN     TELAPSE       93.49 TCPU     2643.70
 +++ ENERGIES IN A.U. +++
 ::: EXT EL-POLE                                  -1.3765891745823E+03
 ::: EXT EL-SPHEROPOLE                             1.5042782282617E+01
 ::: BIELET ZONE E-E                               2.0417530482279E+03
 ::: TOTAL E-E                                     6.8020665592822E+02
 ::: TOTAL E-N + N-E                              -3.1886715454953E+03
 ::: TOTAL N-N                                     7.3144313738888E+01
 ::: KINETIC ENERGY                                1.2799284343362E+03
 ::: PSEUDO TOTAL   ENERGY                        -1.1553921414920E+03
 ::: VIRIAL COEFFICIENT                            1.0511375356823E+00
 TTTTTTTTTTTTTTTTTTTTTTTTTTTTTT MONMO3      TELAPSE       93.63 TCPU     2648.04
 NUMERICALLY INTEGRATED DENSITY    197.9999659941
 EXCHANGE ENERGY: -0.126025011162E+03  CORRELATION ENERGY: -0.769046034324E+01
 TTTTTTTTTTTTTTTTTTTTTTTTTTTTTT NUMDFT      TELAPSE       94.24 TCPU     2667.65
 CYC   9 ETOT(AU) -1.289107612997E+03 DETOT -6.77E-08 tst  3.31E-10 PX  1.70E-04

 == SCF ENDED - CONVERGENCE ON ENERGY      E(AU) -1.2891076129970E+03 CYCLES   9


 ENERGY EXPRESSION=HARTREE+FOCK EXCH*0.00000+(HSESOL     EXCH)*1.00000+PBESOL     CORR


 TOTAL ENERGY(DFT)(AU)(  9) -1.2891076129970E+03 DE-6.8E-08 tester 3.3E-10
 TTTTTTTTTTTTTTTTTTTTTTTTTTTTTT EDFT        TELAPSE       94.24 TCPU     2667.66
 
 INFORMATION **** DFTD3 ENERGY **** CALCULATE DFTD3 ENERGY

           DFT-D V3(BJ)
 DF                                         hsesol3c  
 parameters
 s6       :    1.0000
 s8       :    0.0000
 a1       :    0.5196
 a2       :    4.9385
 k1 k3    :   16.0000   -4.0000
 Cutoff   :   50.2022
 CN-Cutoff:   21.1671
 ABC-Cutoff:   21.1671
 
 Edisp /kcal,au:   -24.0949 -0.03839759

 E6    /kcal :   -25.3985
 E8    /kcal :     0.0000
 E6(ABC) "   :   1.303639
 
 INFORMATION **** DFTD3 ENERGY **** NORMAL TERMINATION OF DFTD3 MODULE

 GCP ENERGY CALCULATION
  level        hsesol3c            basis:hsesol3c
  Nbf            474
  Atoms           42

  Parameters: 
  sigma     1.0000
  eta       1.4281
  alpha     0.2936
  beta      1.9467

  dmp_scal      4.0000
  dmp_exp       6.0000
 cutoffs: 
   distance [bohr] 60.0
   noise    [a.u.] 2.2E-16
 SR-damping   T
 ** gCP correction **
  Egcp:        0.0830266763 / (a.u.) ||      52.1000 / (kcal/mol)
 INFORMATION **** GCP **** NORMAL TERMINATION OF GCP MODULE

 *******************************************************************************

 DFT-D3-GCP DISPERSION AND COUNTERPOISE CORRECTION

 D3 DISPERSION ENERGY (AU)      -3.8397588292666E-02
 GCP ENERGY (AU)                 8.3026676265189E-02
 TOTAL ENERGY + DISP + GCP (AU) -1.2890629839090E+03

 *******************************************************************************

 EIGENVECTORS IN FORTRAN UNIT 10
 TTTTTTTTTTTTTTTTTTTTTTTTTTTTTT END         TELAPSE       95.97 TCPU     2675.24
 EEEEEEEEEE TERMINATION  DATE 02 12 2025 TIME 08:03:33.7
