 Default number of threads is:           32

         
 *******************************************************************************
 *                                                                             *
 *                               CRYSTAL23                                     *
 *                      public : 1.0.1 - October 2022                          *
 *                       HTTP://WWW.CRYSTAL.UNITO.IT                           *
 *                                                                             *
 *                              MAIN AUTHORS                                   *
 *                                                                             *
 *  R. DOVESI(1,11), V.R. SAUNDERS(2), C. ROETTI(1,11), R. ORLANDO(1,11),      *
 *  C.M. ZICOVICH-WILSON(1,3), F. PASCALE(4), B. CIVALLERI(1,11),              *
 *  K. DOLL(5), N.M. HARRISON(6), I.J. BUSH(7), Ph. D'ARCO(8),                 *
 *  M. LLUNELL(9), M. CAUSA'(10), Y. NOEL(8), L. MASCHIO(1,11), A. ERBA(1,11)  *
 *  M. RE'RAT(14), S. CASASSA(1,11), B.G. SEARLE(2), J.K. DESMARAIS(1)         *
 *                                                                             *
 *        CONTRIBUTIONS TO THE CODE HAVE ALSO BEEN GIVEN BY                    *
 *                                                                             *
 *  M. FERRABONE(1,11), M. DE LA PIERRE(1,11), M. FERRERO(1,11),               *
 *  J. BAIMA(1,11), E. ALBANESE(1,11), M.F. PEINTINGER(12), R. BAST(13),       *
 *  B. KIRTMAN(15), V. LACIVITA(1,11), R. DEMICHELIS(1,16)                     *
 *  G. BRANDEBURG(17), S. SALUSTRO(1,11), G. SANSONE(1,11)                     *
 *  M.T. RUGGIERO(18), L.E. DAGA(1), L. DONA'(1), A. COSSARD(1)                *
 *                                                                             *
 * (1) THEORETICAL CHEMISTRY GROUP - UNIVERSITA' DI TORINO - TORINO (ITALY)    *
 * (2) SCIENTIFIC COMPUTING DEPARTMENT - STFC DARESBURY (UK)                   *
 * (3) UNIVERSIDAD AUTONOMA DEL ESTADO DE MORELOS - CUERNAVACA (MEXICO)        *
 * (4) UNIVERSITE' DE LORRAINE - NANCY (FRANCE)                                *
 * (5) UNIVERSITAET STUTTGART- STUTTGART (GERMANY)                             *
 * (6) IMPERIAL COLLEGE - LONDON (UK)                                          *
 * (7) SCIENTIFIC COMPUTING DEPARTMENT - STFC RAL (UK)                         *
 * (8) UPMC - SORBONNE UNIVERSITES - PARIS (FRANCE)                            *
 * (9) UNIVERSIDAD DE BARCELONA - BARCELONA (SPAIN)                            *
 *(10) UNIVERSITA' DI NAPOLI "FEDERICO II" - NAPOLI (ITALY)                    *
 *(11) NIS - NANOSTRUCTURED INTERFACES AND SURFACES - TORINO (ITALY)           *
 *(12) MPI FUER CHEMISCHE ENERGIEKONVERSION - MUELHEIM AN DER RUHR (GERMANY)   *
 *(13) UNIVERSITY OF TROMSO - TROMSO (NORWAY)                                  *
 *(14) UNIVERSITE' DE PAU ET DES PAYS DE L'ADOUR - PAU (FRANCE)                *
 *(15) UNIVERSITY OF CALIFORNIA SANTA BARBARA - SANTA BARBARA (USA)            *
 *(16) CURTIN UNIVERSITY - PERTH (AUSTRALIA)                                   *
 *(17) UNIVERSITY COLLEGE LONDON - LONDON (UK)                                 *
 *(18) UNIVERSITY OF VERMONT - BURLINGTON (USA)                                *
 *                                                                             *
 *******************************************************************************
 EEEEEEEEEE STARTING  DATE 19 02 2026 TIME 18:12:50.5
 cof-1_z33_L087_incl                                                             

 CRYSTAL CALCULATION
 (INPUT ACCORDING TO THE INTERNATIONAL TABLES FOR X-RAY CRYSTALLOGRAPHY)
 CRYSTAL FAMILY                       :  TRICLINIC   
 CRYSTAL CLASS  (GROTH - 1921)        :  TRICLINIC PEDIAL                     

 SPACE GROUP (NONCENTROSYMMETRIC)     :  P 1             

 LATTICE PARAMETERS  (ANGSTROMS AND DEGREES) - CONVENTIONAL CELL
        A           B           C        ALPHA        BETA       GAMMA
    15.02361    15.02392     9.28100    35.95651    89.99998   119.99596


 NUMBER OF IRREDUCIBLE ATOMS IN THE CONVENTIONAL CELL:   42

 INPUT COORDINATES

 ATOM AT. N.              COORDINATES
   1   5     4.465492700000E-01 -1.069782900000E-01  5.014396700000E-01
   2   5     6.056049300000E-01  5.208136000000E-02  5.014396900000E-01
   3   5     4.475593500000E-01  5.409306000000E-02  4.983963500000E-01
   4   5     6.012398000000E-02  2.793367000000E-01  5.014396900000E-01
   5   5     2.192319500000E-01  2.793159300000E-01  5.014396800000E-01
   6   5     2.202265800000E-01  4.404840400000E-01  4.983963500000E-01
   7   1     7.380153100000E-01 -2.116012000000E-02  4.951302300000E-01
   8   1    -6.807220000000E-02  3.616064900000E-01  4.941654100000E-01
   9   1     7.383141800000E-01  2.647244800000E-01  4.940169100000E-01
  10   1    -6.793340000000E-02  7.631230000000E-02  4.940539500000E-01
  11   1     5.227630500000E-01 -2.395687800000E-01  5.048542300000E-01
  12   1     1.403387700000E-01  5.662211400000E-01  5.058191100000E-01
  13   1     2.372295200000E-01 -2.402652400000E-01  5.059676900000E-01
  14   1     4.256841700000E-01  5.660569500000E-01  5.059304100000E-01
  15   1     5.260444100000E-01  2.639640000000E-01  4.951302800000E-01
  16   1     1.442551200000E-01  7.616242000000E-02  4.941653500000E-01
  17   1     2.411833700000E-01 -2.052463000000E-02  4.940168000000E-01
  18   1     4.296212600000E-01  3.615852100000E-01  4.940540700000E-01
  19   6     7.258105100000E-01  1.137503200000E-01  4.982849900000E-01
  20   6     7.814113100000E-01  6.259647000000E-02  4.952787100000E-01
  21   6    -1.116031200000E-01  2.771692800000E-01  4.950190000000E-01
  22   6     7.812011000000E-01  2.231565700000E-01  4.957983900000E-01
  23   6    -1.111566500000E-01  1.170505300000E-01  4.937941500000E-01
  24   6    -5.722748000000E-02  2.234752900000E-01  4.958354700000E-01
  25   6     3.868215500000E-01 -2.263012700000E-01  5.016995000000E-01
  26   6     4.389580000000E-01 -2.829179600000E-01  5.047057300000E-01
  27   6     2.244922300000E-01  6.100160600000E-01  5.049655300000E-01
  28   6     2.782409000000E-01 -2.825246700000E-01  5.041861700000E-01
  29   6     3.850022000000E-01  6.091599600000E-01  5.061902600000E-01
  30   6     2.778936100000E-01  5.558893100000E-01  5.041490100000E-01
  31   6     3.879650700000E-01  1.136811800000E-01  4.982849900000E-01
  32   6     4.421324000000E-01  2.234365800000E-01  4.952787700000E-01
  33   6     2.278321500000E-01  1.161560500000E-01  4.950189400000E-01
  34   6     2.810362800000E-01  6.215443000000E-02  4.957983100000E-01
  35   6     3.891599400000E-01  2.778985000000E-01  4.937942300000E-01
  36   6     2.806966100000E-01  2.233978900000E-01  4.958354700000E-01
  37   8     3.943476300000E-01 -5.244131000000E-02  4.992128400000E-01
  38   8     5.511526000000E-01 -5.671413000000E-02  5.056335600000E-01
  39   8     5.543789300000E-01  1.086888800000E-01  4.959468400000E-01
  40   8     1.139354400000E-01  3.868391500000E-01  4.992128800000E-01
  41   8     1.118148700000E-01  2.236031600000E-01  5.056335500000E-01
  42   8     2.739633600000E-01  3.890008500000E-01  4.959468200000E-01

 *******************************************************************************

 << INFORMATION >>: FROM NOW ON, ALL COORDINATES REFER TO THE PRIMITIVE CELL

 *******************************************************************************

 LATTICE PARAMETERS  (ANGSTROMS AND DEGREES) - PRIMITIVE CELL
       A          B          C        ALPHA      BETA     GAMMA        VOLUME
   15.02361   15.02392    9.28100    35.95651  89.99998 119.99596    645.099184

 COORDINATES OF THE EQUIVALENT ATOMS (FRACTIONAL UNITS)

 N. ATOM EQUIV AT. N.          X                  Y                  Z

   1   1   1    5 B     4.46549270000E-01 -1.06978290000E-01 -4.98560330000E-01

   2   2   1    5 B    -3.94395070000E-01  5.20813600000E-02 -4.98560310000E-01

   3   3   1    5 B     4.47559350000E-01  5.40930600000E-02  4.98396350000E-01

   4   4   1    5 B     6.01239800000E-02  2.79336700000E-01 -4.98560310000E-01

   5   5   1    5 B     2.19231950000E-01  2.79315930000E-01 -4.98560320000E-01

   6   6   1    5 B     2.20226580000E-01  4.40484040000E-01  4.98396350000E-01

   7   7   1    1 H    -2.61984690000E-01 -2.11601200000E-02  4.95130230000E-01

   8   8   1    1 H    -6.80722000000E-02  3.61606490000E-01  4.94165410000E-01

   9   9   1    1 H    -2.61685820000E-01  2.64724480000E-01  4.94016910000E-01

  10  10   1    1 H    -6.79334000000E-02  7.63123000000E-02  4.94053950000E-01

  11  11   1    1 H    -4.77236950000E-01 -2.39568780000E-01 -4.95145770000E-01

  12  12   1    1 H     1.40338770000E-01 -4.33778860000E-01 -4.94180890000E-01

  13  13   1    1 H     2.37229520000E-01 -2.40265240000E-01 -4.94032310000E-01

  14  14   1    1 H     4.25684170000E-01 -4.33943050000E-01 -4.94069590000E-01

  15  15   1    1 H    -4.73955590000E-01  2.63964000000E-01  4.95130280000E-01

  16  16   1    1 H     1.44255120000E-01  7.61624200000E-02  4.94165350000E-01

  17  17   1    1 H     2.41183370000E-01 -2.05246300000E-02  4.94016800000E-01

  18  18   1    1 H     4.29621260000E-01  3.61585210000E-01  4.94054070000E-01

  19  19   1    6 C    -2.74189490000E-01  1.13750320000E-01  4.98284990000E-01

  20  20   1    6 C    -2.18588690000E-01  6.25964700000E-02  4.95278710000E-01

  21  21   1    6 C    -1.11603120000E-01  2.77169280000E-01  4.95019000000E-01

  22  22   1    6 C    -2.18798900000E-01  2.23156570000E-01  4.95798390000E-01

  23  23   1    6 C    -1.11156650000E-01  1.17050530000E-01  4.93794150000E-01

  24  24   1    6 C    -5.72274800000E-02  2.23475290000E-01  4.95835470000E-01

  25  25   1    6 C     3.86821550000E-01 -2.26301270000E-01 -4.98300500000E-01

  26  26   1    6 C     4.38958000000E-01 -2.82917960000E-01 -4.95294270000E-01

  27  27   1    6 C     2.24492230000E-01 -3.89983940000E-01 -4.95034470000E-01

  28  28   1    6 C     2.78240900000E-01 -2.82524670000E-01 -4.95813830000E-01

  29  29   1    6 C     3.85002200000E-01 -3.90840040000E-01 -4.93809740000E-01

  30  30   1    6 C     2.77893610000E-01 -4.44110690000E-01 -4.95850990000E-01

  31  31   1    6 C     3.87965070000E-01  1.13681180000E-01  4.98284990000E-01

  32  32   1    6 C     4.42132400000E-01  2.23436580000E-01  4.95278770000E-01

  33  33   1    6 C     2.27832150000E-01  1.16156050000E-01  4.95018940000E-01

  34  34   1    6 C     2.81036280000E-01  6.21544300000E-02  4.95798310000E-01

  35  35   1    6 C     3.89159940000E-01  2.77898500000E-01  4.93794230000E-01

  36  36   1    6 C     2.80696610000E-01  2.23397890000E-01  4.95835470000E-01

  37  37   1    8 O     3.94347630000E-01 -5.24413100000E-02  4.99212840000E-01

  38  38   1    8 O    -4.48847400000E-01 -5.67141300000E-02 -4.94366440000E-01

  39  39   1    8 O    -4.45621070000E-01  1.08688880000E-01  4.95946840000E-01

  40  40   1    8 O     1.13935440000E-01  3.86839150000E-01  4.99212880000E-01

  41  41   1    8 O     1.11814870000E-01  2.23603160000E-01 -4.94366450000E-01

  42  42   1    8 O     2.73963360000E-01  3.89000850000E-01  4.95946820000E-01

 NUMBER OF SYMMETRY OPERATORS         :    1
 *******************************************************************************
 * GEOMETRY EDITING - INPUT COORDINATES ARE GIVEN IN ANGSTROM         
 *******************************************************************************

 GCALCO - MAX INDICES DIRECT LATTICE VECTOR     9    15    22
 NO.OF VECTORS CREATED 6999 STARS 3500 RMAX   216.94169 BOHR

 GEOMETRY FOR WAVE FUNCTION - DIMENSIONALITY OF THE SYSTEM    3
 (NON PERIODIC DIRECTION: LATTICE PARAMETER FORMALLY SET TO 500)
 *******************************************************************************
 LATTICE PARAMETERS (ANGSTROMS AND DEGREES) - BOHR = 0.5291772083 ANGSTROM
 PRIMITIVE CELL - CENTRING CODE 1/0 VOLUME=   645.099184 - DENSITY  1.004 g/cm^3
         A              B              C           ALPHA      BETA       GAMMA 
    15.02361100    15.02391600     9.28100200    35.956513  89.999980 119.995964
 *******************************************************************************
 ATOMS IN THE ASYMMETRIC UNIT   42 - ATOMS IN THE UNIT CELL:   42
     ATOM                 X/A                 Y/B                 Z/C    
 *******************************************************************************
      1 T   5 B     4.465492700000E-01 -1.069782900000E-01 -4.985603300000E-01
      2 T   5 B    -3.943950700000E-01  5.208136000000E-02 -4.985603100000E-01
      3 T   5 B     4.475593500000E-01  5.409306000000E-02  4.983963500000E-01
      4 T   5 B     6.012398000000E-02  2.793367000000E-01 -4.985603100000E-01
      5 T   5 B     2.192319500000E-01  2.793159300000E-01 -4.985603200000E-01
      6 T   5 B     2.202265800000E-01  4.404840400000E-01  4.983963500000E-01
      7 T   1 H    -2.619846900000E-01 -2.116012000000E-02  4.951302300000E-01
      8 T   1 H    -6.807220000000E-02  3.616064900000E-01  4.941654100000E-01
      9 T   1 H    -2.616858200000E-01  2.647244800000E-01  4.940169100000E-01
     10 T   1 H    -6.793340000000E-02  7.631230000000E-02  4.940539500000E-01
     11 T   1 H    -4.772369500000E-01 -2.395687800000E-01 -4.951457700000E-01
     12 T   1 H     1.403387700000E-01 -4.337788600000E-01 -4.941808900000E-01
     13 T   1 H     2.372295200000E-01 -2.402652400000E-01 -4.940323100000E-01
     14 T   1 H     4.256841700000E-01 -4.339430500000E-01 -4.940695900000E-01
     15 T   1 H    -4.739555900000E-01  2.639640000000E-01  4.951302800000E-01
     16 T   1 H     1.442551200000E-01  7.616242000000E-02  4.941653500000E-01
     17 T   1 H     2.411833700000E-01 -2.052463000000E-02  4.940168000000E-01
     18 T   1 H     4.296212600000E-01  3.615852100000E-01  4.940540700000E-01
     19 T   6 C    -2.741894900000E-01  1.137503200000E-01  4.982849900000E-01
     20 T   6 C    -2.185886900000E-01  6.259647000000E-02  4.952787100000E-01
     21 T   6 C    -1.116031200000E-01  2.771692800000E-01  4.950190000000E-01
     22 T   6 C    -2.187989000000E-01  2.231565700000E-01  4.957983900000E-01
     23 T   6 C    -1.111566500000E-01  1.170505300000E-01  4.937941500000E-01
     24 T   6 C    -5.722748000000E-02  2.234752900000E-01  4.958354700000E-01
     25 T   6 C     3.868215500000E-01 -2.263012700000E-01 -4.983005000000E-01
     26 T   6 C     4.389580000000E-01 -2.829179600000E-01 -4.952942700000E-01
     27 T   6 C     2.244922300000E-01 -3.899839400000E-01 -4.950344700000E-01
     28 T   6 C     2.782409000000E-01 -2.825246700000E-01 -4.958138300000E-01
     29 T   6 C     3.850022000000E-01 -3.908400400000E-01 -4.938097400000E-01
     30 T   6 C     2.778936100000E-01 -4.441106900000E-01 -4.958509900000E-01
     31 T   6 C     3.879650700000E-01  1.136811800000E-01  4.982849900000E-01
     32 T   6 C     4.421324000000E-01  2.234365800000E-01  4.952787700000E-01
     33 T   6 C     2.278321500000E-01  1.161560500000E-01  4.950189400000E-01
     34 T   6 C     2.810362800000E-01  6.215443000000E-02  4.957983100000E-01
     35 T   6 C     3.891599400000E-01  2.778985000000E-01  4.937942300000E-01
     36 T   6 C     2.806966100000E-01  2.233978900000E-01  4.958354700000E-01
     37 T   8 O     3.943476300000E-01 -5.244131000000E-02  4.992128400000E-01
     38 T   8 O    -4.488474000000E-01 -5.671413000000E-02 -4.943664400000E-01
     39 T   8 O    -4.456210700000E-01  1.086888800000E-01  4.959468400000E-01
     40 T   8 O     1.139354400000E-01  3.868391500000E-01  4.992128800000E-01
     41 T   8 O     1.118148700000E-01  2.236031600000E-01 -4.943664500000E-01
     42 T   8 O     2.739633600000E-01  3.890008500000E-01  4.959468200000E-01

 T = ATOM BELONGING TO THE ASYMMETRIC UNIT

 ****    1 SYMMOPS - TRANSLATORS IN FRACTIONAL UNITS
 **** MATRICES AND TRANSLATORS IN THE CRYSTALLOGRAPHIC REFERENCE FRAME
   V INV                    ROTATION MATRICES                   TRANSLATORS
   1   1  1.00 -0.00  0.00  0.00  1.00  0.00 -0.00  0.00  1.00  0.00  0.00  0.00

 DIRECT LATTICE VECTORS CARTESIAN COMPONENTS (ANGSTROM)
          X                    Y                    Z
   0.130113578931E+02  -0.751088897922E+01   0.000000000000E+00
   0.000000000000E+00   0.150239160000E+02   0.000000000000E+00
   0.433671519113E+01   0.751262665665E+01   0.330005154397E+01


 CARTESIAN COORDINATES - PRIMITIVE CELL
 *******************************************************************************
 *      ATOM          X(ANGSTROM)         Y(ANGSTROM)         Z(ANGSTROM)
 *******************************************************************************
    1     5 B    -6.886169790855E-01 -1.195423115253E+00 -4.945326330751E+00
    2     5 B     1.380913224825E+00 -3.735481874967E-04 -4.945326264750E+00
    3     5 B    -6.898847984412E-01  1.194986340610E+00  4.944785188299E+00
    4     5 B    -1.379819448337E+00 -3.508971029276E-04 -1.645274720778E+00
    5     5 B     6.903912496031E-01 -1.195705317343E+00 -1.645274753779E+00
    6     5 B     6.901346810617E-01  1.195336871587E+00 -1.655317899644E+00
    7     1 H    -1.261537774062E+00  5.369558619824E+00  1.633955279978E+00
    8     1 H    -3.079372307421E+00  2.143881842898E+00 -1.669280219724E+00
    9     1 H    -1.262477221285E+00 -5.369859900981E+00  1.630281266593E+00
   10     1 H    -3.078049701220E+00 -2.144233971707E+00 -1.669648043469E+00
   11     1 H    -4.020091747693E+00  3.777993867306E+00  1.666044981192E+00
   12     1 H    -3.171238100887E-01  3.740193396416E+00 -1.630822409046E+00
   13     1 H     5.280915954963E+00 -1.590383015497E+00  1.669719456584E+00
   14     1 H     3.396089988849E+00  1.595365154864E+00 -1.630455113309E+00
   15     1 H    -4.019566800039E+00 -3.778586279367E+00  1.633955444981E+00
   16     1 H    -3.167058166301E-01 -3.739373266012E+00 -1.669280417727E+00
   17     1 H     5.280533306158E+00  1.591501947756E+00  1.630280903588E+00
   18     1 H     3.395812571804E+00 -1.595394645628E+00 -1.669647647463E+00
   19     6 C     2.930057691873E+00  5.218264370964E-04  4.944417694559E+00
   20     6 C    -5.032968162595E+00 -1.209543127552E+00 -1.665606272340E+00
   21     6 C    -3.642066910235E+00  1.208672902855E+00 -1.666463328726E+00
   22     6 C    -5.033449575987E+00  1.208181353593E+00 -1.663891301553E+00
   23     6 C    -3.641569554878E+00 -1.209492974533E+00 -1.670505396860E+00
   24     6 C    -2.931025199679E+00 -2.966535372327E-04 -1.663768935642E+00
   25     6 C    -1.464628911434E+00 -2.537561263957E+00 -4.944468878358E+00
   26     6 C     3.563489453231E+00  3.755454593844E+00 -1.634496620434E+00
   27     6 C     7.741252425575E-01  3.759684672584E+00 -1.633639267043E+00
   28     6 C     1.470088561852E+00  4.964588384623E+00 -1.636211195214E+00
   29     6 C     2.867889212827E+00  2.550451072614E+00 -1.629597594915E+00
   30     6 C     1.465408695033E+00  2.539262880796E+00 -1.636333825129E+00
   31     6 C    -1.465770240504E+00  2.537002664859E+00  4.944417694559E+00
   32     6 C     3.563910667088E+00 -3.755697127940E+00 -1.665606074337E+00
   33     6 C     7.744466090587E-01 -3.759837418912E+00 -1.666463526729E+00
   34     6 C     1.470084491596E+00 -4.964908419484E+00 -1.663891565557E+00
   35     6 C     2.868229004383E+00 -2.550748345422E+00 -1.670505132856E+00
   36     6 C     1.465826075997E+00 -2.539569828028E+00 -1.663768935642E+00
   37     8 O    -1.378700646880E+00  2.242204687327E-04  4.947479647384E+00
   38     8 O     6.906020908230E-01 -1.194415466280E+00 -4.931486277581E+00
   39     8 O     6.893601596969E-01  1.194517093932E+00  4.936701679041E+00
   40     8 O    -6.893163242843E-01  1.193855787456E+00 -1.652623308557E+00
   41     8 O    -6.890632023653E-01 -1.194424552042E+00 -1.631434766610E+00
   42     8 O     1.378700243700E+00 -1.556434394959E-04 -1.663401474903E+00

 *******************************************************************************
 STARTING BASIS SET HANDLING 
 *******************************************************************************

 Loading internal basis set: SOLDEF2MSVP         

 Please cite in your publication:
 L. Dona', J. G. Brandenburg and B. Civalleri, J. Chem. Phys., 151, 121101 (2019
 )                                                                              
                                                                                
                    

 *******************************************************************************
 LOCAL ATOMIC FUNCTIONS BASIS SET
 *******************************************************************************
   ATOM   X(AU)   Y(AU)   Z(AU)  N. TYPE  EXPONENT  S COEF   P COEF   D/F/G COEF
 *******************************************************************************
   1 B   -1.301  -2.259  -9.345
                                  1 S  
                                         2.410E+03 1.755E-03 0.000E+00 0.000E+00
                                         3.619E+02 1.344E-02 0.000E+00 0.000E+00
                                         8.231E+01 6.637E-02 0.000E+00 0.000E+00
                                         2.311E+01 2.303E-01 0.000E+00 0.000E+00
                                         7.252E+00 5.150E-01 0.000E+00 0.000E+00
                                  2 S  
                                         2.367E+00 1.000E+00 0.000E+00 0.000E+00
                                  3 S  
                                         5.533E-01 1.000E+00 0.000E+00 0.000E+00
                                  4 S  
                                         1.716E-01 1.000E+00 0.000E+00 0.000E+00
                           5-     7 P  
                                         6.002E+00 0.000E+00-3.555E-02 0.000E+00
                                         1.240E+00 0.000E+00-1.983E-01 0.000E+00
                                         3.367E-01 0.000E+00-5.048E-01 0.000E+00
                           8-    10 P  
                                         1.256E-01 0.000E+00 1.000E+00 0.000E+00
                          11-    15 D  
                                         8.880E-01 0.000E+00 0.000E+00 1.000E+00
   2 B    2.610  -0.001  -9.345
   3 B   -1.304   2.258   9.344
   4 B   -2.607  -0.001  -3.109
   5 B    1.305  -2.260  -3.109
   6 B    1.304   2.259  -3.128
   7 H   -2.384  10.147   3.088
                                 91 S  
                                         1.874E+01 1.968E-02 0.000E+00 0.000E+00
                                         2.826E+00 1.380E-01 0.000E+00 0.000E+00
                                         6.401E-01 4.783E-01 0.000E+00 0.000E+00
                                 92 S  
                                         1.756E-01 1.000E+00 0.000E+00 0.000E+00
   8 H   -5.819   4.051  -3.154
   9 H   -2.386 -10.148   3.081
  10 H   -5.817  -4.052  -3.155
  11 H   -7.597   7.139   3.148
  12 H   -0.599   7.068  -3.082
  13 H    9.979  -3.005   3.155
  14 H    6.418   3.015  -3.081
  15 H   -7.596  -7.140   3.088
  16 H   -0.598  -7.066  -3.154
  17 H    9.979   3.008   3.081
  18 H    6.417  -3.015  -3.155
  19 C    5.537   0.001   9.344
                                115 S  
                                         3.624E+03 1.634E-03 0.000E+00 0.000E+00
                                         5.440E+02 1.252E-02 0.000E+00 0.000E+00
                                         1.237E+02 6.211E-02 0.000E+00 0.000E+00
                                         3.476E+01 2.182E-01 0.000E+00 0.000E+00
                                         1.093E+01 4.980E-01 0.000E+00 0.000E+00
                                116 S  
                                         3.574E+00 1.000E+00 0.000E+00 0.000E+00
                                117 S  
                                         7.742E-01 1.000E+00 0.000E+00 0.000E+00
                                118 S  
                                         2.330E-01 1.000E+00 0.000E+00 0.000E+00
                         119-   121 P  
                                         9.443E+00 0.000E+00 3.790E-02 0.000E+00
                                         2.002E+00 0.000E+00 2.082E-01 0.000E+00
                                         5.463E-01 0.000E+00 5.047E-01 0.000E+00
                         122-   124 P  
                                         1.820E-01 0.000E+00 1.000E+00 0.000E+00
                         125-   129 D  
                                         8.880E-01 0.000E+00 0.000E+00 1.000E+00
  20 C   -9.511  -2.286  -3.148
  21 C   -6.883   2.284  -3.149
  22 C   -9.512   2.283  -3.144
  23 C   -6.882  -2.286  -3.157
  24 C   -5.539  -0.001  -3.144
  25 C   -2.768  -4.795  -9.344
  26 C    6.734   7.097  -3.089
  27 C    1.463   7.105  -3.087
  28 C    2.778   9.382  -3.092
  29 C    5.420   4.820  -3.079
  30 C    2.769   4.799  -3.092
  31 C   -2.770   4.794   9.344
  32 C    6.735  -7.097  -3.148
  33 C    1.463  -7.105  -3.149
  34 C    2.778  -9.382  -3.144
  35 C    5.420  -4.820  -3.157
  36 C    2.770  -4.799  -3.144
  37 O   -2.605   0.000   9.349
                                385 S  
                                         6.773E+03 1.727E-03 0.000E+00 0.000E+00
                                         1.017E+03 1.325E-02 0.000E+00 0.000E+00
                                         2.313E+02 6.603E-02 0.000E+00 0.000E+00
                                         6.501E+01 2.353E-01 0.000E+00 0.000E+00
                                         2.050E+01 5.498E-01 0.000E+00 0.000E+00
                                386 S  
                                         6.716E+00 1.000E+00 0.000E+00 0.000E+00
                                387 S  
                                         1.147E+00 1.000E+00 0.000E+00 0.000E+00
                                388 S  
                                         3.342E-01 1.000E+00 0.000E+00 0.000E+00
                         389-   391 P  
                                         1.769E+01 0.000E+00 4.359E-02 0.000E+00
                                         3.854E+00 0.000E+00 2.318E-01 0.000E+00
                                         1.047E+00 0.000E+00 5.146E-01 0.000E+00
                         392-   394 P  
                                         2.759E-01 0.000E+00 1.000E+00 0.000E+00
                         395-   399 D  
                                         8.000E-01 0.000E+00 0.000E+00 1.000E+00
  38 O    1.305  -2.257  -9.319
  39 O    1.303   2.257   9.329
  40 O   -1.303   2.256  -3.123
  41 O   -1.302  -2.257  -3.083
  42 O    2.605  -0.000  -3.143

 *******************************************************************************
 FINISHED BASIS SET HANDLING 
 *******************************************************************************

 INFORMATION **** SET_MPP **** PCRYSTAL CALCULATION
 INFORMATION **** READM2 **** NEW DEFAULT: FOCK/KS MATRIX MIXING SET TO 30 %
 INFORMATION **** READM2 **** NEW DEFAULT: FULL DIRECT SCF MODE
 INFORMATION **** READM2 **** NEW DEFAULT: COULOMB BIPOLAR BUFFER SET TO 32 Mb
 INFORMATION **** READM2 **** NEW DEFAULT: EXCHANGE BIPOLAR BUFFER SET TO 32 Mb

 *******************************************************************************
 NEW DEFAULT: DFT INTEGRATION GRID INCREASED TO XLGRID
 NEW DEFAULT: DIIS ACCELERATOR ACTIVE
 USE KEYWORD NODIIS TO TURN IT OFF
 *******************************************************************************

 WARNING **** RDDFTP **** HSEsol-HJS ACTIVE
 RANGE SEPARATION - OMEGA:   0.110000000000000     
 WARNING **** RDDFTP **** HSEsol-3c has to be combined with sol-def2-mSVP basis set
 *******************************************************************************
 N. OF ATOMS PER CELL        42  COULOMB OVERLAP TOL         (T1) 10**   -6
 NUMBER OF SHELLS           234  COULOMB PENETRATION TOL     (T2) 10**   -6
 NUMBER OF AO               474  EXCHANGE OVERLAP TOL        (T3) 10**   -6
 N. OF ELECTRONS PER CELL   198  EXCHANGE PSEUDO OVP (F(G))  (T4) 10**   -6
 CORE ELECTRONS PER CELL     60  EXCHANGE PSEUDO OVP (P(G))  (T5) 10**  -12
 N. OF SYMMETRY OPERATORS     1  POLE ORDER IN MONO ZONE                  4
 *******************************************************************************
 TYPE OF CALCULATION :  RESTRICTED CLOSED SHELL
 KOHN-SHAM HAMILTONIAN

 (EXCHANGE)[CORRELATION] FUNCTIONAL:(HSEsol GGA)[PBEsol]

 RANGE-SEPARATED HYBRID FUNCTIONAL 
 OMEGA (SHORT-RANGE)[LONG-RANGE]:(    0.1100)[    0.0000]

 HYBRID EXCHANGE - PERCENTAGE OF FOCK EXCHANGE    25.0000

 CAPPA:IS1  2;IS2  2;IS3  8; K PTS MONK NET  20; SYMMOPS:K SPACE   2;G SPACE   1

 *******************************************************************************
 MAX NUMBER OF SCF CYCLES      50  CONVERGENCE ON DELTAP        10**-16
 WEIGHT OF F(I) IN F(I+1)      30% CONVERGENCE ON ENERGY        10**- 6
 SHRINK. FACT.(MONKH.)    2  2  8  NUMBER OF K POINTS IN THE IBZ     20
 SHRINKING FACTOR(GILAT NET)    8  NUMBER OF K POINTS(GILAT NET)   1028
 *******************************************************************************
 *** K POINTS COORDINATES (OBLIQUE COORDINATES IN UNITS OF IS =  2)
   1-R(  0  0  0)   2-R(  1  0  0)   3-R(  0  1  0)   4-R(  1  1  0)
   5-C(  0  0  1)   6-C(  1  0  1)   7-C(  0  1  1)   8-C(  1  1  1)
   9-C(  0  0  2)  10-C(  1  0  2)  11-C(  0  1  2)  12-C(  1  1  2)
  13-C(  0  0  3)  14-C(  1  0  3)  15-C(  0  1  3)  16-C(  1  1  3)
  17-R(  0  0  4)  18-R(  1  0  4)  19-R(  0  1  4)  20-R(  1  1  4)

 DIRECT LATTICE VECTORS COMPON. (A.U.)     RECIP. LATTICE VECTORS COMPON. (A.U.) 
        X            Y            Z              X            Y            Z
   24.5879030  -14.1935232    0.0000000      0.2555397    0.0000000   -0.3358138
    0.0000000   28.3910867    0.0000000      0.1277517    0.2213084   -0.6716955
    8.1952040   14.1968069    6.2361936      0.0000000    0.0000000    1.0075353

 DISK SPACE FOR EIGENVECTORS (FTN 10)     7189632 REALS

 SYMMETRY ADAPTION OF THE BLOCH FUNCTIONS DISABLED
 TTTTTTTTTTTTTTTTTTTTTTTTTTTTTT gordsh1     TELAPSE        0.04 TCPU        0.04

 MATRIX SIZE: P(G)  349758, F(G)   65632, P(G) IRR  176028, F(G) IRR   66112
 MAX G-VECTOR INDEX FOR 1- AND 2-ELECTRON INTEGRALS  59

 TTTTTTTTTTTTTTTTTTTTTTTTTTTTTT INPUT       TELAPSE        0.44 TCPU        0.44

 NEIGHBORS OF THE NON-EQUIVALENT ATOMS

 N = NUMBER OF NEIGHBORS AT DISTANCE R
    ATOM  N     R/ANG      R/AU   NEIGHBORS (ATOM LABELS AND CELL INDICES)
   1 B    1     1.3791     2.6061   37 O    1 2-3
   1 B    1     1.3793     2.6065   38 O    0 0 0
   1 B    1     1.5503     2.9297   25 C    0 0 0
   1 B    1     2.3895     4.5155    3 B    1 2-3
   1 B    1     2.3898     4.5160    2 B    0 0 0
   1 B    1     2.5632     4.8437   26 C    0 0-1

   2 B    1     1.3793     2.6065   39 O    1 2-3
   2 B    1     1.3793     2.6065   38 O    0 0 0
   2 B    1     1.5504     2.9298   19 C    1 2-3
   2 B    1     2.3895     4.5156    3 B    1 2-3
   2 B    1     2.3898     4.5160    1 B    0 0 0
   2 B    1     2.5634     4.8440   22 C    1 1-1

   3 B    1     1.3791     2.6061   37 O    0 0 0
   3 B    1     1.3793     2.6064   39 O    0 0 0
   3 B    1     1.5502     2.9294   31 C    0 0 0
   3 B    1     2.3895     4.5155    1 B   -1-2 3
   3 B    1     2.3895     4.5156    2 B   -1-2 3
   3 B    1     2.5629     4.8433   32 C   -1-1 2

   4 B    1     1.3795     2.6068   40 O    0 0 0
   4 B    1     1.3795     2.6070   41 O    0 0 0
   4 B    1     1.5513     2.9316   24 C    0 0 0
   4 B    1     2.3905     4.5174    6 B    0 0 0
   4 B    1     2.3905     4.5175    5 B    0 0 0
   4 B    1     2.5648     4.8468   23 C    0 0 0

   5 B    1     1.3795     2.6069   41 O    0 0 0
   5 B    1     1.3797     2.6072   42 O    0 0 0
   5 B    1     1.5516     2.9322   36 C    0 0 0
   5 B    1     2.3905     4.5175    4 B    0 0 0
   5 B    1     2.3911     4.5185    6 B    0 0 0
   5 B    1     2.5651     4.8473   35 C    0 0 0

   6 B    1     1.3795     2.6068   40 O    0 0 0
   6 B    1     1.3796     2.6071   42 O    0 0 0
   6 B    1     1.5516     2.9322   30 C    0 0 0
   6 B    1     2.3905     4.5174    4 B    0 0 0
   6 B    1     2.3911     4.5185    5 B    0 0 0
   6 B    1     2.5651     4.8473   29 C    0 0 0

   7 H    1     1.0913     2.0623   20 C    0 0 1
   7 H    1     2.1472     4.0576   19 C    0 1-1
   7 H    1     2.1680     4.0969   23 C    0 0 1
   7 H    1     2.5202     4.7625   10 H    0 0 1
   7 H    1     2.5676     4.8520   38 O   -1-1 2
   7 H    1     2.7321     5.1630    2 B   -1-1 2

   8 H    1     1.0914     2.0625   21 C    0 0 0
   8 H    1     2.1493     4.0616   24 C    0 0 0
   8 H    1     2.1666     4.0942   22 C    0 0 0
   8 H    1     2.5198     4.7618    9 H    0 1-1
   8 H    1     2.5720     4.8604   40 O    0 0 0
   8 H    1     2.7362     5.1707    4 B    0 0 0

   9 H    1     1.0914     2.0624   22 C    0-1 1
   9 H    1     2.1471     4.0575   19 C    0 0-1
   9 H    1     2.1680     4.0970   21 C    0-1 1
   9 H    1     2.5198     4.7618    8 H    0-1 1
   9 H    1     2.5665     4.8500   39 O    0 0-1
   9 H    1     2.7315     5.1618    2 B   -1-2 2

  10 H    1     1.0915     2.0626   23 C    0 0 0
  10 H    1     2.1490     4.0610   24 C    0 0 0
  10 H    1     2.1669     4.0948   20 C    0 0 0
  10 H    1     2.5202     4.7625    7 H    0 0-1
  10 H    1     2.5712     4.8588   41 O    0 0 0
  10 H    1     2.7351     5.1686    4 B    0 0 0

  11 H    1     1.0913     2.0623   26 C   -1-1 1
  11 H    1     2.1469     4.0571   25 C   -1-1 2
  11 H    1     2.1680     4.0968   29 C   -1-1 1
  11 H    1     2.5198     4.7617   14 H   -1-1 1
  11 H    1     2.5670     4.8510   38 O   -1-1 2
  11 H    1     2.7310     5.1609    1 B   -1-1 2

  12 H    1     1.0914     2.0625   27 C    0 0 0
  12 H    1     2.1493     4.0617   30 C    0 0 0
  12 H    1     2.1664     4.0939   28 C    0 0 0
  12 H    1     2.5192     4.7606   13 H    0 1-1
  12 H    1     2.5735     4.8632   40 O    0 0 0
  12 H    1     2.7371     5.1723    6 B    0 0 0

  13 H    1     1.0914     2.0624   28 C    0-1 1
  13 H    1     2.1475     4.0581   25 C    0-1 2
  13 H    1     2.1679     4.0967   27 C    0-1 1
  13 H    1     2.5192     4.7606   12 H    0-1 1
  13 H    1     2.5675     4.8519   37 O    1 1-1
  13 H    1     2.7328     5.1643    1 B    0-1 2

  14 H    1     1.0914     2.0625   29 C    0 0 0
  14 H    1     2.1491     4.0612   30 C    0 0 0
  14 H    1     2.1666     4.0942   26 C    0 0 0
  14 H    1     2.5198     4.7617   11 H    1 1-1
  14 H    1     2.5723     4.8609   42 O    0 0 0
  14 H    1     2.7355     5.1693    6 B    0 0 0

  15 H    1     1.0914     2.0624   32 C   -1-1 1
  15 H    1     2.1475     4.0582   31 C    0 0-1
  15 H    1     2.1678     4.0966   35 C   -1-1 1
  15 H    1     2.5200     4.7621   18 H   -1-1 1
  15 H    1     2.5667     4.8503   39 O    0 0-1
  15 H    1     2.7315     5.1618    3 B    0 0-1

  16 H    1     1.0913     2.0623   33 C    0 0 0
  16 H    1     2.1487     4.0605   36 C    0 0 0
  16 H    1     2.1667     4.0945   34 C    0 0 0
  16 H    1     2.5197     4.7616   17 H    0 0-1
  16 H    1     2.5723     4.8610   41 O    0 0 0
  16 H    1     2.7359     5.1701    5 B    0 0 0

  17 H    1     1.0915     2.0626   34 C    0 0 1
  17 H    1     2.1479     4.0589   31 C    1 1-1
  17 H    1     2.1679     4.0968   33 C    0 0 1
  17 H    1     2.5197     4.7616   16 H    0 0 1
  17 H    1     2.5677     4.8522   37 O    1 1-1
  17 H    1     2.7331     5.1648    3 B    1 1-1

  18 H    1     1.0914     2.0624   35 C    0 0 0
  18 H    1     2.1486     4.0602   36 C    0 0 0
  18 H    1     2.1668     4.0947   32 C    0 0 0
  18 H    1     2.5200     4.7621   15 H    1 1-1
  18 H    1     2.5717     4.8598   42 O    0 0 0
  18 H    1     2.7349     5.1682    5 B    0 0 0

  19 C    1     1.4020     2.6495   22 C    0-1 2
  19 C    1     1.4021     2.6495   20 C    0-1 2
  19 C    1     1.5504     2.9298    2 B   -1-2 3
  19 C    1     2.1471     4.0575    9 H    0 0 1
  19 C    1     2.1472     4.0576    7 H    0-1 1
  19 C    1     2.4246     4.5817   21 C    0-1 2

  20 C    1     1.0913     2.0623    7 H    0 0-1
  20 C    1     1.3914     2.6294   23 C    0 0 0
  20 C    1     1.4021     2.6495   19 C    0 1-2
  20 C    1     2.1669     4.0948   10 H    0 0 0
  20 C    1     2.4177     4.5688   22 C    0 0 0
  20 C    1     2.4250     4.5825   24 C    0 0 0

  21 C    1     1.0914     2.0625    8 H    0 0 0
  21 C    1     1.3914     2.6293   22 C    0 0 0
  21 C    1     1.4026     2.6505   24 C    0 0 0
  21 C    1     2.1680     4.0970    9 H    0 1-1
  21 C    1     2.4182     4.5697   23 C    0 0 0
  21 C    1     2.4246     4.5817   19 C    0 1-2

  22 C    1     1.0914     2.0624    9 H    0 1-1
  22 C    1     1.3914     2.6293   21 C    0 0 0
  22 C    1     1.4020     2.6495   19 C    0 1-2
  22 C    1     2.1666     4.0942    8 H    0 0 0
  22 C    1     2.4177     4.5688   20 C    0 0 0
  22 C    1     2.4250     4.5826   24 C    0 0 0

  23 C    1     1.0915     2.0626   10 H    0 0 0
  23 C    1     1.3914     2.6294   20 C    0 0 0
  23 C    1     1.4025     2.6504   24 C    0 0 0
  23 C    1     2.1680     4.0969    7 H    0 0-1
  23 C    1     2.4182     4.5697   21 C    0 0 0
  23 C    1     2.4246     4.5818   19 C    0 1-2

  24 C    1     1.4025     2.6504   23 C    0 0 0
  24 C    1     1.4026     2.6505   21 C    0 0 0
  24 C    1     1.5513     2.9316    4 B    0 0 0
  24 C    1     2.1490     4.0610   10 H    0 0 0
  24 C    1     2.1493     4.0616    8 H    0 0 0
  24 C    1     2.4250     4.5825   20 C    0 0 0

  25 C    1     1.4020     2.6494   26 C    0 0-1
  25 C    1     1.4021     2.6495   28 C    0 0-1
  25 C    1     1.5503     2.9297    1 B    0 0 0
  25 C    1     2.1469     4.0571   11 H    1 1-2
  25 C    1     2.1475     4.0581   13 H    0 1-2
  25 C    1     2.4246     4.5818   27 C    0 0-1

  26 C    1     1.0913     2.0623   11 H    1 1-1
  26 C    1     1.3914     2.6293   29 C    0 0 0
  26 C    1     1.4020     2.6494   25 C    0 0 1
  26 C    1     2.1666     4.0942   14 H    0 0 0
  26 C    1     2.4175     4.5684   28 C    0 0 0
  26 C    1     2.4251     4.5828   30 C    0 0 0

  27 C    1     1.0914     2.0625   12 H    0 0 0
  27 C    1     1.3915     2.6295   28 C    0 0 0
  27 C    1     1.4026     2.6505   30 C    0 0 0
  27 C    1     2.1679     4.0967   13 H    0 1-1
  27 C    1     2.4179     4.5691   29 C    0 0 0
  27 C    1     2.4246     4.5818   25 C    0 0 1

  28 C    1     1.0914     2.0624   13 H    0 1-1
  28 C    1     1.3915     2.6295   27 C    0 0 0
  28 C    1     1.4021     2.6495   25 C    0 0 1
  28 C    1     2.1664     4.0939   12 H    0 0 0
  28 C    1     2.4175     4.5684   26 C    0 0 0
  28 C    1     2.4253     4.5832   30 C    0 0 0

  29 C    1     1.0914     2.0625   14 H    0 0 0
  29 C    1     1.3914     2.6293   26 C    0 0 0
  29 C    1     1.4025     2.6504   30 C    0 0 0
  29 C    1     2.1680     4.0968   11 H    1 1-1
  29 C    1     2.4179     4.5691   27 C    0 0 0
  29 C    1     2.4247     4.5819   25 C    0 0 1

  30 C    1     1.4025     2.6504   29 C    0 0 0
  30 C    1     1.4026     2.6505   27 C    0 0 0
  30 C    1     1.5516     2.9322    6 B    0 0 0
  30 C    1     2.1491     4.0612   14 H    0 0 0
  30 C    1     2.1493     4.0617   12 H    0 0 0
  30 C    1     2.4251     4.5828   26 C    0 0 0

  31 C    1     1.4021     2.6496   32 C   -1-1 2
  31 C    1     1.4021     2.6497   34 C   -1-1 2
  31 C    1     1.5502     2.9294    3 B    0 0 0
  31 C    1     2.1475     4.0582   15 H    0 0 1
  31 C    1     2.1479     4.0589   17 H   -1-1 1
  31 C    1     2.4244     4.5814   33 C   -1-1 2

  32 C    1     1.0914     2.0624   15 H    1 1-1
  32 C    1     1.3914     2.6293   35 C    0 0 0
  32 C    1     1.4021     2.6496   31 C    1 1-2
  32 C    1     2.1668     4.0947   18 H    0 0 0
  32 C    1     2.4179     4.5692   34 C    0 0 0
  32 C    1     2.4251     4.5827   36 C    0 0 0

  33 C    1     1.0913     2.0623   16 H    0 0 0
  33 C    1     1.3914     2.6294   34 C    0 0 0
  33 C    1     1.4025     2.6504   36 C    0 0 0
  33 C    1     2.1679     4.0968   17 H    0 0-1
  33 C    1     2.4178     4.5690   35 C    0 0 0
  33 C    1     2.4244     4.5814   31 C    1 1-2

  34 C    1     1.0915     2.0626   17 H    0 0-1
  34 C    1     1.3914     2.6294   33 C    0 0 0
  34 C    1     1.4021     2.6497   31 C    1 1-2
  34 C    1     2.1667     4.0945   16 H    0 0 0
  34 C    1     2.4179     4.5692   32 C    0 0 0
  34 C    1     2.4253     4.5832   36 C    0 0 0

  35 C    1     1.0914     2.0624   18 H    0 0 0
  35 C    1     1.3914     2.6293   32 C    0 0 0
  35 C    1     1.4025     2.6503   36 C    0 0 0
  35 C    1     2.1678     4.0966   15 H    1 1-1
  35 C    1     2.4178     4.5690   33 C    0 0 0
  35 C    1     2.4245     4.5817   31 C    1 1-2

  36 C    1     1.4025     2.6503   35 C    0 0 0
  36 C    1     1.4025     2.6504   33 C    0 0 0
  36 C    1     1.5516     2.9322    5 B    0 0 0
  36 C    1     2.1486     4.0602   18 H    0 0 0
  36 C    1     2.1487     4.0605   16 H    0 0 0
  36 C    1     2.4251     4.5827   32 C    0 0 0

  37 O    1     1.3791     2.6061    1 B   -1-2 3
  37 O    1     1.3791     2.6061    3 B    0 0 0
  37 O    1     2.3880     4.5126   38 O   -1-2 3
  37 O    1     2.3882     4.5130   39 O    0 0 0
  37 O    1     2.5383     4.7966   31 C    0 0 0
  37 O    1     2.5384     4.7968   25 C   -1-2 3

  38 O    1     1.3793     2.6065    1 B    0 0 0
  38 O    1     1.3793     2.6065    2 B    0 0 0
  38 O    1     2.3880     4.5126   37 O    1 2-3
  38 O    1     2.3882     4.5131   39 O    1 2-3
  38 O    1     2.5391     4.7981   19 C    1 2-3
  38 O    1     2.5395     4.7990   25 C    0 0 0

  39 O    1     1.3793     2.6064    3 B    0 0 0
  39 O    1     1.3793     2.6065    2 B   -1-2 3
  39 O    1     2.3882     4.5130   37 O    0 0 0
  39 O    1     2.3882     4.5131   38 O   -1-2 3
  39 O    1     2.5390     4.7980   19 C    0 0 0
  39 O    1     2.5391     4.7982   31 C    0 0 0

  40 O    1     1.3795     2.6068    6 B    0 0 0
  40 O    1     1.3795     2.6068    4 B    0 0 0
  40 O    1     2.3880     4.5126   42 O    0 0 0
  40 O    1     2.3884     4.5134   41 O    0 0 0
  40 O    1     2.5400     4.7998   24 C    0 0 0
  40 O    1     2.5403     4.8005   30 C    0 0 0

  41 O    1     1.3795     2.6069    5 B    0 0 0
  41 O    1     1.3795     2.6070    4 B    0 0 0
  41 O    1     2.3881     4.5128   42 O    0 0 0
  41 O    1     2.3884     4.5134   40 O    0 0 0
  41 O    1     2.5404     4.8006   24 C    0 0 0
  41 O    1     2.5405     4.8008   36 C    0 0 0

  42 O    1     1.3796     2.6071    6 B    0 0 0
  42 O    1     1.3797     2.6072    5 B    0 0 0
  42 O    1     2.3880     4.5126   40 O    0 0 0
  42 O    1     2.3881     4.5128   41 O    0 0 0
  42 O    1     2.5409     4.8016   36 C    0 0 0
  42 O    1     2.5410     4.8019   30 C    0 0 0


 SYMMETRY ALLOWED INTERNAL DEGREE(S) OF FREEDOM: 123
 TTTTTTTTTTTTTTTTTTTTTTTTTTTTTT SYMM        TELAPSE        0.44 TCPU        0.44
 TTTTTTTTTTTTTTTTTTTTTTTTTTTTTT INT_SCREEN  TELAPSE        0.48 TCPU        0.47

 DFT PARAMETERS

     ATOM       ELECTRONS   NET CHARGE   R(ANGSTROM)
   1   5  B       5.0000      0.0000     0.89000000
   7   1  H       1.0000      0.0000     1.11000000
  19   6  C       6.0000      0.0000     0.77000000
  37   8  O       8.0000      0.0000     0.74000000

 SIZE OF GRID=    1278201
 TTTTTTTTTTTTTTTTTTTTTTTTTTTTTT MAKE_GRID2  TELAPSE       10.01 TCPU        9.99
 BECKE WEIGHT FUNCTION
 RADSAFE =     2.00
 TOLERANCES - DENSITY:10**- 6; POTENTIAL:10**- 9; GRID WGT:10**-14

 RADIAL INTEGRATION  - INTERVALS (POINTS,UPPER LIMIT):            1( 75,  4.0*R)

 ANGULAR INTEGRATION - INTERVALS (ACCURACY LEVEL [N. POINTS] UPPER LIMIT):
  1(  4[  86]   0.2)  2(  8[ 194]   0.5)  3( 12[ 350]   0.9)  4( 16[ 974]   3.5)
  5( 12[ 350]9999.0)
 TTTTTTTTTTTTTTTTTTTTTTTTTTTTTT INT_CALC    TELAPSE       10.08 TCPU       10.07
 EEEEEEEEEE INT_CALC TERMINATION  DATE 19 02 2026 TIME 18:13:00.6

 *******************************************************************************
 cof-1_z33_L087_incl                                                             
 CRYSTAL - SCF - TYPE OF CALCULATION :  RESTRICTED CLOSED SHELL
 *******************************************************************************

 CAPPA:IS1  2;IS2  2;IS3  8; K PTS MONK NET  20; SYMMOPS:K SPACE   2;G SPACE   1

 TTTTTTTTTTTTTTTTTTTTTTTTTTTTTT SDIK        TELAPSE       10.75 TCPU       19.44

 AAAAAAAAAAAAAAAAAAAAAAAAAAAAAAAAAAAAAAAAAAAAAAAAAAAAAAAAAAAAAAAAAAAAAAAAAAAAAAA
         ATOMIC WAVEFUNCTION(S)


 NUCLEAR CHARGE  5.0  SYMMETRY SPECIES            S    P
 N. ELECTRONS    5.0  NUMBER OF PRIMITIVE GTOS    8    4
                      NUMBER OF CONTRACTED GTOS   4    2
                      NUMBER OF CLOSED SHELLS     2    0
                      OPEN SHELL OCCUPATION       0    1

  ZNUC  SCFIT    TOTAL HF ENERGY   KINETIC ENERGY   VIRIAL THEOREM ACCURACY
   5.0    11    -2.451164084E+01  2.462155050E+01 -1.995536038E+00  1.5E-06

 NUCLEAR CHARGE  1.0  SYMMETRY SPECIES            S
 N. ELECTRONS    1.0  NUMBER OF PRIMITIVE GTOS    4
                      NUMBER OF CONTRACTED GTOS   2
                      NUMBER OF CLOSED SHELLS     0
                      OPEN SHELL OCCUPATION       1

  ZNUC  SCFIT    TOTAL HF ENERGY   KINETIC ENERGY   VIRIAL THEOREM ACCURACY
   1.0     1    -4.977266687E-01  5.190767460E-01 -1.958869132E+00  0.0E+00

 NUCLEAR CHARGE  6.0  SYMMETRY SPECIES            S    P
 N. ELECTRONS    6.0  NUMBER OF PRIMITIVE GTOS    8    4
                      NUMBER OF CONTRACTED GTOS   4    2
                      NUMBER OF CLOSED SHELLS     2    0
                      OPEN SHELL OCCUPATION       0    2

  ZNUC  SCFIT    TOTAL HF ENERGY   KINETIC ENERGY   VIRIAL THEOREM ACCURACY
   6.0     9    -3.766704647E+01  3.775180683E+01 -1.997754800E+00  1.1E-06

 NUCLEAR CHARGE  8.0  SYMMETRY SPECIES            S    P
 N. ELECTRONS    8.0  NUMBER OF PRIMITIVE GTOS    8    4
                      NUMBER OF CONTRACTED GTOS   4    2
                      NUMBER OF CLOSED SHELLS     2    0
                      OPEN SHELL OCCUPATION       0    4

  ZNUC  SCFIT    TOTAL HF ENERGY   KINETIC ENERGY   VIRIAL THEOREM ACCURACY
   8.0    12    -7.477373220E+01  7.477365593E+01 -2.000001020E+00  3.8E-06

 AAAAAAAAAAAAAAAAAAAAAAAAAAAAAAAAAAAAAAAAAAAAAAAAAAAAAAAAAAAAAAAAAAAAAAAAAAAAAAA

 CHARGE NORMALIZATION FACTOR   1.00000000
 TOTAL ATOMIC CHARGES:
   5.0000000   5.0000000   5.0000000   5.0000000   5.0000000   5.0000000
   1.0000000   1.0000000   1.0000000   1.0000000   1.0000000   1.0000000
   1.0000000   1.0000000   1.0000000   1.0000000   1.0000000   1.0000000
   6.0000000   6.0000000   6.0000000   6.0000000   6.0000000   6.0000000
   6.0000000   6.0000000   6.0000000   6.0000000   6.0000000   6.0000000
   6.0000000   6.0000000   6.0000000   6.0000000   6.0000000   6.0000000
   8.0000000   8.0000000   8.0000000   8.0000000   8.0000000   8.0000000
 TTTTTTTTTTTTTTTTTTTTTTTTTTTTTT MOQGAD      TELAPSE       10.80 TCPU       20.98
 TTTTTTTTTTTTTTTTTTTTTTTTTTTTTT SHELLXN     TELAPSE       19.19 TCPU      288.74
 TTTTTTTTTTTTTTTTTTTTTTTTTTTTTT MONMO3      TELAPSE       19.35 TCPU      293.67
 NUMERICALLY INTEGRATED DENSITY    198.0000018576
 TTTTTTTTTTTTTTTTTTTTTTTTTTTTTT NUMDFT      TELAPSE       20.07 TCPU      316.55
 CYC   0 ETOT(AU) -1.295975611767E+03 DETOT -1.30E+03 tst  0.00E+00 PX  1.00E+00
 TTTTTTTTTTTTTTTTTTTTTTTTTTTTTT DIIS        TELAPSE       20.11 TCPU      317.99
 TTTTTTTTTTTTTTTTTTTTTTTTTTTTTT FDIK        TELAPSE       20.64 TCPU      334.74
 INSULATING STATE
 TOP OF VALENCE BANDS -    BAND     99; K    1; EIG -3.0594791E-01 AU
 BOTTOM OF VIRTUAL BANDS - BAND    100; K    1; EIG -1.5704739E-01 AU
 DIRECT ENERGY BAND GAP:   4.0518 eV
 TTTTTTTTTTTTTTTTTTTTTTTTTTTTTT PDIG        TELAPSE       20.99 TCPU      340.94
 CHARGE NORMALIZATION FACTOR   1.00000000
 TOTAL ATOMIC CHARGES:
   4.1509519   4.1503910   4.1509010   4.1504336   4.1500630   4.1497011
   0.7858157   0.7859392   0.7857711   0.7858865   0.7857847   0.7859665
   0.7857858   0.7859328   0.7857758   0.7859669   0.7857636   0.7859250
   6.0439362   6.2676954   6.2675738   6.2676356   6.2676038   6.0436441
   6.0440074   6.2676826   6.2678534   6.2676011   6.2678230   6.0426087
   6.0445554   6.2672744   6.2679942   6.2672493   6.2678983   6.0432372
   8.6985871   8.6987838   8.6987644   8.6990592   8.6989315   8.6992447
 TTTTTTTTTTTTTTTTTTTTTTTTTTTTTT MOQGAD      TELAPSE       21.04 TCPU      340.99
 TTTTTTTTTTTTTTTTTTTTTTTTTTTTTT SHELLXN     TELAPSE       29.78 TCPU      619.75
 TTTTTTTTTTTTTTTTTTTTTTTTTTTTTT MONMO3      TELAPSE       29.93 TCPU      624.72
 NUMERICALLY INTEGRATED DENSITY    198.0000149674
 TTTTTTTTTTTTTTTTTTTTTTTTTTTTTT NUMDFT      TELAPSE       30.67 TCPU      648.32
 CYC   1 ETOT(AU) -1.288824527585E+03 DETOT  7.15E+00 tst  0.00E+00 PX  1.00E+00
 TTTTTTTTTTTTTTTTTTTTTTTTTTTTTT DIIS        TELAPSE       30.73 TCPU      650.00
 DIIS TEST: 0.11072E+01 AT SCF   CYCLE   1 - MIX   30 %
 TTTTTTTTTTTTTTTTTTTTTTTTTTTTTT FDIK        TELAPSE       31.25 TCPU      666.87
 INSULATING STATE
 TOP OF VALENCE BANDS -    BAND     99; K    1; EIG -2.1728265E-01 AU
 BOTTOM OF VIRTUAL BANDS - BAND    100; K   17; EIG -8.4653554E-02 AU
 INDIRECT ENERGY BAND GAP:   3.6090 eV
 BOTTOM OF VIRTUAL BANDS - BAND    100; K    1; EIG -8.1064353E-02 AU
 TTTTTTTTTTTTTTTTTTTTTTTTTTTTTT PDIG        TELAPSE       31.60 TCPU      673.07
 CHARGE NORMALIZATION FACTOR   1.00000000
 TOTAL ATOMIC CHARGES:
   4.7007085   4.6991990   4.7002003   4.7003530   4.6991806   4.7002275
   0.9032008   0.9032727   0.9035111   0.9029099   0.9028232   0.9034311
   0.9027794   0.9032967   0.9033807   0.9030134   0.9032814   0.9033281
   5.8754806   6.1365476   6.1362964   6.1361501   6.1367723   5.8789857
   5.8762461   6.1353980   6.1368686   6.1358834   6.1368861   5.8791407
   5.8760703   6.1363766   6.1366146   6.1366392   6.1359346   5.8785595
   8.3430295   8.3437794   8.3438930   8.3433121   8.3427220   8.3443164
 TTTTTTTTTTTTTTTTTTTTTTTTTTTTTT MOQGAD      TELAPSE       31.65 TCPU      673.11
 TTTTTTTTTTTTTTTTTTTTTTTTTTTTTT SHELLXN     TELAPSE       40.35 TCPU      950.52
 TTTTTTTTTTTTTTTTTTTTTTTTTTTTTT MONMO3      TELAPSE       40.51 TCPU      955.51
 NUMERICALLY INTEGRATED DENSITY    198.0000157755
 TTTTTTTTTTTTTTTTTTTTTTTTTTTTTT NUMDFT      TELAPSE       41.24 TCPU      978.76
 CYC   2 ETOT(AU) -1.289016891232E+03 DETOT -1.92E-01 tst  3.20E-03 PX  1.56E-01
 TTTTTTTTTTTTTTTTTTTTTTTTTTTTTT DIIS        TELAPSE       41.29 TCPU      980.56
 DIIS TEST: 0.45863E+00 AT SCF   CYCLE   2 - DIIS ACTIVE - HISTORY:     2 CYCLES
 TTTTTTTTTTTTTTTTTTTTTTTTTTTTTT FDIK        TELAPSE       41.82 TCPU      997.43
 INSULATING STATE
 TOP OF VALENCE BANDS -    BAND     99; K    1; EIG -2.3048188E-01 AU
 BOTTOM OF VIRTUAL BANDS - BAND    100; K   17; EIG -7.5878421E-02 AU
 INDIRECT ENERGY BAND GAP:   4.2070 eV
 BOTTOM OF VIRTUAL BANDS - BAND    100; K    1; EIG -7.5332770E-02 AU
 TTTTTTTTTTTTTTTTTTTTTTTTTTTTTT PDIG        TELAPSE       42.18 TCPU     1003.64
 CHARGE NORMALIZATION FACTOR   1.00000000
 TOTAL ATOMIC CHARGES:
   4.4897567   4.4885153   4.4893050   4.4893305   4.4884611   4.4890450
   0.8831985   0.8833212   0.8833146   0.8830998   0.8828043   0.8835441
   0.8827983   0.8833875   0.8832510   0.8831215   0.8833006   0.8832818
   5.8903005   6.1681631   6.1672730   6.1676475   6.1677809   5.8903154
   5.8909643   6.1679036   6.1675743   6.1678269   6.1676595   5.8893071
   5.8903539   6.1674983   6.1681374   6.1677375   6.1675155   5.8903753
   8.5184367   8.5189499   8.5187885   8.5186859   8.5187953   8.5191729
 TTTTTTTTTTTTTTTTTTTTTTTTTTTTTT MOQGAD      TELAPSE       42.22 TCPU     1003.68
 TTTTTTTTTTTTTTTTTTTTTTTTTTTTTT SHELLXN     TELAPSE       50.92 TCPU     1280.94
 TTTTTTTTTTTTTTTTTTTTTTTTTTTTTT MONMO3      TELAPSE       51.07 TCPU     1285.93
 NUMERICALLY INTEGRATED DENSITY    198.0000153588
 TTTTTTTTTTTTTTTTTTTTTTTTTTTTTT NUMDFT      TELAPSE       51.81 TCPU     1309.39
 CYC   3 ETOT(AU) -1.289110747986E+03 DETOT -9.39E-02 tst  7.06E-04 PX  6.12E-02
 TTTTTTTTTTTTTTTTTTTTTTTTTTTTTT DIIS        TELAPSE       51.88 TCPU     1311.55
 DIIS TEST: 0.13142E-01 AT SCF   CYCLE   3 - DIIS ACTIVE - HISTORY:     3 CYCLES
 TTTTTTTTTTTTTTTTTTTTTTTTTTTTTT FDIK        TELAPSE       52.42 TCPU     1329.08
 INSULATING STATE
 TOP OF VALENCE BANDS -    BAND     99; K    1; EIG -2.3897780E-01 AU
 BOTTOM OF VIRTUAL BANDS - BAND    100; K   17; EIG -8.4626424E-02 AU
 INDIRECT ENERGY BAND GAP:   4.2001 eV
 BOTTOM OF VIRTUAL BANDS - BAND    100; K    1; EIG -8.3805045E-02 AU
 TTTTTTTTTTTTTTTTTTTTTTTTTTTTTT PDIG        TELAPSE       52.78 TCPU     1335.28
 CHARGE NORMALIZATION FACTOR   1.00000000
 TOTAL ATOMIC CHARGES:
   4.4961214   4.4947755   4.4956922   4.4955747   4.4944349   4.4952632
   0.8672056   0.8672017   0.8672892   0.8669762   0.8669009   0.8673287
   0.8668567   0.8672067   0.8671922   0.8670777   0.8672427   0.8672357
   5.9437744   6.1689567   6.1690829   6.1689709   6.1693347   5.9460667
   5.9440562   6.1682555   6.1695671   6.1685434   6.1694918   5.9459994
   5.9445722   6.1690411   6.1693076   6.1689601   6.1689684   5.9454131
   8.4869105   8.4875183   8.4875818   8.4872928   8.4866716   8.4880871
 TTTTTTTTTTTTTTTTTTTTTTTTTTTTTT MOQGAD      TELAPSE       52.82 TCPU     1335.33
 TTTTTTTTTTTTTTTTTTTTTTTTTTTTTT SHELLXN     TELAPSE       61.73 TCPU     1619.40
 TTTTTTTTTTTTTTTTTTTTTTTTTTTTTT MONMO3      TELAPSE       61.89 TCPU     1624.38
 NUMERICALLY INTEGRATED DENSITY    198.0000155965
 TTTTTTTTTTTTTTTTTTTTTTTTTTTTTT NUMDFT      TELAPSE       62.63 TCPU     1648.02
 CYC   4 ETOT(AU) -1.289113493671E+03 DETOT -2.75E-03 tst  3.00E-05 PX  1.24E-02
 TTTTTTTTTTTTTTTTTTTTTTTTTTTTTT DIIS        TELAPSE       62.70 TCPU     1650.24
 DIIS TEST: 0.36100E-02 AT SCF   CYCLE   4 - DIIS ACTIVE - HISTORY:     4 CYCLES
 TTTTTTTTTTTTTTTTTTTTTTTTTTTTTT FDIK        TELAPSE       63.23 TCPU     1667.14
 INSULATING STATE
 TOP OF VALENCE BANDS -    BAND     99; K    1; EIG -2.3770643E-01 AU
 BOTTOM OF VIRTUAL BANDS - BAND    100; K   17; EIG -8.4426995E-02 AU
 INDIRECT ENERGY BAND GAP:   4.1709 eV
 BOTTOM OF VIRTUAL BANDS - BAND    100; K    1; EIG -8.3616643E-02 AU
 TTTTTTTTTTTTTTTTTTTTTTTTTTTTTT PDIG        TELAPSE       63.58 TCPU     1673.34
 CHARGE NORMALIZATION FACTOR   1.00000000
 TOTAL ATOMIC CHARGES:
   4.4992765   4.4979275   4.4987916   4.4988149   4.4977960   4.4985822
   0.8693985   0.8695326   0.8695515   0.8692700   0.8690320   0.8697154
   0.8690153   0.8695643   0.8694855   0.8693152   0.8694882   0.8695166
   5.9224922   6.1720495   6.1712378   6.1715718   6.1718648   5.9232770
   5.9232586   6.1716020   6.1716031   6.1716283   6.1717083   5.9224897
   5.9226405   6.1714462   6.1721233   6.1717000   6.1714216   5.9232661
   8.4960191   8.4966261   8.4964719   8.4962631   8.4962346   8.4969306
 TTTTTTTTTTTTTTTTTTTTTTTTTTTTTT MOQGAD      TELAPSE       63.63 TCPU     1673.38
 TTTTTTTTTTTTTTTTTTTTTTTTTTTTTT SHELLXN     TELAPSE       72.32 TCPU     1950.52
 TTTTTTTTTTTTTTTTTTTTTTTTTTTTTT MONMO3      TELAPSE       72.48 TCPU     1955.52
 NUMERICALLY INTEGRATED DENSITY    198.0000155215
 TTTTTTTTTTTTTTTTTTTTTTTTTTTTTT NUMDFT      TELAPSE       73.21 TCPU     1978.90
 CYC   5 ETOT(AU) -1.289114325273E+03 DETOT -8.32E-04 tst  4.94E-06 PX  6.68E-03
 TTTTTTTTTTTTTTTTTTTTTTTTTTTTTT DIIS        TELAPSE       73.29 TCPU     1981.39
 DIIS TEST: 0.79494E-04 AT SCF   CYCLE   5 - DIIS ACTIVE - HISTORY:     5 CYCLES
 TTTTTTTTTTTTTTTTTTTTTTTTTTTTTT FDIK        TELAPSE       73.82 TCPU     1998.21
 INSULATING STATE
 TOP OF VALENCE BANDS -    BAND     99; K    1; EIG -2.3759312E-01 AU
 BOTTOM OF VIRTUAL BANDS - BAND    100; K   17; EIG -8.3895985E-02 AU
 INDIRECT ENERGY BAND GAP:   4.1823 eV
 BOTTOM OF VIRTUAL BANDS - BAND    100; K    1; EIG -8.3091581E-02 AU
 TTTTTTTTTTTTTTTTTTTTTTTTTTTTTT PDIG        TELAPSE       74.17 TCPU     2004.41
 CHARGE NORMALIZATION FACTOR   1.00000000
 TOTAL ATOMIC CHARGES:
   4.4986510   4.4973152   4.4982019   4.4981281   4.4970776   4.4978241
   0.8704114   0.8704084   0.8704998   0.8702027   0.8700736   0.8705773
   0.8700281   0.8704540   0.8703971   0.8702868   0.8704563   0.8704380
   5.9231798   6.1708161   6.1708120   6.1707635   6.1709962   5.9248455
   5.9233655   6.1702022   6.1712792   6.1704437   6.1711863   5.9246715
   5.9238796   6.1708289   6.1710411   6.1707691   6.1707148   5.9242711
   8.4953360   8.4958608   8.4959722   8.4957276   8.4952305   8.4963748
 TTTTTTTTTTTTTTTTTTTTTTTTTTTTTT MOQGAD      TELAPSE       74.22 TCPU     2004.46
 TTTTTTTTTTTTTTTTTTTTTTTTTTTTTT SHELLXN     TELAPSE       83.06 TCPU     2286.21
 TTTTTTTTTTTTTTTTTTTTTTTTTTTTTT MONMO3      TELAPSE       83.22 TCPU     2291.22
 NUMERICALLY INTEGRATED DENSITY    198.0000155434
 TTTTTTTTTTTTTTTTTTTTTTTTTTTTTT NUMDFT      TELAPSE       83.95 TCPU     2314.74
 CYC   6 ETOT(AU) -1.289114347367E+03 DETOT -2.21E-05 tst  2.25E-07 PX  7.71E-04
 TTTTTTTTTTTTTTTTTTTTTTTTTTTTTT DIIS        TELAPSE       84.03 TCPU     2317.24
 DIIS TEST: 0.52868E-05 AT SCF   CYCLE   6 - DIIS ACTIVE - HISTORY:     6 CYCLES
 TTTTTTTTTTTTTTTTTTTTTTTTTTTTTT FDIK        TELAPSE       84.58 TCPU     2334.68
 INSULATING STATE
 TOP OF VALENCE BANDS -    BAND     99; K    1; EIG -2.3757237E-01 AU
 BOTTOM OF VIRTUAL BANDS - BAND    100; K   17; EIG -8.3981639E-02 AU
 INDIRECT ENERGY BAND GAP:   4.1794 eV
 BOTTOM OF VIRTUAL BANDS - BAND    100; K    1; EIG -8.3178695E-02 AU
 TTTTTTTTTTTTTTTTTTTTTTTTTTTTTT PDIG        TELAPSE       84.93 TCPU     2340.88
 CHARGE NORMALIZATION FACTOR   1.00000000
 TOTAL ATOMIC CHARGES:
   4.4988882   4.4975354   4.4984016   4.4984197   4.4973946   4.4981643
   0.8702992   0.8704261   0.8704535   0.8701566   0.8699265   0.8706174
   0.8699131   0.8704617   0.8703897   0.8701999   0.8703937   0.8704051
   5.9235140   6.1710805   6.1702647   6.1705667   6.1709503   5.9244288
   5.9243705   6.1706568   6.1705969   6.1706619   6.1707299   5.9235738
   5.9236242   6.1704246   6.1712169   6.1707068   6.1704814   5.9244555
   8.4954685   8.4961099   8.4959012   8.4956891   8.4956771   8.4964037
 TTTTTTTTTTTTTTTTTTTTTTTTTTTTTT MOQGAD      TELAPSE       84.98 TCPU     2340.93
 TTTTTTTTTTTTTTTTTTTTTTTTTTTTTT SHELLXN     TELAPSE       93.85 TCPU     2623.60
 TTTTTTTTTTTTTTTTTTTTTTTTTTTTTT MONMO3      TELAPSE       94.01 TCPU     2628.61
 NUMERICALLY INTEGRATED DENSITY    198.0000155341
 TTTTTTTTTTTTTTTTTTTTTTTTTTTTTT NUMDFT      TELAPSE       94.74 TCPU     2652.02
 CYC   7 ETOT(AU) -1.289114347609E+03 DETOT -2.42E-07 tst  2.85E-08 PX  2.68E-04
 TTTTTTTTTTTTTTTTTTTTTTTTTTTTTT DIIS        TELAPSE       94.83 TCPU     2654.94
 DIIS TEST: 0.10839E-05 AT SCF   CYCLE   7 - DIIS ACTIVE - HISTORY:     7 CYCLES
 TTTTTTTTTTTTTTTTTTTTTTTTTTTTTT FDIK        TELAPSE       95.37 TCPU     2672.03
 INSULATING STATE
 TOP OF VALENCE BANDS -    BAND     99; K    1; EIG -2.3758623E-01 AU
 BOTTOM OF VIRTUAL BANDS - BAND    100; K   17; EIG -8.3981637E-02 AU
 INDIRECT ENERGY BAND GAP:   4.1798 eV
 BOTTOM OF VIRTUAL BANDS - BAND    100; K    1; EIG -8.3177562E-02 AU
 TTTTTTTTTTTTTTTTTTTTTTTTTTTTTT PDIG        TELAPSE       95.72 TCPU     2678.23
 CHARGE NORMALIZATION FACTOR   1.00000000
 TOTAL ATOMIC CHARGES:
   4.4989140   4.4975717   4.4984475   4.4984170   4.4973782   4.4981480
   0.8703070   0.8703644   0.8704215   0.8701348   0.8699567   0.8705381
   0.8699232   0.8704029   0.8703347   0.8702022   0.8703713   0.8703744
   5.9232362   6.1709413   6.1705795   6.1707166   6.1709516   5.9244941
   5.9236634   6.1703950   6.1710093   6.1705491   6.1709983   5.9240679
   5.9237053   6.1706996   6.1710877   6.1707679   6.1705994   5.9241583
   8.4954503   8.4960067   8.4960126   8.4957829   8.4954855   8.4964339
 TTTTTTTTTTTTTTTTTTTTTTTTTTTTTT MOQGAD      TELAPSE       95.77 TCPU     2678.28
 TTTTTTTTTTTTTTTTTTTTTTTTTTTTTT SHELLXN     TELAPSE      104.47 TCPU     2955.51
 +++ ENERGIES IN A.U. +++
 ::: EXT EL-POLE                                  -1.5649904304799E+03
 ::: EXT EL-SPHEROPOLE                             1.7354121875219E+01
 ::: BIELET ZONE E-E                               2.1728482258534E+03
 ::: TOTAL E-E                                     6.2521191724871E+02
 ::: TOTAL E-N + N-E                              -3.0743132472890E+03
 ::: TOTAL N-N                                     1.3753148748484E+01
 ::: KINETIC ENERGY                                1.2799560603788E+03
 ::: PSEUDO TOTAL   ENERGY                        -1.1553921209131E+03
 ::: VIRIAL COEFFICIENT                            1.0511483082471E+00
 TTTTTTTTTTTTTTTTTTTTTTTTTTTTTT MONMO3      TELAPSE      104.62 TCPU     2960.47
 NUMERICALLY INTEGRATED DENSITY    198.0000155346
 EXCHANGE ENERGY: -0.126024883689E+03  CORRELATION ENERGY: -0.769734332711E+01
 TTTTTTTTTTTTTTTTTTTTTTTTTTTTTT NUMDFT      TELAPSE      105.35 TCPU     2983.76
 CYC   8 ETOT(AU) -1.289114347929E+03 DETOT -3.21E-07 tst  9.61E-09 PX  2.68E-04

 == SCF ENDED - CONVERGENCE ON ENERGY      E(AU) -1.2891143479293E+03 CYCLES   8


 ENERGY EXPRESSION=HARTREE+FOCK EXCH*0.00000+(HSESOL     EXCH)*1.00000+PBESOL     CORR


 TOTAL ENERGY(DFT)(AU)(  8) -1.2891143479293E+03 DE-3.2E-07 tester 9.6E-09
 TTTTTTTTTTTTTTTTTTTTTTTTTTTTTT EDFT        TELAPSE      105.35 TCPU     2983.77
 
 INFORMATION **** DFTD3 ENERGY **** CALCULATE DFTD3 ENERGY

           DFT-D V3(BJ)
 DF                                         hsesol3c  
 parameters
 s6       :    1.0000
 s8       :    0.0000
 a1       :    0.5196
 a2       :    4.9385
 k1 k3    :   16.0000   -4.0000
 Cutoff   :   50.2022
 CN-Cutoff:   21.1671
 ABC-Cutoff:   21.1671
 
 Edisp /kcal,au:   -27.1987 -0.04334389

 E6    /kcal :   -28.9096
 E8    /kcal :     0.0000
 E6(ABC) "   :   1.710939
 
 INFORMATION **** DFTD3 ENERGY **** NORMAL TERMINATION OF DFTD3 MODULE

 GCP ENERGY CALCULATION
  level        hsesol3c            basis:hsesol3c
  Nbf            474
  Atoms           42

  Parameters: 
  sigma     1.0000
  eta       1.4281
  alpha     0.2936
  beta      1.9467

  dmp_scal      4.0000
  dmp_exp       6.0000
 cutoffs: 
   distance [bohr] 60.0
   noise    [a.u.] 2.2E-16
 SR-damping   T
 ** gCP correction **
  Egcp:        0.0837844041 / (a.u.) ||      52.5755 / (kcal/mol)
 INFORMATION **** GCP **** NORMAL TERMINATION OF GCP MODULE

 *******************************************************************************

 DFT-D3-GCP DISPERSION AND COUNTERPOISE CORRECTION

 D3 DISPERSION ENERGY (AU)      -4.3343887965795E-02
 GCP ENERGY (AU)                 8.3784404084279E-02
 TOTAL ENERGY + DISP + GCP (AU) -1.2890739074132E+03

 *******************************************************************************

 EIGENVECTORS IN FORTRAN UNIT  8
 TTTTTTTTTTTTTTTTTTTTTTTTTTTTTT END         TELAPSE      107.98 TCPU     2992.33
 EEEEEEEEEE TERMINATION  DATE 19 02 2026 TIME 18:14:38.5
