 Default number of threads is:           32

         
 *******************************************************************************
 *                                                                             *
 *                               CRYSTAL23                                     *
 *                      public : 1.0.1 - October 2022                          *
 *                       HTTP://WWW.CRYSTAL.UNITO.IT                           *
 *                                                                             *
 *                              MAIN AUTHORS                                   *
 *                                                                             *
 *  R. DOVESI(1,11), V.R. SAUNDERS(2), C. ROETTI(1,11), R. ORLANDO(1,11),      *
 *  C.M. ZICOVICH-WILSON(1,3), F. PASCALE(4), B. CIVALLERI(1,11),              *
 *  K. DOLL(5), N.M. HARRISON(6), I.J. BUSH(7), Ph. D'ARCO(8),                 *
 *  M. LLUNELL(9), M. CAUSA'(10), Y. NOEL(8), L. MASCHIO(1,11), A. ERBA(1,11)  *
 *  M. RE'RAT(14), S. CASASSA(1,11), B.G. SEARLE(2), J.K. DESMARAIS(1)         *
 *                                                                             *
 *        CONTRIBUTIONS TO THE CODE HAVE ALSO BEEN GIVEN BY                    *
 *                                                                             *
 *  M. FERRABONE(1,11), M. DE LA PIERRE(1,11), M. FERRERO(1,11),               *
 *  J. BAIMA(1,11), E. ALBANESE(1,11), M.F. PEINTINGER(12), R. BAST(13),       *
 *  B. KIRTMAN(15), V. LACIVITA(1,11), R. DEMICHELIS(1,16)                     *
 *  G. BRANDEBURG(17), S. SALUSTRO(1,11), G. SANSONE(1,11)                     *
 *  M.T. RUGGIERO(18), L.E. DAGA(1), L. DONA'(1), A. COSSARD(1)                *
 *                                                                             *
 * (1) THEORETICAL CHEMISTRY GROUP - UNIVERSITA' DI TORINO - TORINO (ITALY)    *
 * (2) SCIENTIFIC COMPUTING DEPARTMENT - STFC DARESBURY (UK)                   *
 * (3) UNIVERSIDAD AUTONOMA DEL ESTADO DE MORELOS - CUERNAVACA (MEXICO)        *
 * (4) UNIVERSITE' DE LORRAINE - NANCY (FRANCE)                                *
 * (5) UNIVERSITAET STUTTGART- STUTTGART (GERMANY)                             *
 * (6) IMPERIAL COLLEGE - LONDON (UK)                                          *
 * (7) SCIENTIFIC COMPUTING DEPARTMENT - STFC RAL (UK)                         *
 * (8) UPMC - SORBONNE UNIVERSITES - PARIS (FRANCE)                            *
 * (9) UNIVERSIDAD DE BARCELONA - BARCELONA (SPAIN)                            *
 *(10) UNIVERSITA' DI NAPOLI "FEDERICO II" - NAPOLI (ITALY)                    *
 *(11) NIS - NANOSTRUCTURED INTERFACES AND SURFACES - TORINO (ITALY)           *
 *(12) MPI FUER CHEMISCHE ENERGIEKONVERSION - MUELHEIM AN DER RUHR (GERMANY)   *
 *(13) UNIVERSITY OF TROMSO - TROMSO (NORWAY)                                  *
 *(14) UNIVERSITE' DE PAU ET DES PAYS DE L'ADOUR - PAU (FRANCE)                *
 *(15) UNIVERSITY OF CALIFORNIA SANTA BARBARA - SANTA BARBARA (USA)            *
 *(16) CURTIN UNIVERSITY - PERTH (AUSTRALIA)                                   *
 *(17) UNIVERSITY COLLEGE LONDON - LONDON (UK)                                 *
 *(18) UNIVERSITY OF VERMONT - BURLINGTON (USA)                                *
 *                                                                             *
 *******************************************************************************
 EEEEEEEEEE STARTING  DATE 19 02 2026 TIME 19:07:37.3
 cof-1_z40_L040_incl                                                             

 CRYSTAL CALCULATION
 (INPUT ACCORDING TO THE INTERNATIONAL TABLES FOR X-RAY CRYSTALLOGRAPHY)
 CRYSTAL FAMILY                       :  TRICLINIC   
 CRYSTAL CLASS  (GROTH - 1921)        :  TRICLINIC PEDIAL                     

 SPACE GROUP (NONCENTROSYMMETRIC)     :  P 1             

 LATTICE PARAMETERS  (ANGSTROMS AND DEGREES) - CONVENTIONAL CELL
        A           B           C        ALPHA        BETA       GAMMA
    15.02361    15.02392     5.65685    52.23724    89.99996   119.99596


 NUMBER OF IRREDUCIBLE ATOMS IN THE CONVENTIONAL CELL:   42

 INPUT COORDINATES

 ATOM AT. N.              COORDINATES
   1   5     5.366509000000E-01  7.324329000000E-02  5.011912100000E-01
   2   5     6.957065600000E-01  2.323029400000E-01  5.011912300000E-01
   3   5     5.370325200000E-01  2.330575900000E-01  4.986804400000E-01
   4   5     1.502256100000E-01  4.595582900000E-01  5.011912200000E-01
   5   5     3.093335800000E-01  4.595375200000E-01  5.011912200000E-01
   6   5     3.096997500000E-01  6.194485700000E-01  4.986804400000E-01
   7   1     8.268140100000E-01  1.564553300000E-01  4.959858600000E-01
   8   1     2.052726000000E-02  5.388234200000E-01  4.951898700000E-01
   9   1     8.268829800000E-01  4.418800700000E-01  4.950673700000E-01
  10   1     2.064304000000E-02  2.534831900000E-01  4.950979200000E-01
  11   1     6.135698100000E-01 -5.793682000000E-02  5.040082400000E-01
  12   1     2.313447800000E-01  7.482516500000E-01  5.048042900000E-01
  13   1     3.282662100000E-01 -5.817336000000E-02  5.049268700000E-01
  14   1     5.167131600000E-01  7.481334400000E-01  5.048961100000E-01
  15   1     6.148431200000E-01  4.415794800000E-01  4.959859100000E-01
  16   1     2.328545700000E-01  2.533793300000E-01  4.951898200000E-01
  17   1     3.297521400000E-01  1.566309200000E-01  4.950672700000E-01
  18   1     5.181977200000E-01  5.387561500000E-01  4.950980200000E-01
  19   6     8.152606800000E-01  2.926688500000E-01  4.985885700000E-01
  20   6     8.702406700000E-01  2.402732600000E-01  4.961083600000E-01
  21   6    -2.282739000000E-02  4.547387900000E-01  4.958941000000E-01
  22   6     8.701377800000E-01  4.010480100000E-01  4.965371000000E-01
  23   6    -2.263386000000E-02  2.941141100000E-01  4.948835800000E-01
  24   6     3.171686000000E-02  4.013820500000E-01  4.965676900000E-01
  25   6     4.769768400000E-01 -4.597237000000E-02  5.014055700000E-01
  26   6     5.297340800000E-01 -1.013473400000E-01  5.038857300000E-01
  27   6     3.153219600000E-01  7.916939900000E-01  5.041000700000E-01
  28   6     3.689096900000E-01 -1.011686400000E-01  5.034570800000E-01
  29   6     4.760848500000E-01  7.913437700000E-01  5.051104800000E-01
  30   6     3.685547400000E-01  7.372299800000E-01  5.034264300000E-01
  31   6     4.774152400000E-01  2.925997200000E-01  4.985885600000E-01
  32   6     5.309617800000E-01  4.011133900000E-01  4.961084100000E-01
  33   6     3.166078700000E-01  2.937255400000E-01  4.958940500000E-01
  34   6     3.699729400000E-01  2.400458300000E-01  4.965370300000E-01
  35   6     4.776827500000E-01  4.549621200000E-01  4.948836500000E-01
  36   6     3.696409500000E-01  4.013046500000E-01  4.965676900000E-01
  37   8     4.839894000000E-01  1.268604700000E-01  4.993540500000E-01
  38   8     6.421202900000E-01  1.252397400000E-01  5.046512000000E-01
  39   8     6.433462700000E-01  2.866416300000E-01  4.966595700000E-01
  40   8     2.035772300000E-01  5.661409400000E-01  4.993540800000E-01
  41   8     2.027825600000E-01  4.055570200000E-01  5.046511900000E-01
  42   8     3.629306900000E-01  5.669536000000E-01  4.966595500000E-01

 *******************************************************************************

 << INFORMATION >>: FROM NOW ON, ALL COORDINATES REFER TO THE PRIMITIVE CELL

 *******************************************************************************

 LATTICE PARAMETERS  (ANGSTROMS AND DEGREES) - PRIMITIVE CELL
       A          B          C        ALPHA      BETA     GAMMA        VOLUME
   15.02361   15.02392    5.65685    52.23724  89.99996 119.99596    781.930799

 COORDINATES OF THE EQUIVALENT ATOMS (FRACTIONAL UNITS)

 N. ATOM EQUIV AT. N.          X                  Y                  Z

   1   1   1    5 B    -4.63349100000E-01  7.32432900000E-02 -4.98808790000E-01

   2   2   1    5 B    -3.04293440000E-01  2.32302940000E-01 -4.98808770000E-01

   3   3   1    5 B    -4.62967480000E-01  2.33057590000E-01  4.98680440000E-01

   4   4   1    5 B     1.50225610000E-01  4.59558290000E-01 -4.98808780000E-01

   5   5   1    5 B     3.09333580000E-01  4.59537520000E-01 -4.98808780000E-01

   6   6   1    5 B     3.09699750000E-01 -3.80551430000E-01  4.98680440000E-01

   7   7   1    1 H    -1.73185990000E-01  1.56455330000E-01  4.95985860000E-01

   8   8   1    1 H     2.05272600000E-02 -4.61176580000E-01  4.95189870000E-01

   9   9   1    1 H    -1.73117020000E-01  4.41880070000E-01  4.95067370000E-01

  10  10   1    1 H     2.06430400000E-02  2.53483190000E-01  4.95097920000E-01

  11  11   1    1 H    -3.86430190000E-01 -5.79368200000E-02 -4.95991760000E-01

  12  12   1    1 H     2.31344780000E-01 -2.51748350000E-01 -4.95195710000E-01

  13  13   1    1 H     3.28266210000E-01 -5.81733600000E-02 -4.95073130000E-01

  14  14   1    1 H    -4.83286840000E-01 -2.51866560000E-01 -4.95103890000E-01

  15  15   1    1 H    -3.85156880000E-01  4.41579480000E-01  4.95985910000E-01

  16  16   1    1 H     2.32854570000E-01  2.53379330000E-01  4.95189820000E-01

  17  17   1    1 H     3.29752140000E-01  1.56630920000E-01  4.95067270000E-01

  18  18   1    1 H    -4.81802280000E-01 -4.61243850000E-01  4.95098020000E-01

  19  19   1    6 C    -1.84739320000E-01  2.92668850000E-01  4.98588570000E-01

  20  20   1    6 C    -1.29759330000E-01  2.40273260000E-01  4.96108360000E-01

  21  21   1    6 C    -2.28273900000E-02  4.54738790000E-01  4.95894100000E-01

  22  22   1    6 C    -1.29862220000E-01  4.01048010000E-01  4.96537100000E-01

  23  23   1    6 C    -2.26338600000E-02  2.94114110000E-01  4.94883580000E-01

  24  24   1    6 C     3.17168600000E-02  4.01382050000E-01  4.96567690000E-01

  25  25   1    6 C     4.76976840000E-01 -4.59723700000E-02 -4.98594430000E-01

  26  26   1    6 C    -4.70265920000E-01 -1.01347340000E-01 -4.96114270000E-01

  27  27   1    6 C     3.15321960000E-01 -2.08306010000E-01 -4.95899930000E-01

  28  28   1    6 C     3.68909690000E-01 -1.01168640000E-01 -4.96542920000E-01

  29  29   1    6 C     4.76084850000E-01 -2.08656230000E-01 -4.94889520000E-01

  30  30   1    6 C     3.68554740000E-01 -2.62770020000E-01 -4.96573570000E-01

  31  31   1    6 C     4.77415240000E-01  2.92599720000E-01  4.98588560000E-01

  32  32   1    6 C    -4.69038220000E-01  4.01113390000E-01  4.96108410000E-01

  33  33   1    6 C     3.16607870000E-01  2.93725540000E-01  4.95894050000E-01

  34  34   1    6 C     3.69972940000E-01  2.40045830000E-01  4.96537030000E-01

  35  35   1    6 C     4.77682750000E-01  4.54962120000E-01  4.94883650000E-01

  36  36   1    6 C     3.69640950000E-01  4.01304650000E-01  4.96567690000E-01

  37  37   1    8 O     4.83989400000E-01  1.26860470000E-01  4.99354050000E-01

  38  38   1    8 O    -3.57879710000E-01  1.25239740000E-01 -4.95348800000E-01

  39  39   1    8 O    -3.56653730000E-01  2.86641630000E-01  4.96659570000E-01

  40  40   1    8 O     2.03577230000E-01 -4.33859060000E-01  4.99354080000E-01

  41  41   1    8 O     2.02782560000E-01  4.05557020000E-01 -4.95348810000E-01

  42  42   1    8 O     3.62930690000E-01 -4.33046400000E-01  4.96659550000E-01

 NUMBER OF SYMMETRY OPERATORS         :    1
 *******************************************************************************
 * GEOMETRY EDITING - INPUT COORDINATES ARE GIVEN IN ANGSTROM         
 *******************************************************************************

 GCALCO - MAX INDICES DIRECT LATTICE VECTOR     9    12    28
 NO.OF VECTORS CREATED 6999 STARS 3500 RMAX   206.27233 BOHR

 GEOMETRY FOR WAVE FUNCTION - DIMENSIONALITY OF THE SYSTEM    3
 (NON PERIODIC DIRECTION: LATTICE PARAMETER FORMALLY SET TO 500)
 *******************************************************************************
 LATTICE PARAMETERS (ANGSTROMS AND DEGREES) - BOHR = 0.5291772083 ANGSTROM
 PRIMITIVE CELL - CENTRING CODE 1/0 VOLUME=   781.930799 - DENSITY  0.828 g/cm^3
         A              B              C           ALPHA      BETA       GAMMA 
    15.02361100    15.02391600     5.65685400    52.237240  89.999960 119.995964
 *******************************************************************************
 ATOMS IN THE ASYMMETRIC UNIT   42 - ATOMS IN THE UNIT CELL:   42
     ATOM                 X/A                 Y/B                 Z/C    
 *******************************************************************************
      1 T   5 B    -4.633491000000E-01  7.324329000000E-02 -4.988087900000E-01
      2 T   5 B    -3.042934400000E-01  2.323029400000E-01 -4.988087700000E-01
      3 T   5 B    -4.629674800000E-01  2.330575900000E-01  4.986804400000E-01
      4 T   5 B     1.502256100000E-01  4.595582900000E-01 -4.988087800000E-01
      5 T   5 B     3.093335800000E-01  4.595375200000E-01 -4.988087800000E-01
      6 T   5 B     3.096997500000E-01 -3.805514300000E-01  4.986804400000E-01
      7 T   1 H    -1.731859900000E-01  1.564553300000E-01  4.959858600000E-01
      8 T   1 H     2.052726000000E-02 -4.611765800000E-01  4.951898700000E-01
      9 T   1 H    -1.731170200000E-01  4.418800700000E-01  4.950673700000E-01
     10 T   1 H     2.064304000000E-02  2.534831900000E-01  4.950979200000E-01
     11 T   1 H    -3.864301900000E-01 -5.793682000000E-02 -4.959917600000E-01
     12 T   1 H     2.313447800000E-01 -2.517483500000E-01 -4.951957100000E-01
     13 T   1 H     3.282662100000E-01 -5.817336000000E-02 -4.950731300000E-01
     14 T   1 H    -4.832868400000E-01 -2.518665600000E-01 -4.951038900000E-01
     15 T   1 H    -3.851568800000E-01  4.415794800000E-01  4.959859100000E-01
     16 T   1 H     2.328545700000E-01  2.533793300000E-01  4.951898200000E-01
     17 T   1 H     3.297521400000E-01  1.566309200000E-01  4.950672700000E-01
     18 T   1 H    -4.818022800000E-01 -4.612438500000E-01  4.950980200000E-01
     19 T   6 C    -1.847393200000E-01  2.926688500000E-01  4.985885700000E-01
     20 T   6 C    -1.297593300000E-01  2.402732600000E-01  4.961083600000E-01
     21 T   6 C    -2.282739000000E-02  4.547387900000E-01  4.958941000000E-01
     22 T   6 C    -1.298622200000E-01  4.010480100000E-01  4.965371000000E-01
     23 T   6 C    -2.263386000000E-02  2.941141100000E-01  4.948835800000E-01
     24 T   6 C     3.171686000000E-02  4.013820500000E-01  4.965676900000E-01
     25 T   6 C     4.769768400000E-01 -4.597237000000E-02 -4.985944300000E-01
     26 T   6 C    -4.702659200000E-01 -1.013473400000E-01 -4.961142700000E-01
     27 T   6 C     3.153219600000E-01 -2.083060100000E-01 -4.958999300000E-01
     28 T   6 C     3.689096900000E-01 -1.011686400000E-01 -4.965429200000E-01
     29 T   6 C     4.760848500000E-01 -2.086562300000E-01 -4.948895200000E-01
     30 T   6 C     3.685547400000E-01 -2.627700200000E-01 -4.965735700000E-01
     31 T   6 C     4.774152400000E-01  2.925997200000E-01  4.985885600000E-01
     32 T   6 C    -4.690382200000E-01  4.011133900000E-01  4.961084100000E-01
     33 T   6 C     3.166078700000E-01  2.937255400000E-01  4.958940500000E-01
     34 T   6 C     3.699729400000E-01  2.400458300000E-01  4.965370300000E-01
     35 T   6 C     4.776827500000E-01  4.549621200000E-01  4.948836500000E-01
     36 T   6 C     3.696409500000E-01  4.013046500000E-01  4.965676900000E-01
     37 T   8 O     4.839894000000E-01  1.268604700000E-01  4.993540500000E-01
     38 T   8 O    -3.578797100000E-01  1.252397400000E-01 -4.953488000000E-01
     39 T   8 O    -3.566537300000E-01  2.866416300000E-01  4.966595700000E-01
     40 T   8 O     2.035772300000E-01 -4.338590600000E-01  4.993540800000E-01
     41 T   8 O     2.027825600000E-01  4.055570200000E-01 -4.953488100000E-01
     42 T   8 O     3.629306900000E-01 -4.330464000000E-01  4.966595500000E-01

 T = ATOM BELONGING TO THE ASYMMETRIC UNIT

 ****    1 SYMMOPS - TRANSLATORS IN FRACTIONAL UNITS
 **** MATRICES AND TRANSLATORS IN THE CRYSTALLOGRAPHIC REFERENCE FRAME
   V INV                    ROTATION MATRICES                   TRANSLATORS
   1   1  1.00  0.00  0.00  0.00  1.00  0.00 -0.00  0.00  1.00  0.00  0.00  0.00

 DIRECT LATTICE VECTORS CARTESIAN COMPONENTS (ANGSTROM)
          X                    Y                    Z
   0.130113578931E+02  -0.751088897922E+01   0.000000000000E+00
   0.000000000000E+00   0.150239160000E+02   0.000000000000E+00
   0.199974743944E+01   0.346421979750E+01   0.400002356873E+01


 CARTESIAN COORDINATES - PRIMITIVE CELL
 *******************************************************************************
 *      ATOM          X(ANGSTROM)         Y(ANGSTROM)         Z(ANGSTROM)
 *******************************************************************************
    1     5 B    -7.026292570098E+00  2.852581399761E+00 -1.995246916291E+00
    2     5 B    -4.956762412927E+00  4.047630885859E+00 -1.995246836290E+00
    3     5 B     5.985009811479E+00 -2.268835125250E+00 -2.005290055466E+00
    4     5 B     9.571475958377E-01  4.048054016678E+00 -1.995246876291E+00
    5     5 B     3.027358337145E+00  2.852699671564E+00 -1.995246876291E+00
    6     5 B     3.027101780189E+00  5.243741698235E+00 -2.005290055466E+00
    7     1 H    -3.261285883860E+00  1.905336717312E+00 -2.016068438974E+00
    8     1 H     1.257342200993E+00 -5.367409618822E+00  1.980771150997E+00
    9     1 H    -1.262477799092E+00 -5.369862044365E+00  1.980281148110E+00
   10     1 H    -7.410826602071E-01  1.904170791006E+00 -2.019620219902E+00
   11     1 H    -4.020092315375E+00  3.777991661429E+00  2.016044838835E+00
   12     1 H     4.019590815616E+00 -3.771098006761E+00  2.019229057597E+00
   13     1 H     5.280915357894E+00 -1.590385073675E+00  2.019719380486E+00
   14     1 H    -5.278553337089E+00  1.594962859648E+00  2.019596339761E+00
   15     1 H    -4.019567457132E+00 -3.778588211194E+00  1.983955329759E+00
   16     1 H     2.020261282446E+00  3.090315269500E-01 -2.019252617736E+00
   17     1 H     3.280785175635E+00 -1.872719888786E+00 -2.019742820624E+00
   18     1 H    -5.278830901004E+00 -1.595797060319E+00  1.980403748833E+00
   19     6 C    -3.406405632688E+00  4.047589338336E+00 -2.005657537632E+00
   20     6 C    -2.696001099438E+00  2.838861801853E+00 -2.015578436087E+00
   21     6 C    -1.305099823786E+00  5.257077736063E+00 -2.016435481137E+00
   22     6 C    -2.696482466335E+00  5.256586185737E+00 -2.013863465982E+00
   23     6 C    -1.304602520475E+00  2.838911790482E+00 -2.020477584954E+00
   24     6 C    -5.940580561497E-01  4.048108213878E+00 -2.013741105261E+00
   25     6 C     7.208800876667E+00 -2.536226013930E+00  2.005634097494E+00
   26     6 C    -5.111153991690E+00  3.755052114387E+00  2.015554795948E+00
   27     6 C     5.110839697304E+00 -3.751606788391E+00  2.016412161000E+00
   28     6 C     5.806803013404E+00 -2.546702890416E+00  2.013840185845E+00
   29     6 C    -5.806754133230E+00  2.550048578521E+00  2.020453824814E+00
   30     6 C     1.802628460782E+00  3.123447767696E+00 -5.986329552342E+00
   31     6 C     5.209124307994E+00 -9.268186868611E-01 -2.005657577632E+00
   32     6 C     5.900877830257E+00  2.927076741787E-01 -2.015578236086E+00
   33     6 C     3.111413725610E+00  2.885674664733E-01 -2.016435681138E+00
   34     6 C     3.807051547976E+00 -9.165036795638E-01 -2.013863745984E+00
   35     6 C     5.205196092058E+00  1.497656511817E+00 -2.020477304952E+00
   36     6 C     3.802793219526E+00  1.508835039387E+00 -2.013741105261E+00
   37     8 O     5.296193843267E+00 -3.463597217043E+00 -2.002595599590E+00
   38     8 O    -5.647073483903E+00  2.853588983721E+00 -1.981406874743E+00
   39     8 O    -1.647608182103E+00 -2.853891946219E+00  5.986673554369E+00
   40     8 O     1.647650801821E+00  5.242260445895E+00 -2.002595479590E+00
   41     8 O     1.647903948203E+00  2.853980152341E+00 -1.981406914743E+00
   42     8 O     3.715667321910E+00  4.048249190787E+00 -2.013373663096E+00

 *******************************************************************************
 STARTING BASIS SET HANDLING 
 *******************************************************************************

 Loading internal basis set: SOLDEF2MSVP         

 Please cite in your publication:
 L. Dona', J. G. Brandenburg and B. Civalleri, J. Chem. Phys., 151, 121101 (2019
 )                                                                              
                                                                                
                    

 *******************************************************************************
 LOCAL ATOMIC FUNCTIONS BASIS SET
 *******************************************************************************
   ATOM   X(AU)   Y(AU)   Z(AU)  N. TYPE  EXPONENT  S COEF   P COEF   D/F/G COEF
 *******************************************************************************
   1 B  -13.278   5.391  -3.770
                                  1 S  
                                         2.410E+03 1.755E-03 0.000E+00 0.000E+00
                                         3.619E+02 1.344E-02 0.000E+00 0.000E+00
                                         8.231E+01 6.637E-02 0.000E+00 0.000E+00
                                         2.311E+01 2.303E-01 0.000E+00 0.000E+00
                                         7.252E+00 5.150E-01 0.000E+00 0.000E+00
                                  2 S  
                                         2.367E+00 1.000E+00 0.000E+00 0.000E+00
                                  3 S  
                                         5.533E-01 1.000E+00 0.000E+00 0.000E+00
                                  4 S  
                                         1.716E-01 1.000E+00 0.000E+00 0.000E+00
                           5-     7 P  
                                         6.002E+00 0.000E+00-3.555E-02 0.000E+00
                                         1.240E+00 0.000E+00-1.983E-01 0.000E+00
                                         3.367E-01 0.000E+00-5.048E-01 0.000E+00
                           8-    10 P  
                                         1.256E-01 0.000E+00 1.000E+00 0.000E+00
                          11-    15 D  
                                         8.880E-01 0.000E+00 0.000E+00 1.000E+00
   2 B   -9.367   7.649  -3.770
   3 B   11.310  -4.287  -3.789
   4 B    1.809   7.650  -3.770
   5 B    5.721   5.391  -3.770
   6 B    5.720   9.909  -3.789
   7 H   -6.163   3.601  -3.810
                                 91 S  
                                         1.874E+01 1.968E-02 0.000E+00 0.000E+00
                                         2.826E+00 1.380E-01 0.000E+00 0.000E+00
                                         6.401E-01 4.783E-01 0.000E+00 0.000E+00
                                 92 S  
                                         1.756E-01 1.000E+00 0.000E+00 0.000E+00
   8 H    2.376 -10.143   3.743
   9 H   -2.386 -10.148   3.742
  10 H   -1.400   3.598  -3.817
  11 H   -7.597   7.139   3.810
  12 H    7.596  -7.126   3.816
  13 H    9.979  -3.005   3.817
  14 H   -9.975   3.014   3.816
  15 H   -7.596  -7.140   3.749
  16 H    3.818   0.584  -3.816
  17 H    6.200  -3.539  -3.817
  18 H   -9.976  -3.016   3.742
  19 C   -6.437   7.649  -3.790
                                115 S  
                                         3.624E+03 1.634E-03 0.000E+00 0.000E+00
                                         5.440E+02 1.252E-02 0.000E+00 0.000E+00
                                         1.237E+02 6.211E-02 0.000E+00 0.000E+00
                                         3.476E+01 2.182E-01 0.000E+00 0.000E+00
                                         1.093E+01 4.980E-01 0.000E+00 0.000E+00
                                116 S  
                                         3.574E+00 1.000E+00 0.000E+00 0.000E+00
                                117 S  
                                         7.742E-01 1.000E+00 0.000E+00 0.000E+00
                                118 S  
                                         2.330E-01 1.000E+00 0.000E+00 0.000E+00
                         119-   121 P  
                                         9.443E+00 0.000E+00 3.790E-02 0.000E+00
                                         2.002E+00 0.000E+00 2.082E-01 0.000E+00
                                         5.463E-01 0.000E+00 5.047E-01 0.000E+00
                         122-   124 P  
                                         1.820E-01 0.000E+00 1.000E+00 0.000E+00
                         125-   129 D  
                                         8.880E-01 0.000E+00 0.000E+00 1.000E+00
  20 C   -5.095   5.365  -3.809
  21 C   -2.466   9.934  -3.811
  22 C   -5.096   9.934  -3.806
  23 C   -2.465   5.365  -3.818
  24 C   -1.123   7.650  -3.805
  25 C   13.623  -4.793   3.790
  26 C   -9.659   7.096   3.809
  27 C    9.658  -7.090   3.810
  28 C   10.973  -4.813   3.806
  29 C  -10.973   4.819   3.818
  30 C    3.406   5.902 -11.313
  31 C    9.844  -1.751  -3.790
  32 C   11.151   0.553  -3.809
  33 C    5.880   0.545  -3.811
  34 C    7.194  -1.732  -3.806
  35 C    9.836   2.830  -3.818
  36 C    7.186   2.851  -3.805
  37 O   10.008  -6.545  -3.784
                                385 S  
                                         6.773E+03 1.727E-03 0.000E+00 0.000E+00
                                         1.017E+03 1.325E-02 0.000E+00 0.000E+00
                                         2.313E+02 6.603E-02 0.000E+00 0.000E+00
                                         6.501E+01 2.353E-01 0.000E+00 0.000E+00
                                         2.050E+01 5.498E-01 0.000E+00 0.000E+00
                                386 S  
                                         6.716E+00 1.000E+00 0.000E+00 0.000E+00
                                387 S  
                                         1.147E+00 1.000E+00 0.000E+00 0.000E+00
                                388 S  
                                         3.342E-01 1.000E+00 0.000E+00 0.000E+00
                         389-   391 P  
                                         1.769E+01 0.000E+00 4.359E-02 0.000E+00
                                         3.854E+00 0.000E+00 2.318E-01 0.000E+00
                                         1.047E+00 0.000E+00 5.146E-01 0.000E+00
                         392-   394 P  
                                         2.759E-01 0.000E+00 1.000E+00 0.000E+00
                         395-   399 D  
                                         8.000E-01 0.000E+00 0.000E+00 1.000E+00
  38 O  -10.671   5.393  -3.744
  39 O   -3.114  -5.393  11.313
  40 O    3.114   9.906  -3.784
  41 O    3.114   5.393  -3.744
  42 O    7.022   7.650  -3.805

 *******************************************************************************
 FINISHED BASIS SET HANDLING 
 *******************************************************************************

 INFORMATION **** SET_MPP **** PCRYSTAL CALCULATION
 INFORMATION **** READM2 **** NEW DEFAULT: FOCK/KS MATRIX MIXING SET TO 30 %
 INFORMATION **** READM2 **** NEW DEFAULT: FULL DIRECT SCF MODE
 INFORMATION **** READM2 **** NEW DEFAULT: COULOMB BIPOLAR BUFFER SET TO 32 Mb
 INFORMATION **** READM2 **** NEW DEFAULT: EXCHANGE BIPOLAR BUFFER SET TO 32 Mb

 *******************************************************************************
 NEW DEFAULT: DFT INTEGRATION GRID INCREASED TO XLGRID
 NEW DEFAULT: DIIS ACCELERATOR ACTIVE
 USE KEYWORD NODIIS TO TURN IT OFF
 *******************************************************************************

 WARNING **** RDDFTP **** HSEsol-HJS ACTIVE
 RANGE SEPARATION - OMEGA:   0.110000000000000     
 WARNING **** RDDFTP **** HSEsol-3c has to be combined with sol-def2-mSVP basis set
 *******************************************************************************
 N. OF ATOMS PER CELL        42  COULOMB OVERLAP TOL         (T1) 10**   -6
 NUMBER OF SHELLS           234  COULOMB PENETRATION TOL     (T2) 10**   -6
 NUMBER OF AO               474  EXCHANGE OVERLAP TOL        (T3) 10**   -6
 N. OF ELECTRONS PER CELL   198  EXCHANGE PSEUDO OVP (F(G))  (T4) 10**   -6
 CORE ELECTRONS PER CELL     60  EXCHANGE PSEUDO OVP (P(G))  (T5) 10**  -12
 N. OF SYMMETRY OPERATORS     1  POLE ORDER IN MONO ZONE                  4
 *******************************************************************************
 TYPE OF CALCULATION :  RESTRICTED CLOSED SHELL
 KOHN-SHAM HAMILTONIAN

 (EXCHANGE)[CORRELATION] FUNCTIONAL:(HSEsol GGA)[PBEsol]

 RANGE-SEPARATED HYBRID FUNCTIONAL 
 OMEGA (SHORT-RANGE)[LONG-RANGE]:(    0.1100)[    0.0000]

 HYBRID EXCHANGE - PERCENTAGE OF FOCK EXCHANGE    25.0000

 CAPPA:IS1  2;IS2  2;IS3  8; K PTS MONK NET  20; SYMMOPS:K SPACE   2;G SPACE   1

 *******************************************************************************
 MAX NUMBER OF SCF CYCLES      50  CONVERGENCE ON DELTAP        10**-16
 WEIGHT OF F(I) IN F(I+1)      30% CONVERGENCE ON ENERGY        10**- 6
 SHRINK. FACT.(MONKH.)    2  2  8  NUMBER OF K POINTS IN THE IBZ     20
 SHRINKING FACTOR(GILAT NET)    8  NUMBER OF K POINTS(GILAT NET)   1028
 *******************************************************************************
 *** K POINTS COORDINATES (OBLIQUE COORDINATES IN UNITS OF IS =  2)
   1-R(  0  0  0)   2-R(  1  0  0)   3-R(  0  1  0)   4-R(  1  1  0)
   5-C(  0  0  1)   6-C(  1  0  1)   7-C(  0  1  1)   8-C(  1  1  1)
   9-C(  0  0  2)  10-C(  1  0  2)  11-C(  0  1  2)  12-C(  1  1  2)
  13-C(  0  0  3)  14-C(  1  0  3)  15-C(  0  1  3)  16-C(  1  1  3)
  17-R(  0  0  4)  18-R(  1  0  4)  19-R(  0  1  4)  20-R(  1  1  4)

 DIRECT LATTICE VECTORS COMPON. (A.U.)     RECIP. LATTICE VECTORS COMPON. (A.U.) 
        X            Y            Z              X            Y            Z
   24.5879030  -14.1935232    0.0000000      0.2555397    0.0000000   -0.1277530
    0.0000000   28.3910867    0.0000000      0.1277517    0.2213084   -0.2555315
    3.7789750    6.5464267    7.5589491      0.0000000    0.0000000    0.8312247

 DISK SPACE FOR EIGENVECTORS (FTN 10)     7189632 REALS

 SYMMETRY ADAPTION OF THE BLOCH FUNCTIONS DISABLED
 TTTTTTTTTTTTTTTTTTTTTTTTTTTTTT gordsh1     TELAPSE        0.04 TCPU        0.04

 MATRIX SIZE: P(G)  310696, F(G)   64119, P(G) IRR  156431, F(G) IRR   64743
 MAX G-VECTOR INDEX FOR 1- AND 2-ELECTRON INTEGRALS  49

 TTTTTTTTTTTTTTTTTTTTTTTTTTTTTT INPUT       TELAPSE        0.35 TCPU        0.35

 NEIGHBORS OF THE NON-EQUIVALENT ATOMS

 N = NUMBER OF NEIGHBORS AT DISTANCE R
    ATOM  N     R/ANG      R/AU   NEIGHBORS (ATOM LABELS AND CELL INDICES)
   1 B    1     1.3791     2.6061   37 O   -1 0 0
   1 B    1     1.3793     2.6065   38 O    0 0 0
   1 B    1     1.5503     2.9297   25 C   -1 0-1
   1 B    1     2.3895     4.5155    3 B   -1 0 0
   1 B    1     2.3898     4.5160    2 B    0 0 0
   1 B    1     2.5632     4.8437   26 C    0 0-1

   2 B    1     1.3793     2.6065   39 O    0 1-2
   2 B    1     1.3793     2.6065   38 O    0 0 0
   2 B    1     1.5504     2.9298   19 C    0 0 0
   2 B    1     2.3895     4.5156    3 B   -1 0 0
   2 B    1     2.3898     4.5160    1 B    0 0 0
   2 B    1     2.5634     4.8440   22 C    0 0 0

   3 B    1     1.3791     2.6061   37 O    0 0 0
   3 B    1     1.3793     2.6064   39 O    1 1-2
   3 B    1     1.5502     2.9294   31 C    0 0 0
   3 B    1     2.3895     4.5155    1 B    1 0 0
   3 B    1     2.3895     4.5156    2 B    1 0 0
   3 B    1     2.5629     4.8433   32 C    0 0 0

   4 B    1     1.3795     2.6068   40 O    0 0 0
   4 B    1     1.3795     2.6070   41 O    0 0 0
   4 B    1     1.5513     2.9316   24 C    0 0 0
   4 B    1     2.3905     4.5174    6 B    0 0 0
   4 B    1     2.3905     4.5175    5 B    0 0 0
   4 B    1     2.5648     4.8468   23 C    0 0 0

   5 B    1     1.3795     2.6069   41 O    0 0 0
   5 B    1     1.3797     2.6072   42 O    0 0 0
   5 B    1     1.5516     2.9322   36 C    0 0 0
   5 B    1     2.3905     4.5175    4 B    0 0 0
   5 B    1     2.3911     4.5185    6 B    0 0 0
   5 B    1     2.5651     4.8473   35 C    0 0 0

   6 B    1     1.3795     2.6068   40 O    0 0 0
   6 B    1     1.3796     2.6071   42 O    0 0 0
   6 B    1     1.5516     2.9322   30 C    0 0 1
   6 B    1     2.3905     4.5174    4 B    0 0 0
   6 B    1     2.3911     4.5185    5 B    0 0 0
   6 B    1     2.5651     4.8473   29 C    1 1-1

   7 H    1     1.0913     2.0623   20 C    0 0 0
   7 H    1     2.1472     4.0576   19 C    0 0 0
   7 H    1     2.1680     4.0969   23 C    0 0 0
   7 H    1     2.5202     4.7625   10 H    0 0 0
   7 H    1     2.5676     4.8520   38 O    0 0 0
   7 H    1     2.7321     5.1630    2 B    0 0 0

   8 H    1     1.0914     2.0625   21 C    0-1 1
   8 H    1     2.1493     4.0616   24 C    0-1 1
   8 H    1     2.1666     4.0942   22 C    0-1 1
   8 H    1     2.5198     4.7618    9 H    0 0 0
   8 H    1     2.5720     4.8604   40 O    0-1 1
   8 H    1     2.7362     5.1707    4 B    0-1 1

   9 H    1     1.0914     2.0624   22 C    0-1 1
   9 H    1     2.1471     4.0575   19 C    0-1 1
   9 H    1     2.1680     4.0970   21 C    0-1 1
   9 H    1     2.5198     4.7618    8 H    0 0 0
   9 H    1     2.5665     4.8500   39 O    0 0-1
   9 H    1     2.7315     5.1618    2 B    0-1 1

  10 H    1     1.0915     2.0626   23 C    0 0 0
  10 H    1     2.1490     4.0610   24 C    0 0 0
  10 H    1     2.1669     4.0948   20 C    0 0 0
  10 H    1     2.5202     4.7625    7 H    0 0 0
  10 H    1     2.5712     4.8588   41 O    0 0 0
  10 H    1     2.7351     5.1686    4 B    0 0 0

  11 H    1     1.0913     2.0623   26 C    0 0 0
  11 H    1     2.1469     4.0571   25 C   -1 0 0
  11 H    1     2.1680     4.0968   29 C    0 0 0
  11 H    1     2.5198     4.7617   14 H    0 0 0
  11 H    1     2.5670     4.8510   38 O    0 0 1
  11 H    1     2.7310     5.1609    1 B    0 0 1

  12 H    1     1.0914     2.0625   27 C    0 0 0
  12 H    1     2.1493     4.0617   30 C    0-1 2
  12 H    1     2.1664     4.0939   28 C    0 0 0
  12 H    1     2.5192     4.7606   13 H    0 0 0
  12 H    1     2.5735     4.8632   40 O    0-1 1
  12 H    1     2.7371     5.1723    6 B    0-1 1

  13 H    1     1.0914     2.0624   28 C    0 0 0
  13 H    1     2.1475     4.0581   25 C    0 0 0
  13 H    1     2.1679     4.0967   27 C    0 0 0
  13 H    1     2.5192     4.7606   12 H    0 0 0
  13 H    1     2.5675     4.8519   37 O    0 0 1
  13 H    1     2.7328     5.1643    1 B    1 0 1

  14 H    1     1.0914     2.0625   29 C    0 0 0
  14 H    1     2.1491     4.0612   30 C   -1-1 2
  14 H    1     2.1666     4.0942   26 C    0 0 0
  14 H    1     2.5198     4.7617   11 H    0 0 0
  14 H    1     2.5723     4.8609   42 O   -1-1 1
  14 H    1     2.7355     5.1693    6 B   -1-1 1

  15 H    1     1.0914     2.0624   32 C   -1-1 1
  15 H    1     2.1475     4.0582   31 C   -1-1 1
  15 H    1     2.1678     4.0966   35 C   -1-1 1
  15 H    1     2.5200     4.7621   18 H    0 0 0
  15 H    1     2.5667     4.8503   39 O    0 0-1
  15 H    1     2.7315     5.1618    3 B   -1-1 1

  16 H    1     1.0913     2.0623   33 C    0 0 0
  16 H    1     2.1487     4.0605   36 C    0 0 0
  16 H    1     2.1667     4.0945   34 C    0 0 0
  16 H    1     2.5197     4.7616   17 H    0 0 0
  16 H    1     2.5723     4.8610   41 O    0 0 0
  16 H    1     2.7359     5.1701    5 B    0 0 0

  17 H    1     1.0915     2.0626   34 C    0 0 0
  17 H    1     2.1479     4.0589   31 C    0 0 0
  17 H    1     2.1679     4.0968   33 C    0 0 0
  17 H    1     2.5197     4.7616   16 H    0 0 0
  17 H    1     2.5677     4.8522   37 O    0 0 0
  17 H    1     2.7331     5.1648    3 B    0 0 0

  18 H    1     1.0914     2.0624   35 C   -1-1 1
  18 H    1     2.1486     4.0602   36 C   -1-1 1
  18 H    1     2.1668     4.0947   32 C   -1-1 1
  18 H    1     2.5200     4.7621   15 H    0 0 0
  18 H    1     2.5717     4.8598   42 O   -1-1 1
  18 H    1     2.7349     5.1682    5 B   -1-1 1

  19 C    1     1.4020     2.6495   22 C    0 0 0
  19 C    1     1.4021     2.6495   20 C    0 0 0
  19 C    1     1.5504     2.9298    2 B    0 0 0
  19 C    1     2.1471     4.0575    9 H    0 1-1
  19 C    1     2.1472     4.0576    7 H    0 0 0
  19 C    1     2.4246     4.5817   21 C    0 0 0

  20 C    1     1.0913     2.0623    7 H    0 0 0
  20 C    1     1.3914     2.6294   23 C    0 0 0
  20 C    1     1.4021     2.6495   19 C    0 0 0
  20 C    1     2.1669     4.0948   10 H    0 0 0
  20 C    1     2.4177     4.5688   22 C    0 0 0
  20 C    1     2.4250     4.5825   24 C    0 0 0

  21 C    1     1.0914     2.0625    8 H    0 1-1
  21 C    1     1.3914     2.6293   22 C    0 0 0
  21 C    1     1.4026     2.6505   24 C    0 0 0
  21 C    1     2.1680     4.0970    9 H    0 1-1
  21 C    1     2.4182     4.5697   23 C    0 0 0
  21 C    1     2.4246     4.5817   19 C    0 0 0

  22 C    1     1.0914     2.0624    9 H    0 1-1
  22 C    1     1.3914     2.6293   21 C    0 0 0
  22 C    1     1.4020     2.6495   19 C    0 0 0
  22 C    1     2.1666     4.0942    8 H    0 1-1
  22 C    1     2.4177     4.5688   20 C    0 0 0
  22 C    1     2.4250     4.5826   24 C    0 0 0

  23 C    1     1.0915     2.0626   10 H    0 0 0
  23 C    1     1.3914     2.6294   20 C    0 0 0
  23 C    1     1.4025     2.6504   24 C    0 0 0
  23 C    1     2.1680     4.0969    7 H    0 0 0
  23 C    1     2.4182     4.5697   21 C    0 0 0
  23 C    1     2.4246     4.5818   19 C    0 0 0

  24 C    1     1.4025     2.6504   23 C    0 0 0
  24 C    1     1.4026     2.6505   21 C    0 0 0
  24 C    1     1.5513     2.9316    4 B    0 0 0
  24 C    1     2.1490     4.0610   10 H    0 0 0
  24 C    1     2.1493     4.0616    8 H    0 1-1
  24 C    1     2.4250     4.5825   20 C    0 0 0

  25 C    1     1.4020     2.6494   26 C    1 0 0
  25 C    1     1.4021     2.6495   28 C    0 0 0
  25 C    1     1.5503     2.9297    1 B    1 0 1
  25 C    1     2.1469     4.0571   11 H    1 0 0
  25 C    1     2.1475     4.0581   13 H    0 0 0
  25 C    1     2.4246     4.5818   27 C    0 0 0

  26 C    1     1.0913     2.0623   11 H    0 0 0
  26 C    1     1.3914     2.6293   29 C    0 0 0
  26 C    1     1.4020     2.6494   25 C   -1 0 0
  26 C    1     2.1666     4.0942   14 H    0 0 0
  26 C    1     2.4175     4.5684   28 C   -1 0 0
  26 C    1     2.4251     4.5828   30 C   -1-1 2

  27 C    1     1.0914     2.0625   12 H    0 0 0
  27 C    1     1.3915     2.6295   28 C    0 0 0
  27 C    1     1.4026     2.6505   30 C    0-1 2
  27 C    1     2.1679     4.0967   13 H    0 0 0
  27 C    1     2.4179     4.5691   29 C    1 0 0
  27 C    1     2.4246     4.5818   25 C    0 0 0

  28 C    1     1.0914     2.0624   13 H    0 0 0
  28 C    1     1.3915     2.6295   27 C    0 0 0
  28 C    1     1.4021     2.6495   25 C    0 0 0
  28 C    1     2.1664     4.0939   12 H    0 0 0
  28 C    1     2.4175     4.5684   26 C    1 0 0
  28 C    1     2.4253     4.5832   30 C    0-1 2

  29 C    1     1.0914     2.0625   14 H    0 0 0
  29 C    1     1.3914     2.6293   26 C    0 0 0
  29 C    1     1.4025     2.6504   30 C   -1-1 2
  29 C    1     2.1680     4.0968   11 H    0 0 0
  29 C    1     2.4179     4.5691   27 C   -1 0 0
  29 C    1     2.4247     4.5819   25 C   -1 0 0

  30 C    1     1.4025     2.6504   29 C    1 1-2
  30 C    1     1.4026     2.6505   27 C    0 1-2
  30 C    1     1.5516     2.9322    6 B    0 0-1
  30 C    1     2.1491     4.0612   14 H    1 1-2
  30 C    1     2.1493     4.0617   12 H    0 1-2
  30 C    1     2.4251     4.5828   26 C    1 1-2

  31 C    1     1.4021     2.6496   32 C    0 0 0
  31 C    1     1.4021     2.6497   34 C    0 0 0
  31 C    1     1.5502     2.9294    3 B    0 0 0
  31 C    1     2.1475     4.0582   15 H    1 1-1
  31 C    1     2.1479     4.0589   17 H    0 0 0
  31 C    1     2.4244     4.5814   33 C    0 0 0

  32 C    1     1.0914     2.0624   15 H    1 1-1
  32 C    1     1.3914     2.6293   35 C    0 0 0
  32 C    1     1.4021     2.6496   31 C    0 0 0
  32 C    1     2.1668     4.0947   18 H    1 1-1
  32 C    1     2.4179     4.5692   34 C    0 0 0
  32 C    1     2.4251     4.5827   36 C    0 0 0

  33 C    1     1.0913     2.0623   16 H    0 0 0
  33 C    1     1.3914     2.6294   34 C    0 0 0
  33 C    1     1.4025     2.6504   36 C    0 0 0
  33 C    1     2.1679     4.0968   17 H    0 0 0
  33 C    1     2.4178     4.5690   35 C    0 0 0
  33 C    1     2.4244     4.5814   31 C    0 0 0

  34 C    1     1.0915     2.0626   17 H    0 0 0
  34 C    1     1.3914     2.6294   33 C    0 0 0
  34 C    1     1.4021     2.6497   31 C    0 0 0
  34 C    1     2.1667     4.0945   16 H    0 0 0
  34 C    1     2.4179     4.5692   32 C    0 0 0
  34 C    1     2.4253     4.5832   36 C    0 0 0

  35 C    1     1.0914     2.0624   18 H    1 1-1
  35 C    1     1.3914     2.6293   32 C    0 0 0
  35 C    1     1.4025     2.6503   36 C    0 0 0
  35 C    1     2.1678     4.0966   15 H    1 1-1
  35 C    1     2.4178     4.5690   33 C    0 0 0
  35 C    1     2.4245     4.5817   31 C    0 0 0

  36 C    1     1.4025     2.6503   35 C    0 0 0
  36 C    1     1.4025     2.6504   33 C    0 0 0
  36 C    1     1.5516     2.9322    5 B    0 0 0
  36 C    1     2.1486     4.0602   18 H    1 1-1
  36 C    1     2.1487     4.0605   16 H    0 0 0
  36 C    1     2.4251     4.5827   32 C    0 0 0

  37 O    1     1.3791     2.6061    1 B    1 0 0
  37 O    1     1.3791     2.6061    3 B    0 0 0
  37 O    1     2.3880     4.5126   38 O    1 0 0
  37 O    1     2.3882     4.5130   39 O    1 1-2
  37 O    1     2.5383     4.7966   31 C    0 0 0
  37 O    1     2.5384     4.7968   25 C    0 0-1

  38 O    1     1.3793     2.6065    1 B    0 0 0
  38 O    1     1.3793     2.6065    2 B    0 0 0
  38 O    1     2.3880     4.5126   37 O   -1 0 0
  38 O    1     2.3882     4.5131   39 O    0 1-2
  38 O    1     2.5391     4.7981   19 C    0 0 0
  38 O    1     2.5395     4.7990   25 C   -1 0-1

  39 O    1     1.3793     2.6064    3 B   -1-1 2
  39 O    1     1.3793     2.6065    2 B    0-1 2
  39 O    1     2.3882     4.5130   37 O   -1-1 2
  39 O    1     2.3882     4.5131   38 O    0-1 2
  39 O    1     2.5390     4.7980   19 C    0-1 2
  39 O    1     2.5391     4.7982   31 C   -1-1 2

  40 O    1     1.3795     2.6068    6 B    0 0 0
  40 O    1     1.3795     2.6068    4 B    0 0 0
  40 O    1     2.3880     4.5126   42 O    0 0 0
  40 O    1     2.3884     4.5134   41 O    0 0 0
  40 O    1     2.5400     4.7998   24 C    0 0 0
  40 O    1     2.5403     4.8005   30 C    0 0 1

  41 O    1     1.3795     2.6069    5 B    0 0 0
  41 O    1     1.3795     2.6070    4 B    0 0 0
  41 O    1     2.3881     4.5128   42 O    0 0 0
  41 O    1     2.3884     4.5134   40 O    0 0 0
  41 O    1     2.5404     4.8006   24 C    0 0 0
  41 O    1     2.5405     4.8008   36 C    0 0 0

  42 O    1     1.3796     2.6071    6 B    0 0 0
  42 O    1     1.3797     2.6072    5 B    0 0 0
  42 O    1     2.3880     4.5126   40 O    0 0 0
  42 O    1     2.3881     4.5128   41 O    0 0 0
  42 O    1     2.5409     4.8016   36 C    0 0 0
  42 O    1     2.5410     4.8019   30 C    0 0 1


 SYMMETRY ALLOWED INTERNAL DEGREE(S) OF FREEDOM: 123
 TTTTTTTTTTTTTTTTTTTTTTTTTTTTTT SYMM        TELAPSE        0.35 TCPU        0.35
 TTTTTTTTTTTTTTTTTTTTTTTTTTTTTT INT_SCREEN  TELAPSE        0.38 TCPU        0.38

 DFT PARAMETERS

     ATOM       ELECTRONS   NET CHARGE   R(ANGSTROM)
   1   5  B       5.0000      0.0000     0.89000000
   7   1  H       1.0000      0.0000     1.11000000
  19   6  C       6.0000      0.0000     0.77000000
  37   8  O       8.0000      0.0000     0.74000000

 SIZE OF GRID=    1317088
 TTTTTTTTTTTTTTTTTTTTTTTTTTTTTT MAKE_GRID2  TELAPSE        8.80 TCPU        8.79
 BECKE WEIGHT FUNCTION
 RADSAFE =     2.00
 TOLERANCES - DENSITY:10**- 6; POTENTIAL:10**- 9; GRID WGT:10**-14

 RADIAL INTEGRATION  - INTERVALS (POINTS,UPPER LIMIT):            1( 75,  4.0*R)

 ANGULAR INTEGRATION - INTERVALS (ACCURACY LEVEL [N. POINTS] UPPER LIMIT):
  1(  4[  86]   0.2)  2(  8[ 194]   0.5)  3( 12[ 350]   0.9)  4( 16[ 974]   3.5)
  5( 12[ 350]9999.0)
 TTTTTTTTTTTTTTTTTTTTTTTTTTTTTT INT_CALC    TELAPSE        8.88 TCPU        8.86
 EEEEEEEEEE INT_CALC TERMINATION  DATE 19 02 2026 TIME 19:07:46.2

 *******************************************************************************
 cof-1_z40_L040_incl                                                             
 CRYSTAL - SCF - TYPE OF CALCULATION :  RESTRICTED CLOSED SHELL
 *******************************************************************************

 CAPPA:IS1  2;IS2  2;IS3  8; K PTS MONK NET  20; SYMMOPS:K SPACE   2;G SPACE   1

 TTTTTTTTTTTTTTTTTTTTTTTTTTTTTT SDIK        TELAPSE        9.49 TCPU       16.83

 AAAAAAAAAAAAAAAAAAAAAAAAAAAAAAAAAAAAAAAAAAAAAAAAAAAAAAAAAAAAAAAAAAAAAAAAAAAAAAA
         ATOMIC WAVEFUNCTION(S)


 NUCLEAR CHARGE  5.0  SYMMETRY SPECIES            S    P
 N. ELECTRONS    5.0  NUMBER OF PRIMITIVE GTOS    8    4
                      NUMBER OF CONTRACTED GTOS   4    2
                      NUMBER OF CLOSED SHELLS     2    0
                      OPEN SHELL OCCUPATION       0    1

  ZNUC  SCFIT    TOTAL HF ENERGY   KINETIC ENERGY   VIRIAL THEOREM ACCURACY
   5.0    11    -2.451164084E+01  2.462155050E+01 -1.995536038E+00  1.5E-06

 NUCLEAR CHARGE  1.0  SYMMETRY SPECIES            S
 N. ELECTRONS    1.0  NUMBER OF PRIMITIVE GTOS    4
                      NUMBER OF CONTRACTED GTOS   2
                      NUMBER OF CLOSED SHELLS     0
                      OPEN SHELL OCCUPATION       1

  ZNUC  SCFIT    TOTAL HF ENERGY   KINETIC ENERGY   VIRIAL THEOREM ACCURACY
   1.0     1    -4.977266687E-01  5.190767460E-01 -1.958869132E+00  0.0E+00

 NUCLEAR CHARGE  6.0  SYMMETRY SPECIES            S    P
 N. ELECTRONS    6.0  NUMBER OF PRIMITIVE GTOS    8    4
                      NUMBER OF CONTRACTED GTOS   4    2
                      NUMBER OF CLOSED SHELLS     2    0
                      OPEN SHELL OCCUPATION       0    2

  ZNUC  SCFIT    TOTAL HF ENERGY   KINETIC ENERGY   VIRIAL THEOREM ACCURACY
   6.0     9    -3.766704647E+01  3.775180683E+01 -1.997754800E+00  1.1E-06

 NUCLEAR CHARGE  8.0  SYMMETRY SPECIES            S    P
 N. ELECTRONS    8.0  NUMBER OF PRIMITIVE GTOS    8    4
                      NUMBER OF CONTRACTED GTOS   4    2
                      NUMBER OF CLOSED SHELLS     2    0
                      OPEN SHELL OCCUPATION       0    4

  ZNUC  SCFIT    TOTAL HF ENERGY   KINETIC ENERGY   VIRIAL THEOREM ACCURACY
   8.0    12    -7.477373220E+01  7.477365593E+01 -2.000001020E+00  3.8E-06

 AAAAAAAAAAAAAAAAAAAAAAAAAAAAAAAAAAAAAAAAAAAAAAAAAAAAAAAAAAAAAAAAAAAAAAAAAAAAAAA

 CHARGE NORMALIZATION FACTOR   1.00000000
 TOTAL ATOMIC CHARGES:
   5.0000000   5.0000000   5.0000000   5.0000000   5.0000000   5.0000000
   1.0000000   1.0000000   1.0000000   1.0000000   1.0000000   1.0000000
   1.0000000   1.0000000   1.0000000   1.0000000   1.0000000   1.0000000
   6.0000000   6.0000000   6.0000000   6.0000000   6.0000000   6.0000000
   6.0000000   6.0000000   6.0000000   6.0000000   6.0000000   6.0000000
   6.0000000   6.0000000   6.0000000   6.0000000   6.0000000   6.0000000
   8.0000000   8.0000000   8.0000000   8.0000000   8.0000000   8.0000000
 TTTTTTTTTTTTTTTTTTTTTTTTTTTTTT MOQGAD      TELAPSE        9.54 TCPU       18.21
 TTTTTTTTTTTTTTTTTTTTTTTTTTTTTT SHELLXN     TELAPSE       16.06 TCPU      226.50
 TTTTTTTTTTTTTTTTTTTTTTTTTTTTTT MONMO3      TELAPSE       16.20 TCPU      230.90
 NUMERICALLY INTEGRATED DENSITY    197.9999775995
 TTTTTTTTTTTTTTTTTTTTTTTTTTTTTT NUMDFT      TELAPSE       16.76 TCPU      248.85
 CYC   0 ETOT(AU) -1.295956235499E+03 DETOT -1.30E+03 tst  0.00E+00 PX  1.00E+00
 TTTTTTTTTTTTTTTTTTTTTTTTTTTTTT DIIS        TELAPSE       16.79 TCPU      249.94
 TTTTTTTTTTTTTTTTTTTTTTTTTTTTTT FDIK        TELAPSE       17.28 TCPU      265.49
 INSULATING STATE
 TOP OF VALENCE BANDS -    BAND     99; K   17; EIG -3.1347665E-01 AU
 TOP OF VALENCE BANDS -    BAND     99; K    1; EIG -3.1505867E-01 AU
 BOTTOM OF VIRTUAL BANDS - BAND    100; K   17; EIG -1.5895085E-01 AU
 DIRECT ENERGY BAND GAP:   4.2049 eV
 BOTTOM OF VIRTUAL BANDS - BAND    100; K    1; EIG -1.5763373E-01 AU
 TTTTTTTTTTTTTTTTTTTTTTTTTTTTTT PDIG        TELAPSE       17.59 TCPU      271.65
 CHARGE NORMALIZATION FACTOR   1.00000000
 TOTAL ATOMIC CHARGES:
   4.1556012   4.1656487   4.1659116   4.1654064   4.1651759   4.1555338
   0.7851888   0.7853192   0.7849179   0.7850035   0.7855737   0.7857451
   0.7855678   0.7857120   0.7849053   0.7850626   0.7851404   0.7853103
   6.0434950   6.2657675   6.2657134   6.2649981   6.2650020   6.0428781
   6.0460311   6.2647580   6.2648668   6.2646776   6.2648970   6.0447125
   6.0438784   6.2647712   6.2653734   6.2653892   6.2659828   6.0424328
   8.6924334   8.6925819   8.6930122   8.6929854   8.6934521   8.6931862
 TTTTTTTTTTTTTTTTTTTTTTTTTTTTTT MOQGAD      TELAPSE       17.63 TCPU      271.69
 TTTTTTTTTTTTTTTTTTTTTTTTTTTTTT SHELLXN     TELAPSE       24.42 TCPU      487.97
 TTTTTTTTTTTTTTTTTTTTTTTTTTTTTT MONMO3      TELAPSE       24.55 TCPU      492.37
 NUMERICALLY INTEGRATED DENSITY    197.9999881233
 TTTTTTTTTTTTTTTTTTTTTTTTTTTTTT NUMDFT      TELAPSE       25.12 TCPU      510.44
 CYC   1 ETOT(AU) -1.288820184942E+03 DETOT  7.14E+00 tst  0.00E+00 PX  1.00E+00
 TTTTTTTTTTTTTTTTTTTTTTTTTTTTTT DIIS        TELAPSE       25.17 TCPU      511.92
 DIIS TEST: 0.10969E+01 AT SCF   CYCLE   1 - MIX   30 %
 TTTTTTTTTTTTTTTTTTTTTTTTTTTTTT FDIK        TELAPSE       25.66 TCPU      527.72
 INSULATING STATE
 TOP OF VALENCE BANDS -    BAND     99; K   17; EIG -2.2603092E-01 AU
 TOP OF VALENCE BANDS -    BAND     99; K    1; EIG -2.2933161E-01 AU
 BOTTOM OF VIRTUAL BANDS - BAND    100; K   17; EIG -8.2258454E-02 AU
 DIRECT ENERGY BAND GAP:   3.9122 eV
 BOTTOM OF VIRTUAL BANDS - BAND    100; K    1; EIG -7.9724778E-02 AU
 TTTTTTTTTTTTTTTTTTTTTTTTTTTTTT PDIG        TELAPSE       25.97 TCPU      533.88
 CHARGE NORMALIZATION FACTOR   1.00000000
 TOTAL ATOMIC CHARGES:
   4.6829555   4.7023572   4.7023337   4.7024249   4.7025712   4.6827326
   0.9070537   0.9071266   0.9154876   0.9157578   0.9028072   0.9025744
   0.9028005   0.9025423   0.9155180   0.9158120   0.9069953   0.9070189
   5.8689095   6.1311213   6.1316077   6.1409701   6.1412698   5.8714021
   5.8859671   6.1418559   6.1431241   6.1426085   6.1421050   5.8881142
   5.8686413   6.1405625   6.1416208   6.1315491   6.1313673   5.8715898
   8.3306036   8.3307999   8.3432749   8.3304193   8.3431114   8.3305357
 TTTTTTTTTTTTTTTTTTTTTTTTTTTTTT MOQGAD      TELAPSE       26.01 TCPU      533.92
 TTTTTTTTTTTTTTTTTTTTTTTTTTTTTT SHELLXN     TELAPSE       32.80 TCPU      750.27
 TTTTTTTTTTTTTTTTTTTTTTTTTTTTTT MONMO3      TELAPSE       32.94 TCPU      754.66
 NUMERICALLY INTEGRATED DENSITY    197.9999870390
 TTTTTTTTTTTTTTTTTTTTTTTTTTTTTT NUMDFT      TELAPSE       33.50 TCPU      772.75
 CYC   2 ETOT(AU) -1.289014868625E+03 DETOT -1.95E-01 tst  3.76E-03 PX  1.59E-01
 TTTTTTTTTTTTTTTTTTTTTTTTTTTTTT DIIS        TELAPSE       33.55 TCPU      774.33
 DIIS TEST: 0.44985E+00 AT SCF   CYCLE   2 - DIIS ACTIVE - HISTORY:     2 CYCLES
 TTTTTTTTTTTTTTTTTTTTTTTTTTTTTT FDIK        TELAPSE       34.05 TCPU      790.11
 INSULATING STATE
 TOP OF VALENCE BANDS -    BAND     99; K   17; EIG -2.3817230E-01 AU
 TOP OF VALENCE BANDS -    BAND     99; K    1; EIG -2.4004855E-01 AU
 BOTTOM OF VIRTUAL BANDS - BAND    100; K   17; EIG -7.8106506E-02 AU
 DIRECT ENERGY BAND GAP:   4.3556 eV
 BOTTOM OF VIRTUAL BANDS - BAND    100; K    1; EIG -7.5689957E-02 AU
 TTTTTTTTTTTTTTTTTTTTTTTTTTTTTT PDIG        TELAPSE       34.36 TCPU      796.28
 CHARGE NORMALIZATION FACTOR   1.00000000
 TOTAL ATOMIC CHARGES:
   4.4817900   4.5001195   4.5001613   4.4997585   4.4996475   4.4815469
   0.8863909   0.8866108   0.8929536   0.8931591   0.8840127   0.8840985
   0.8841405   0.8839154   0.8929102   0.8932734   0.8863868   0.8864759
   5.8926353   6.1616890   6.1614642   6.1571145   6.1562168   5.8923454
   5.9041569   6.1627068   6.1623941   6.1625013   6.1625188   5.9036992
   5.8929517   6.1570296   6.1562980   6.1614776   6.1617748   5.8920237
   8.5139901   8.5143049   8.5121287   8.5144164   8.5120525   8.5147580
 TTTTTTTTTTTTTTTTTTTTTTTTTTTTTT MOQGAD      TELAPSE       34.40 TCPU      796.33
 TTTTTTTTTTTTTTTTTTTTTTTTTTTTTT SHELLXN     TELAPSE       41.18 TCPU     1012.50
 TTTTTTTTTTTTTTTTTTTTTTTTTTTTTT MONMO3      TELAPSE       41.32 TCPU     1016.89
 NUMERICALLY INTEGRATED DENSITY    197.9999865895
 TTTTTTTTTTTTTTTTTTTTTTTTTTTTTT NUMDFT      TELAPSE       41.89 TCPU     1034.96
 CYC   3 ETOT(AU) -1.289107804085E+03 DETOT -9.29E-02 tst  6.58E-04 PX  6.53E-02
 TTTTTTTTTTTTTTTTTTTTTTTTTTTTTT DIIS        TELAPSE       41.94 TCPU     1036.80
 DIIS TEST: 0.14331E-01 AT SCF   CYCLE   3 - DIIS ACTIVE - HISTORY:     3 CYCLES
 TTTTTTTTTTTTTTTTTTTTTTTTTTTTTT FDIK        TELAPSE       42.44 TCPU     1052.61
 INSULATING STATE
 TOP OF VALENCE BANDS -    BAND     99; K   17; EIG -2.4804061E-01 AU
 TOP OF VALENCE BANDS -    BAND     99; K    1; EIG -2.5164871E-01 AU
 BOTTOM OF VIRTUAL BANDS - BAND    100; K   17; EIG -8.6872831E-02 AU
 DIRECT ENERGY BAND GAP:   4.3856 eV
 BOTTOM OF VIRTUAL BANDS - BAND    100; K    1; EIG -8.3713630E-02 AU
 TTTTTTTTTTTTTTTTTTTTTTTTTTTTTT PDIG        TELAPSE       42.76 TCPU     1058.79
 CHARGE NORMALIZATION FACTOR   1.00000000
 TOTAL ATOMIC CHARGES:
   4.4880609   4.5043560   4.5043552   4.5041887   4.5041451   4.4879852
   0.8696166   0.8697627   0.8751471   0.8753025   0.8652386   0.8650966
   0.8652209   0.8650591   0.8752076   0.8753370   0.8695866   0.8696640
   5.9380995   6.1644032   6.1646384   6.1696749   6.1703426   5.9404214
   5.9529147   6.1721341   6.1735627   6.1728656   6.1726444   5.9542420
   5.9381039   6.1691069   6.1708672   6.1646088   6.1645596   5.9403708
   8.4758675   8.4759562   8.4846612   8.4758273   8.4848981   8.4758983
 TTTTTTTTTTTTTTTTTTTTTTTTTTTTTT MOQGAD      TELAPSE       42.81 TCPU     1058.83
 TTTTTTTTTTTTTTTTTTTTTTTTTTTTTT SHELLXN     TELAPSE       49.59 TCPU     1275.23
 TTTTTTTTTTTTTTTTTTTTTTTTTTTTTT MONMO3      TELAPSE       49.73 TCPU     1279.63
 NUMERICALLY INTEGRATED DENSITY    197.9999869724
 TTTTTTTTTTTTTTTTTTTTTTTTTTTTTT NUMDFT      TELAPSE       50.30 TCPU     1297.74
 CYC   4 ETOT(AU) -1.289110870492E+03 DETOT -3.07E-03 tst  2.84E-05 PX  1.41E-02
 TTTTTTTTTTTTTTTTTTTTTTTTTTTTTT DIIS        TELAPSE       50.36 TCPU     1299.66
 DIIS TEST: 0.41429E-02 AT SCF   CYCLE   4 - DIIS ACTIVE - HISTORY:     4 CYCLES
 TTTTTTTTTTTTTTTTTTTTTTTTTTTTTT FDIK        TELAPSE       50.85 TCPU     1315.39
 INSULATING STATE
 TOP OF VALENCE BANDS -    BAND     99; K   17; EIG -2.4636853E-01 AU
 TOP OF VALENCE BANDS -    BAND     99; K    1; EIG -2.4943009E-01 AU
 BOTTOM OF VIRTUAL BANDS - BAND    100; K   17; EIG -8.6289420E-02 AU
 DIRECT ENERGY BAND GAP:   4.3560 eV
 BOTTOM OF VIRTUAL BANDS - BAND    100; K    1; EIG -8.3580994E-02 AU
 TTTTTTTTTTTTTTTTTTTTTTTTTTTTTT PDIG        TELAPSE       51.16 TCPU     1321.55
 CHARGE NORMALIZATION FACTOR   1.00000000
 TOTAL ATOMIC CHARGES:
   4.4885276   4.5068312   4.5068582   4.5066297   4.5065740   4.4882989
   0.8722440   0.8724212   0.8786741   0.8789481   0.8688045   0.8688480
   0.8688941   0.8687023   0.8786586   0.8790517   0.8722247   0.8723037
   5.9225146   6.1662538   6.1661266   6.1679381   6.1670129   5.9222822
   5.9356697   6.1717090   6.1716084   6.1716365   6.1715426   5.9353261
   5.9226314   6.1677588   6.1671617   6.1661352   6.1663704   5.9221213
   8.4879569   8.4882472   8.4909826   8.4882082   8.4908021   8.4885091
 TTTTTTTTTTTTTTTTTTTTTTTTTTTTTT MOQGAD      TELAPSE       51.20 TCPU     1321.59
 TTTTTTTTTTTTTTTTTTTTTTTTTTTTTT SHELLXN     TELAPSE       57.99 TCPU     1537.90
 TTTTTTTTTTTTTTTTTTTTTTTTTTTTTT MONMO3      TELAPSE       58.12 TCPU     1542.29
 NUMERICALLY INTEGRATED DENSITY    197.9999869034
 TTTTTTTTTTTTTTTTTTTTTTTTTTTTTT NUMDFT      TELAPSE       58.69 TCPU     1560.37
 CYC   5 ETOT(AU) -1.289111816210E+03 DETOT -9.46E-04 tst  7.11E-06 PX  6.39E-03
 TTTTTTTTTTTTTTTTTTTTTTTTTTTTTT DIIS        TELAPSE       58.76 TCPU     1562.57
 DIIS TEST: 0.58393E-04 AT SCF   CYCLE   5 - DIIS ACTIVE - HISTORY:     5 CYCLES
 TTTTTTTTTTTTTTTTTTTTTTTTTTTTTT FDIK        TELAPSE       59.26 TCPU     1578.49
 INSULATING STATE
 TOP OF VALENCE BANDS -    BAND     99; K   17; EIG -2.4615256E-01 AU
 TOP OF VALENCE BANDS -    BAND     99; K    1; EIG -2.4920102E-01 AU
 BOTTOM OF VIRTUAL BANDS - BAND    100; K   17; EIG -8.5774574E-02 AU
 DIRECT ENERGY BAND GAP:   4.3641 eV
 BOTTOM OF VIRTUAL BANDS - BAND    100; K    1; EIG -8.3075272E-02 AU
 TTTTTTTTTTTTTTTTTTTTTTTTTTTTTT PDIG        TELAPSE       59.57 TCPU     1584.65
 CHARGE NORMALIZATION FACTOR   1.00000000
 TOTAL ATOMIC CHARGES:
   4.4891248   4.5063621   4.5063788   4.5061228   4.5060755   4.4889693
   0.8732454   0.8734006   0.8796286   0.8797419   0.8699132   0.8697474
   0.8699056   0.8697019   0.8796691   0.8797872   0.8732071   0.8733017
   5.9208317   6.1652390   6.1654800   6.1664768   6.1674577   5.9235663
   5.9346429   6.1701403   6.1716062   6.1708489   6.1707487   5.9362262
   5.9210079   6.1659884   6.1679207   6.1654448   6.1653936   5.9233542
   8.4870252   8.4871045   8.4923144   8.4870767   8.4926751   8.4871463
 TTTTTTTTTTTTTTTTTTTTTTTTTTTTTT MOQGAD      TELAPSE       59.61 TCPU     1584.70
 TTTTTTTTTTTTTTTTTTTTTTTTTTTTTT SHELLXN     TELAPSE       66.40 TCPU     1801.17
 TTTTTTTTTTTTTTTTTTTTTTTTTTTTTT MONMO3      TELAPSE       66.54 TCPU     1805.56
 NUMERICALLY INTEGRATED DENSITY    197.9999868979
 TTTTTTTTTTTTTTTTTTTTTTTTTTTTTT NUMDFT      TELAPSE       67.10 TCPU     1823.68
 CYC   6 ETOT(AU) -1.289111831008E+03 DETOT -1.48E-05 tst  1.01E-07 PX  8.29E-04
 TTTTTTTTTTTTTTTTTTTTTTTTTTTTTT DIIS        TELAPSE       67.17 TCPU     1825.91
 DIIS TEST: 0.15148E-04 AT SCF   CYCLE   6 - DIIS ACTIVE - HISTORY:     6 CYCLES
 TTTTTTTTTTTTTTTTTTTTTTTTTTTTTT FDIK        TELAPSE       67.66 TCPU     1841.58
 INSULATING STATE
 TOP OF VALENCE BANDS -    BAND     99; K   17; EIG -2.4615525E-01 AU
 TOP OF VALENCE BANDS -    BAND     99; K    1; EIG -2.4920189E-01 AU
 BOTTOM OF VIRTUAL BANDS - BAND    100; K   17; EIG -8.5827211E-02 AU
 DIRECT ENERGY BAND GAP:   4.3627 eV
 BOTTOM OF VIRTUAL BANDS - BAND    100; K    1; EIG -8.3108408E-02 AU
 TTTTTTTTTTTTTTTTTTTTTTTTTTTTTT PDIG        TELAPSE       67.97 TCPU     1847.75
 CHARGE NORMALIZATION FACTOR   1.00000000
 TOTAL ATOMIC CHARGES:
   4.4888550   4.5066379   4.5066618   4.5064309   4.5063714   4.4886618
   0.8731966   0.8733771   0.8795087   0.8797709   0.8697355   0.8697525
   0.8698112   0.8696231   0.8795079   0.8798578   0.8731782   0.8732579
   5.9222913   6.1654589   6.1653735   6.1672540   6.1664406   5.9223014
   5.9355446   6.1708613   6.1709556   6.1709096   6.1707621   5.9353645
   5.9223662   6.1669915   6.1666752   6.1653764   6.1655807   5.9221871
   8.4873620   8.4876269   8.4914089   8.4875820   8.4912766   8.4878529
 TTTTTTTTTTTTTTTTTTTTTTTTTTTTTT MOQGAD      TELAPSE       68.02 TCPU     1847.79
 TTTTTTTTTTTTTTTTTTTTTTTTTTTTTT SHELLXN     TELAPSE       74.80 TCPU     2064.05
 TTTTTTTTTTTTTTTTTTTTTTTTTTTTTT MONMO3      TELAPSE       74.94 TCPU     2068.44
 NUMERICALLY INTEGRATED DENSITY    197.9999868970
 TTTTTTTTTTTTTTTTTTTTTTTTTTTTTT NUMDFT      TELAPSE       75.51 TCPU     2086.54
 CYC   7 ETOT(AU) -1.289111833919E+03 DETOT -2.91E-06 tst  8.02E-08 PX  5.23E-04
 TTTTTTTTTTTTTTTTTTTTTTTTTTTTTT DIIS        TELAPSE       75.59 TCPU     2089.11
 DIIS TEST: 0.19216E-05 AT SCF   CYCLE   7 - DIIS ACTIVE - HISTORY:     7 CYCLES
 TTTTTTTTTTTTTTTTTTTTTTTTTTTTTT FDIK        TELAPSE       76.08 TCPU     2104.92
 INSULATING STATE
 TOP OF VALENCE BANDS -    BAND     99; K   17; EIG -2.4615448E-01 AU
 TOP OF VALENCE BANDS -    BAND     99; K    1; EIG -2.4920921E-01 AU
 BOTTOM OF VIRTUAL BANDS - BAND    100; K   17; EIG -8.5850965E-02 AU
 DIRECT ENERGY BAND GAP:   4.3621 eV
 BOTTOM OF VIRTUAL BANDS - BAND    100; K    1; EIG -8.3129166E-02 AU
 TTTTTTTTTTTTTTTTTTTTTTTTTTTTTT PDIG        TELAPSE       76.39 TCPU     2111.09
 CHARGE NORMALIZATION FACTOR   1.00000000
 TOTAL ATOMIC CHARGES:
   4.4888801   4.5067018   4.5067233   4.5064829   4.5064288   4.4886906
   0.8731703   0.8733414   0.8795192   0.8797141   0.8697212   0.8696732
   0.8697712   0.8695692   0.8795253   0.8797946   0.8731438   0.8732306
   5.9217083   6.1653756   6.1654027   6.1669024   6.1668496   5.9228147
   5.9351787   6.1706470   6.1712329   6.1709065   6.1708293   5.9356963
   5.9218614   6.1666009   6.1671230   6.1653968   6.1655050   5.9226221
   8.4874288   8.4876284   8.4913846   8.4875887   8.4914441   8.4877904
 TTTTTTTTTTTTTTTTTTTTTTTTTTTTTT MOQGAD      TELAPSE       76.43 TCPU     2111.13
 TTTTTTTTTTTTTTTTTTTTTTTTTTTTTT SHELLXN     TELAPSE       83.22 TCPU     2327.43
 TTTTTTTTTTTTTTTTTTTTTTTTTTTTTT MONMO3      TELAPSE       83.35 TCPU     2331.82
 NUMERICALLY INTEGRATED DENSITY    197.9999868963
 TTTTTTTTTTTTTTTTTTTTTTTTTTTTTT NUMDFT      TELAPSE       83.92 TCPU     2349.97
 CYC   8 ETOT(AU) -1.289111834151E+03 DETOT -2.32E-07 tst  1.31E-08 PX  1.49E-04
 TTTTTTTTTTTTTTTTTTTTTTTTTTTTTT DIIS        TELAPSE       84.00 TCPU     2352.51
 DIIS TEST: 0.19776E-06 AT SCF   CYCLE   8 - DIIS ACTIVE - HISTORY:     8 CYCLES
 TTTTTTTTTTTTTTTTTTTTTTTTTTTTTT FDIK        TELAPSE       84.49 TCPU     2368.20
 INSULATING STATE
 TOP OF VALENCE BANDS -    BAND     99; K   17; EIG -2.4615677E-01 AU
 TOP OF VALENCE BANDS -    BAND     99; K    1; EIG -2.4921143E-01 AU
 BOTTOM OF VIRTUAL BANDS - BAND    100; K   17; EIG -8.5846136E-02 AU
 DIRECT ENERGY BAND GAP:   4.3623 eV
 BOTTOM OF VIRTUAL BANDS - BAND    100; K    1; EIG -8.3127484E-02 AU
 TTTTTTTTTTTTTTTTTTTTTTTTTTTTTT PDIG        TELAPSE       84.80 TCPU     2374.36
 CHARGE NORMALIZATION FACTOR   1.00000000
 TOTAL ATOMIC CHARGES:
   4.4889252   4.5066638   4.5066854   4.5064475   4.5063930   4.4887361
   0.8731628   0.8733348   0.8795058   0.8797234   0.8697202   0.8696843
   0.8697723   0.8695784   0.8795154   0.8798002   0.8731379   0.8732224
   5.9218408   6.1653921   6.1654031   6.1670280   6.1667551   5.9226587
   5.9352707   6.1706890   6.1711802   6.1709245   6.1707998   5.9356126
   5.9219555   6.1667088   6.1670466   6.1653954   6.1655229   5.9225047
   8.4873474   8.4875580   8.4915654   8.4875206   8.4915781   8.4877331
 TTTTTTTTTTTTTTTTTTTTTTTTTTTTTT MOQGAD      TELAPSE       84.85 TCPU     2374.40
 TTTTTTTTTTTTTTTTTTTTTTTTTTTTTT SHELLXN     TELAPSE       91.63 TCPU     2590.77
 +++ ENERGIES IN A.U. +++
 ::: EXT EL-POLE                                  -1.2983569614543E+03
 ::: EXT EL-SPHEROPOLE                             1.4311703857863E+01
 ::: BIELET ZONE E-E                               2.0768591843131E+03
 ::: TOTAL E-E                                     7.9281392671665E+02
 ::: TOTAL E-N + N-E                              -3.4151737389080E+03
 ::: TOTAL N-N                                     1.8703677538478E+02
 ::: KINETIC ENERGY                                1.2799269226996E+03
 ::: PSEUDO TOTAL   ENERGY                        -1.1553961141069E+03
 ::: VIRIAL COEFFICIENT                            1.0511352320454E+00
 TTTTTTTTTTTTTTTTTTTTTTTTTTTTTT MONMO3      TELAPSE       91.77 TCPU     2595.16
 NUMERICALLY INTEGRATED DENSITY    197.9999868960
 EXCHANGE ENERGY: -0.126025901003E+03  CORRELATION ENERGY: -0.768981909977E+01
 TTTTTTTTTTTTTTTTTTTTTTTTTTTTTT NUMDFT      TELAPSE       92.34 TCPU     2613.27
 CYC   9 ETOT(AU) -1.289111834210E+03 DETOT -5.91E-08 tst  8.93E-10 PX  1.49E-04

 == SCF ENDED - CONVERGENCE ON ENERGY      E(AU) -1.2891118342097E+03 CYCLES   9


 ENERGY EXPRESSION=HARTREE+FOCK EXCH*0.00000+(HSESOL     EXCH)*1.00000+PBESOL     CORR


 TOTAL ENERGY(DFT)(AU)(  9) -1.2891118342097E+03 DE-5.9E-08 tester 8.9E-10
 TTTTTTTTTTTTTTTTTTTTTTTTTTTTTT EDFT        TELAPSE       92.34 TCPU     2613.28
 
 INFORMATION **** DFTD3 ENERGY **** CALCULATE DFTD3 ENERGY

           DFT-D V3(BJ)
 DF                                         hsesol3c  
 parameters
 s6       :    1.0000
 s8       :    0.0000
 a1       :    0.5196
 a2       :    4.9385
 k1 k3    :   16.0000   -4.0000
 Cutoff   :   50.2022
 CN-Cutoff:   21.1671
 ABC-Cutoff:   21.1671
 
 Edisp /kcal,au:   -24.4330 -0.03893640

 E6    /kcal :   -25.8446
 E8    /kcal :     0.0000
 E6(ABC) "   :   1.411681
 
 INFORMATION **** DFTD3 ENERGY **** NORMAL TERMINATION OF DFTD3 MODULE

 GCP ENERGY CALCULATION
  level        hsesol3c            basis:hsesol3c
  Nbf            474
  Atoms           42

  Parameters: 
  sigma     1.0000
  eta       1.4281
  alpha     0.2936
  beta      1.9467

  dmp_scal      4.0000
  dmp_exp       6.0000
 cutoffs: 
   distance [bohr] 60.0
   noise    [a.u.] 2.2E-16
 SR-damping   T
 ** gCP correction **
  Egcp:        0.0829547052 / (a.u.) ||      52.0549 / (kcal/mol)
 INFORMATION **** GCP **** NORMAL TERMINATION OF GCP MODULE

 *******************************************************************************

 DFT-D3-GCP DISPERSION AND COUNTERPOISE CORRECTION

 D3 DISPERSION ENERGY (AU)      -3.8936400246216E-02
 GCP ENERGY (AU)                 8.2954705249292E-02
 TOTAL ENERGY + DISP + GCP (AU) -1.2890678159047E+03

 *******************************************************************************

 EIGENVECTORS IN FORTRAN UNIT 10
 TTTTTTTTTTTTTTTTTTTTTTTTTTTTTT END         TELAPSE       93.49 TCPU     2620.40
 EEEEEEEEEE TERMINATION  DATE 19 02 2026 TIME 19:09:10.8
