 Default number of threads is:           32

         
 *******************************************************************************
 *                                                                             *
 *                               CRYSTAL23                                     *
 *                      public : 1.0.1 - October 2022                          *
 *                       HTTP://WWW.CRYSTAL.UNITO.IT                           *
 *                                                                             *
 *                              MAIN AUTHORS                                   *
 *                                                                             *
 *  R. DOVESI(1,11), V.R. SAUNDERS(2), C. ROETTI(1,11), R. ORLANDO(1,11),      *
 *  C.M. ZICOVICH-WILSON(1,3), F. PASCALE(4), B. CIVALLERI(1,11),              *
 *  K. DOLL(5), N.M. HARRISON(6), I.J. BUSH(7), Ph. D'ARCO(8),                 *
 *  M. LLUNELL(9), M. CAUSA'(10), Y. NOEL(8), L. MASCHIO(1,11), A. ERBA(1,11)  *
 *  M. RE'RAT(14), S. CASASSA(1,11), B.G. SEARLE(2), J.K. DESMARAIS(1)         *
 *                                                                             *
 *        CONTRIBUTIONS TO THE CODE HAVE ALSO BEEN GIVEN BY                    *
 *                                                                             *
 *  M. FERRABONE(1,11), M. DE LA PIERRE(1,11), M. FERRERO(1,11),               *
 *  J. BAIMA(1,11), E. ALBANESE(1,11), M.F. PEINTINGER(12), R. BAST(13),       *
 *  B. KIRTMAN(15), V. LACIVITA(1,11), R. DEMICHELIS(1,16)                     *
 *  G. BRANDEBURG(17), S. SALUSTRO(1,11), G. SANSONE(1,11)                     *
 *  M.T. RUGGIERO(18), L.E. DAGA(1), L. DONA'(1), A. COSSARD(1)                *
 *                                                                             *
 * (1) THEORETICAL CHEMISTRY GROUP - UNIVERSITA' DI TORINO - TORINO (ITALY)    *
 * (2) SCIENTIFIC COMPUTING DEPARTMENT - STFC DARESBURY (UK)                   *
 * (3) UNIVERSIDAD AUTONOMA DEL ESTADO DE MORELOS - CUERNAVACA (MEXICO)        *
 * (4) UNIVERSITE' DE LORRAINE - NANCY (FRANCE)                                *
 * (5) UNIVERSITAET STUTTGART- STUTTGART (GERMANY)                             *
 * (6) IMPERIAL COLLEGE - LONDON (UK)                                          *
 * (7) SCIENTIFIC COMPUTING DEPARTMENT - STFC RAL (UK)                         *
 * (8) UPMC - SORBONNE UNIVERSITES - PARIS (FRANCE)                            *
 * (9) UNIVERSIDAD DE BARCELONA - BARCELONA (SPAIN)                            *
 *(10) UNIVERSITA' DI NAPOLI "FEDERICO II" - NAPOLI (ITALY)                    *
 *(11) NIS - NANOSTRUCTURED INTERFACES AND SURFACES - TORINO (ITALY)           *
 *(12) MPI FUER CHEMISCHE ENERGIEKONVERSION - MUELHEIM AN DER RUHR (GERMANY)   *
 *(13) UNIVERSITY OF TROMSO - TROMSO (NORWAY)                                  *
 *(14) UNIVERSITE' DE PAU ET DES PAYS DE L'ADOUR - PAU (FRANCE)                *
 *(15) UNIVERSITY OF CALIFORNIA SANTA BARBARA - SANTA BARBARA (USA)            *
 *(16) CURTIN UNIVERSITY - PERTH (AUSTRALIA)                                   *
 *(17) UNIVERSITY COLLEGE LONDON - LONDON (UK)                                 *
 *(18) UNIVERSITY OF VERMONT - BURLINGTON (USA)                                *
 *                                                                             *
 *******************************************************************************
 EEEEEEEEEE STARTING  DATE 19 02 2026 TIME 17:52:52.3
 cof-1_z31_L040_incl                                                             

 CRYSTAL CALCULATION
 (INPUT ACCORDING TO THE INTERNATIONAL TABLES FOR X-RAY CRYSTALLOGRAPHY)
 CRYSTAL FAMILY                       :  TRICLINIC   
 CRYSTAL CLASS  (GROTH - 1921)        :  TRICLINIC PEDIAL                     

 SPACE GROUP (NONCENTROSYMMETRIC)     :  P 1             

 LATTICE PARAMETERS  (ANGSTROMS AND DEGREES) - CONVENTIONAL CELL
        A           B           C        ALPHA        BETA       GAMMA
    15.02361    15.02392     5.06063    46.80025    89.99997   119.99596


 NUMBER OF IRREDUCIBLE ATOMS IN THE CONVENTIONAL CELL:   42

 INPUT COORDINATES

 ATOM AT. N.              COORDINATES
   1   5     5.365977500000E-01  7.313697000000E-02  5.015370400000E-01
   2   5     6.956534100000E-01  2.321966300000E-01  5.015370600000E-01
   3   5     5.370914000000E-01  2.331753600000E-01  4.982973500000E-01
   4   5     1.501724600000E-01  4.594519700000E-01  5.015370500000E-01
   5   5     3.092804300000E-01  4.594312000000E-01  5.015370400000E-01
   6   5     3.097586300000E-01  6.195663400000E-01  4.982973500000E-01
   7   1     8.269931200000E-01  1.568135900000E-01  4.948204700000E-01
   8   1     2.074189000000E-02  5.392527200000E-01  4.937934000000E-01
   9   1     8.271030700000E-01  4.423203100000E-01  4.936353300000E-01
  10   1     2.086177000000E-02  2.539207000000E-01  4.936747500000E-01
  11   1     6.133909600000E-01 -5.829455000000E-02  5.051719100000E-01
  12   1     2.311304100000E-01  7.478228800000E-01  5.061990700000E-01
  13   1     3.280463700000E-01 -5.861308000000E-02  5.063572300000E-01
  14   1     5.164946900000E-01  7.476964700000E-01  5.063175300000E-01
  15   1     6.150222300000E-01  4.419377300000E-01  4.948205300000E-01
  16   1     2.330692000000E-01  2.538086300000E-01  4.937933300000E-01
  17   1     3.299722400000E-01  1.570711700000E-01  4.936352000000E-01
  18   1     5.184164500000E-01  5.391936500000E-01  4.936748800000E-01
  19   6     8.153236600000E-01  2.927948300000E-01  4.981788000000E-01
  20   6     8.704143200000E-01  2.406205800000E-01  4.949785400000E-01
  21   6    -2.264418000000E-02  4.551052400000E-01  4.947020700000E-01
  22   6     8.702922900000E-01  4.013570700000E-01  4.955317600000E-01
  23   6    -2.240556000000E-02  2.945707500000E-01  4.933981900000E-01
  24   6     3.187001000000E-02  4.016883800000E-01  4.955712300000E-01
  25   6     4.769141200000E-01 -4.609782000000E-02  5.018136300000E-01
  26   6     5.295607000000E-01 -1.016941300000E-01  5.050138300000E-01
  27   6     3.151390200000E-01  7.913280600000E-01  5.052904000000E-01
  28   6     3.687554400000E-01 -1.014771900000E-01  5.044607500000E-01
  29   6     4.758568200000E-01  7.908876700000E-01  5.065941500000E-01
  30   6     3.684018500000E-01  7.369241800000E-01  5.044211900000E-01
  31   6     4.774782200000E-01  2.927256900000E-01  4.981788000000E-01
  32   6     5.311354200000E-01  4.014607100000E-01  4.949786000000E-01
  33   6     3.167910800000E-01  2.940919900000E-01  4.947020100000E-01
  34   6     3.701274600000E-01  2.403549000000E-01  4.955316700000E-01
  35   6     4.779110400000E-01  4.554187500000E-01  4.933982700000E-01
  36   6     3.697941000000E-01  4.016109800000E-01  4.955712300000E-01
  37   8     4.840182300000E-01  1.269181200000E-01  4.991665200000E-01
  38   8     6.419127500000E-01  1.248246200000E-01  5.060015300000E-01
  39   8     6.434953200000E-01  2.869397600000E-01  4.956897900000E-01
  40   8     2.036060500000E-01  5.661985900000E-01  4.991665600000E-01
  41   8     2.025750200000E-01  4.051419000000E-01  5.060015300000E-01
  42   8     3.630797400000E-01  5.672517300000E-01  4.956897600000E-01

 *******************************************************************************

 << INFORMATION >>: FROM NOW ON, ALL COORDINATES REFER TO THE PRIMITIVE CELL

 *******************************************************************************

 LATTICE PARAMETERS  (ANGSTROMS AND DEGREES) - PRIMITIVE CELL
       A          B          C        ALPHA      BETA     GAMMA        VOLUME
   15.02361   15.02392    5.06063    46.80025  89.99997 119.99596    605.997392

 COORDINATES OF THE EQUIVALENT ATOMS (FRACTIONAL UNITS)

 N. ATOM EQUIV AT. N.          X                  Y                  Z

   1   1   1    5 B    -4.63402250000E-01  7.31369700000E-02 -4.98462960000E-01

   2   2   1    5 B    -3.04346590000E-01  2.32196630000E-01 -4.98462940000E-01

   3   3   1    5 B    -4.62908600000E-01  2.33175360000E-01  4.98297350000E-01

   4   4   1    5 B     1.50172460000E-01  4.59451970000E-01 -4.98462950000E-01

   5   5   1    5 B     3.09280430000E-01  4.59431200000E-01 -4.98462960000E-01

   6   6   1    5 B     3.09758630000E-01 -3.80433660000E-01  4.98297350000E-01

   7   7   1    1 H    -1.73006880000E-01  1.56813590000E-01  4.94820470000E-01

   8   8   1    1 H     2.07418900000E-02 -4.60747280000E-01  4.93793400000E-01

   9   9   1    1 H    -1.72896930000E-01  4.42320310000E-01  4.93635330000E-01

  10  10   1    1 H     2.08617700000E-02  2.53920700000E-01  4.93674750000E-01

  11  11   1    1 H    -3.86609040000E-01 -5.82945500000E-02 -4.94828090000E-01

  12  12   1    1 H     2.31130410000E-01 -2.52177120000E-01 -4.93800930000E-01

  13  13   1    1 H     3.28046370000E-01 -5.86130800000E-02 -4.93642770000E-01

  14  14   1    1 H    -4.83505310000E-01 -2.52303530000E-01 -4.93682470000E-01

  15  15   1    1 H    -3.84977770000E-01  4.41937730000E-01  4.94820530000E-01

  16  16   1    1 H     2.33069200000E-01  2.53808630000E-01  4.93793330000E-01

  17  17   1    1 H     3.29972240000E-01  1.57071170000E-01  4.93635200000E-01

  18  18   1    1 H    -4.81583550000E-01 -4.60806350000E-01  4.93674880000E-01

  19  19   1    6 C    -1.84676340000E-01  2.92794830000E-01  4.98178800000E-01

  20  20   1    6 C    -1.29585680000E-01  2.40620580000E-01  4.94978540000E-01

  21  21   1    6 C    -2.26441800000E-02  4.55105240000E-01  4.94702070000E-01

  22  22   1    6 C    -1.29707710000E-01  4.01357070000E-01  4.95531760000E-01

  23  23   1    6 C    -2.24055600000E-02  2.94570750000E-01  4.93398190000E-01

  24  24   1    6 C     3.18700100000E-02  4.01688380000E-01  4.95571230000E-01

  25  25   1    6 C     4.76914120000E-01 -4.60978200000E-02 -4.98186370000E-01

  26  26   1    6 C    -4.70439300000E-01 -1.01694130000E-01 -4.94986170000E-01

  27  27   1    6 C     3.15139020000E-01 -2.08671940000E-01 -4.94709600000E-01

  28  28   1    6 C     3.68755440000E-01 -1.01477190000E-01 -4.95539250000E-01

  29  29   1    6 C     4.75856820000E-01 -2.09112330000E-01 -4.93405850000E-01

  30  30   1    6 C     3.68401850000E-01 -2.63075820000E-01 -4.95578810000E-01

  31  31   1    6 C     4.77478220000E-01  2.92725690000E-01  4.98178800000E-01

  32  32   1    6 C    -4.68864580000E-01  4.01460710000E-01  4.94978600000E-01

  33  33   1    6 C     3.16791080000E-01  2.94091990000E-01  4.94702010000E-01

  34  34   1    6 C     3.70127460000E-01  2.40354900000E-01  4.95531670000E-01

  35  35   1    6 C     4.77911040000E-01  4.55418750000E-01  4.93398270000E-01

  36  36   1    6 C     3.69794100000E-01  4.01610980000E-01  4.95571230000E-01

  37  37   1    8 O     4.84018230000E-01  1.26918120000E-01  4.99166520000E-01

  38  38   1    8 O    -3.58087250000E-01  1.24824620000E-01 -4.93998470000E-01

  39  39   1    8 O    -3.56504680000E-01  2.86939760000E-01  4.95689790000E-01

  40  40   1    8 O     2.03606050000E-01 -4.33801410000E-01  4.99166560000E-01

  41  41   1    8 O     2.02575020000E-01  4.05141900000E-01 -4.93998470000E-01

  42  42   1    8 O     3.63079740000E-01 -4.32748270000E-01  4.95689760000E-01

 NUMBER OF SYMMETRY OPERATORS         :    1
 *******************************************************************************
 * GEOMETRY EDITING - INPUT COORDINATES ARE GIVEN IN ANGSTROM         
 *******************************************************************************

 GCALCO - MAX INDICES DIRECT LATTICE VECTOR     8    12    31
 NO.OF VECTORS CREATED 6999 STARS 3500 RMAX   190.27524 BOHR

 GEOMETRY FOR WAVE FUNCTION - DIMENSIONALITY OF THE SYSTEM    3
 (NON PERIODIC DIRECTION: LATTICE PARAMETER FORMALLY SET TO 500)
 *******************************************************************************
 LATTICE PARAMETERS (ANGSTROMS AND DEGREES) - BOHR = 0.5291772083 ANGSTROM
 PRIMITIVE CELL - CENTRING CODE 1/0 VOLUME=   605.997392 - DENSITY  1.069 g/cm^3
         A              B              C           ALPHA      BETA       GAMMA 
    15.02361100    15.02391600     5.06063200    46.800252  89.999965 119.995964
 *******************************************************************************
 ATOMS IN THE ASYMMETRIC UNIT   42 - ATOMS IN THE UNIT CELL:   42
     ATOM                 X/A                 Y/B                 Z/C    
 *******************************************************************************
      1 T   5 B    -4.634022500000E-01  7.313697000000E-02 -4.984629600000E-01
      2 T   5 B    -3.043465900000E-01  2.321966300000E-01 -4.984629400000E-01
      3 T   5 B    -4.629086000000E-01  2.331753600000E-01  4.982973500000E-01
      4 T   5 B     1.501724600000E-01  4.594519700000E-01 -4.984629500000E-01
      5 T   5 B     3.092804300000E-01  4.594312000000E-01 -4.984629600000E-01
      6 T   5 B     3.097586300000E-01 -3.804336600000E-01  4.982973500000E-01
      7 T   1 H    -1.730068800000E-01  1.568135900000E-01  4.948204700000E-01
      8 T   1 H     2.074189000000E-02 -4.607472800000E-01  4.937934000000E-01
      9 T   1 H    -1.728969300000E-01  4.423203100000E-01  4.936353300000E-01
     10 T   1 H     2.086177000000E-02  2.539207000000E-01  4.936747500000E-01
     11 T   1 H    -3.866090400000E-01 -5.829455000000E-02 -4.948280900000E-01
     12 T   1 H     2.311304100000E-01 -2.521771200000E-01 -4.938009300000E-01
     13 T   1 H     3.280463700000E-01 -5.861308000000E-02 -4.936427700000E-01
     14 T   1 H    -4.835053100000E-01 -2.523035300000E-01 -4.936824700000E-01
     15 T   1 H    -3.849777700000E-01  4.419377300000E-01  4.948205300000E-01
     16 T   1 H     2.330692000000E-01  2.538086300000E-01  4.937933300000E-01
     17 T   1 H     3.299722400000E-01  1.570711700000E-01  4.936352000000E-01
     18 T   1 H    -4.815835500000E-01 -4.608063500000E-01  4.936748800000E-01
     19 T   6 C    -1.846763400000E-01  2.927948300000E-01  4.981788000000E-01
     20 T   6 C    -1.295856800000E-01  2.406205800000E-01  4.949785400000E-01
     21 T   6 C    -2.264418000000E-02  4.551052400000E-01  4.947020700000E-01
     22 T   6 C    -1.297077100000E-01  4.013570700000E-01  4.955317600000E-01
     23 T   6 C    -2.240556000000E-02  2.945707500000E-01  4.933981900000E-01
     24 T   6 C     3.187001000000E-02  4.016883800000E-01  4.955712300000E-01
     25 T   6 C     4.769141200000E-01 -4.609782000000E-02 -4.981863700000E-01
     26 T   6 C    -4.704393000000E-01 -1.016941300000E-01 -4.949861700000E-01
     27 T   6 C     3.151390200000E-01 -2.086719400000E-01 -4.947096000000E-01
     28 T   6 C     3.687554400000E-01 -1.014771900000E-01 -4.955392500000E-01
     29 T   6 C     4.758568200000E-01 -2.091123300000E-01 -4.934058500000E-01
     30 T   6 C     3.684018500000E-01 -2.630758200000E-01 -4.955788100000E-01
     31 T   6 C     4.774782200000E-01  2.927256900000E-01  4.981788000000E-01
     32 T   6 C    -4.688645800000E-01  4.014607100000E-01  4.949786000000E-01
     33 T   6 C     3.167910800000E-01  2.940919900000E-01  4.947020100000E-01
     34 T   6 C     3.701274600000E-01  2.403549000000E-01  4.955316700000E-01
     35 T   6 C     4.779110400000E-01  4.554187500000E-01  4.933982700000E-01
     36 T   6 C     3.697941000000E-01  4.016109800000E-01  4.955712300000E-01
     37 T   8 O     4.840182300000E-01  1.269181200000E-01  4.991665200000E-01
     38 T   8 O    -3.580872500000E-01  1.248246200000E-01 -4.939984700000E-01
     39 T   8 O    -3.565046800000E-01  2.869397600000E-01  4.956897900000E-01
     40 T   8 O     2.036060500000E-01 -4.338014100000E-01  4.991665600000E-01
     41 T   8 O     2.025750200000E-01  4.051419000000E-01 -4.939984700000E-01
     42 T   8 O     3.630797400000E-01 -4.327482700000E-01  4.956897600000E-01

 T = ATOM BELONGING TO THE ASYMMETRIC UNIT

 ****    1 SYMMOPS - TRANSLATORS IN FRACTIONAL UNITS
 **** MATRICES AND TRANSLATORS IN THE CRYSTALLOGRAPHIC REFERENCE FRAME
   V INV                    ROTATION MATRICES                   TRANSLATORS
   1   1  1.00  0.00  0.00  0.00  1.00  0.00  0.00  0.00  1.00  0.00  0.00  0.00

 DIRECT LATTICE VECTORS CARTESIAN COMPONENTS (ANGSTROM)
          X                    Y                    Z
   0.130113578931E+02  -0.751088897922E+01   0.000000000000E+00
   0.000000000000E+00   0.150239160000E+02   0.000000000000E+00
   0.199974931613E+01   0.346422476448E+01   0.310002349882E+01


 CARTESIAN COORDINATES - PRIMITIVE CELL
 *******************************************************************************
 *      ATOM          X(ANGSTROM)         Y(ANGSTROM)         Z(ANGSTROM)
 *******************************************************************************
    1     5 B    -7.026293486573E+00  2.852578816034E+00 -1.545246889290E+00
    2     5 B    -4.956763329401E+00  4.047628452371E+00 -1.545246827289E+00
    3     5 B    -3.026850365355E+00 -2.853415091537E+00  4.644756993215E+00
    4     5 B     9.571466793632E-01  4.048051432952E+00 -1.545246858289E+00
    5     5 B     3.027357400673E+00  2.852697053196E+00 -1.545246889290E+00
    6     5 B     3.027100864156E+00  5.243739223767E+00 -1.555290004419E+00
    7     1 H    -3.261286853280E+00  1.905334233803E+00 -1.566068414121E+00
    8     1 H     1.257343168127E+00 -5.367407140140E+00  1.530771143561E+00
    9     1 H     7.372723948711E-01 -1.905634672097E+00  4.630304621663E+00
   10     1 H    -7.410836166731E-01  1.904168359148E+00 -1.569620173044E+00
   11     1 H    -4.020091402582E+00  3.777994196287E+00  1.566044791942E+00
   12     1 H     4.019591728536E+00 -3.771095363181E+00  1.569229012079E+00
   13     1 H     5.280916249997E+00 -1.590382599685E+00  1.569719311796E+00
   14     1 H    -5.278552497242E+00  1.594965389166E+00  1.569596240863E+00
   15     1 H    -2.019817213740E+00 -3.143610788300E-01  4.633978769514E+00
   16     1 H     2.020260332897E+00  3.090289693600E-01 -1.569252572258E+00
   17     1 H     3.280784246902E+00 -1.872722276784E+00 -1.569742778974E+00
   18     1 H    -5.278829920789E+00 -1.595794571501E+00  1.530403728776E+00
   19     6 C    -3.406406555638E+00  4.047586989600E+00 -1.555657512204E+00
   20     6 C    -2.696001979560E+00  2.838859189240E+00 -1.565578393407E+00
   21     6 C    -1.305100720133E+00  5.257075216377E+00 -1.566435456903E+00
   22     6 C     1.303015178009E+00 -2.838882725693E+00  4.636183599227E+00
   23     6 C    -1.304603383051E+00  2.838909341800E+00 -1.570477515543E+00
   24     6 C    -5.940589816774E-01  4.048105735468E+00 -1.563741040479E+00
   25     6 C     7.208801762988E+00 -2.536223579203E+00  1.555634045027E+00
   26     6 C    -5.111153038081E+00  3.755054703239E+00  1.565554740227E+00
   27     6 C     1.111342074877E+00  4.343862097614E+00 -4.633634883907E+00
   28     6 C     5.806804044677E+00 -2.546700525939E+00  1.563840179231E+00
   29     6 C     3.205106063633E+00  3.134628645500E+00 -4.629593228270E+00
   30     6 C     1.802625616301E+00  3.123440432763E+00 -4.636329455332E+00
   31     6 C     5.209123405041E+00 -9.268211511942E-01 -1.555657512204E+00
   32     6 C    -3.110982420782E+00 -2.918723205011E-01  4.634468790228E+00
   33     6 C     3.111412809265E+00  2.885649121455E-01 -1.566435642905E+00
   34     6 C     3.807050650182E+00 -9.165061141142E-01 -1.563863677409E+00
   35     6 C     5.205195119366E+00  1.497654022647E+00 -1.570477267541E+00
   36     6 C     3.802792293998E+00  1.508832560977E+00 -1.563741040479E+00
   37     8 O     5.296193008170E+00 -3.463599759987E+00 -1.552595556994E+00
   38     8 O    -5.647074469241E+00  2.853586451844E+00 -1.531406865379E+00
   39     8 O    -1.647605347338E+00 -2.853884466147E+00  4.636673495940E+00
   40     8 O     1.647649856608E+00  5.242258012703E+00 -1.552595432993E+00
   41     8 O     1.647902982862E+00  2.853977655107E+00 -1.531406865379E+00
   42     8 O     3.715666383302E+00  4.048246702242E+00 -1.563373594694E+00

 *******************************************************************************
 STARTING BASIS SET HANDLING 
 *******************************************************************************

 Loading internal basis set: SOLDEF2MSVP         

 Please cite in your publication:
 L. Dona', J. G. Brandenburg and B. Civalleri, J. Chem. Phys., 151, 121101 (2019
 )                                                                              
                                                                                
                    

 *******************************************************************************
 LOCAL ATOMIC FUNCTIONS BASIS SET
 *******************************************************************************
   ATOM   X(AU)   Y(AU)   Z(AU)  N. TYPE  EXPONENT  S COEF   P COEF   D/F/G COEF
 *******************************************************************************
   1 B  -13.278   5.391  -2.920
                                  1 S  
                                         2.410E+03 1.755E-03 0.000E+00 0.000E+00
                                         3.619E+02 1.344E-02 0.000E+00 0.000E+00
                                         8.231E+01 6.637E-02 0.000E+00 0.000E+00
                                         2.311E+01 2.303E-01 0.000E+00 0.000E+00
                                         7.252E+00 5.150E-01 0.000E+00 0.000E+00
                                  2 S  
                                         2.367E+00 1.000E+00 0.000E+00 0.000E+00
                                  3 S  
                                         5.533E-01 1.000E+00 0.000E+00 0.000E+00
                                  4 S  
                                         1.716E-01 1.000E+00 0.000E+00 0.000E+00
                           5-     7 P  
                                         6.002E+00 0.000E+00-3.555E-02 0.000E+00
                                         1.240E+00 0.000E+00-1.983E-01 0.000E+00
                                         3.367E-01 0.000E+00-5.048E-01 0.000E+00
                           8-    10 P  
                                         1.256E-01 0.000E+00 1.000E+00 0.000E+00
                          11-    15 D  
                                         8.880E-01 0.000E+00 0.000E+00 1.000E+00
   2 B   -9.367   7.649  -2.920
   3 B   -5.720  -5.392   8.777
   4 B    1.809   7.650  -2.920
   5 B    5.721   5.391  -2.920
   6 B    5.720   9.909  -2.939
   7 H   -6.163   3.601  -2.959
                                 91 S  
                                         1.874E+01 1.968E-02 0.000E+00 0.000E+00
                                         2.826E+00 1.380E-01 0.000E+00 0.000E+00
                                         6.401E-01 4.783E-01 0.000E+00 0.000E+00
                                 92 S  
                                         1.756E-01 1.000E+00 0.000E+00 0.000E+00
   8 H    2.376 -10.143   2.893
   9 H    1.393  -3.601   8.750
  10 H   -1.400   3.598  -2.966
  11 H   -7.597   7.139   2.959
  12 H    7.596  -7.126   2.965
  13 H    9.979  -3.005   2.966
  14 H   -9.975   3.014   2.966
  15 H   -3.817  -0.594   8.757
  16 H    3.818   0.584  -2.965
  17 H    6.200  -3.539  -2.966
  18 H   -9.976  -3.016   2.892
  19 C   -6.437   7.649  -2.940
                                115 S  
                                         3.624E+03 1.634E-03 0.000E+00 0.000E+00
                                         5.440E+02 1.252E-02 0.000E+00 0.000E+00
                                         1.237E+02 6.211E-02 0.000E+00 0.000E+00
                                         3.476E+01 2.182E-01 0.000E+00 0.000E+00
                                         1.093E+01 4.980E-01 0.000E+00 0.000E+00
                                116 S  
                                         3.574E+00 1.000E+00 0.000E+00 0.000E+00
                                117 S  
                                         7.742E-01 1.000E+00 0.000E+00 0.000E+00
                                118 S  
                                         2.330E-01 1.000E+00 0.000E+00 0.000E+00
                         119-   121 P  
                                         9.443E+00 0.000E+00 3.790E-02 0.000E+00
                                         2.002E+00 0.000E+00 2.082E-01 0.000E+00
                                         5.463E-01 0.000E+00 5.047E-01 0.000E+00
                         122-   124 P  
                                         1.820E-01 0.000E+00 1.000E+00 0.000E+00
                         125-   129 D  
                                         8.880E-01 0.000E+00 0.000E+00 1.000E+00
  20 C   -5.095   5.365  -2.959
  21 C   -2.466   9.934  -2.960
  22 C    2.462  -5.365   8.761
  23 C   -2.465   5.365  -2.968
  24 C   -1.123   7.650  -2.955
  25 C   13.623  -4.793   2.940
  26 C   -9.659   7.096   2.958
  27 C    2.100   8.209  -8.756
  28 C   10.973  -4.813   2.955
  29 C    6.057   5.924  -8.749
  30 C    3.406   5.902  -8.761
  31 C    9.844  -1.751  -2.940
  32 C   -5.879  -0.552   8.758
  33 C    5.880   0.545  -2.960
  34 C    7.194  -1.732  -2.955
  35 C    9.836   2.830  -2.968
  36 C    7.186   2.851  -2.955
  37 O   10.008  -6.545  -2.934
                                385 S  
                                         6.773E+03 1.727E-03 0.000E+00 0.000E+00
                                         1.017E+03 1.325E-02 0.000E+00 0.000E+00
                                         2.313E+02 6.603E-02 0.000E+00 0.000E+00
                                         6.501E+01 2.353E-01 0.000E+00 0.000E+00
                                         2.050E+01 5.498E-01 0.000E+00 0.000E+00
                                386 S  
                                         6.716E+00 1.000E+00 0.000E+00 0.000E+00
                                387 S  
                                         1.147E+00 1.000E+00 0.000E+00 0.000E+00
                                388 S  
                                         3.342E-01 1.000E+00 0.000E+00 0.000E+00
                         389-   391 P  
                                         1.769E+01 0.000E+00 4.359E-02 0.000E+00
                                         3.854E+00 0.000E+00 2.318E-01 0.000E+00
                                         1.047E+00 0.000E+00 5.146E-01 0.000E+00
                         392-   394 P  
                                         2.759E-01 0.000E+00 1.000E+00 0.000E+00
                         395-   399 D  
                                         8.000E-01 0.000E+00 0.000E+00 1.000E+00
  38 O  -10.671   5.392  -2.894
  39 O   -3.114  -5.393   8.762
  40 O    3.114   9.906  -2.934
  41 O    3.114   5.393  -2.894
  42 O    7.022   7.650  -2.954

 *******************************************************************************
 FINISHED BASIS SET HANDLING 
 *******************************************************************************

 INFORMATION **** SET_MPP **** PCRYSTAL CALCULATION
 INFORMATION **** READM2 **** NEW DEFAULT: FOCK/KS MATRIX MIXING SET TO 30 %
 INFORMATION **** READM2 **** NEW DEFAULT: FULL DIRECT SCF MODE
 INFORMATION **** READM2 **** NEW DEFAULT: COULOMB BIPOLAR BUFFER SET TO 32 Mb
 INFORMATION **** READM2 **** NEW DEFAULT: EXCHANGE BIPOLAR BUFFER SET TO 32 Mb

 *******************************************************************************
 NEW DEFAULT: DFT INTEGRATION GRID INCREASED TO XLGRID
 NEW DEFAULT: DIIS ACCELERATOR ACTIVE
 USE KEYWORD NODIIS TO TURN IT OFF
 *******************************************************************************

 WARNING **** RDDFTP **** HSEsol-HJS ACTIVE
 RANGE SEPARATION - OMEGA:   0.110000000000000     
 WARNING **** RDDFTP **** HSEsol-3c has to be combined with sol-def2-mSVP basis set
 *******************************************************************************
 N. OF ATOMS PER CELL        42  COULOMB OVERLAP TOL         (T1) 10**   -6
 NUMBER OF SHELLS           234  COULOMB PENETRATION TOL     (T2) 10**   -6
 NUMBER OF AO               474  EXCHANGE OVERLAP TOL        (T3) 10**   -6
 N. OF ELECTRONS PER CELL   198  EXCHANGE PSEUDO OVP (F(G))  (T4) 10**   -6
 CORE ELECTRONS PER CELL     60  EXCHANGE PSEUDO OVP (P(G))  (T5) 10**  -12
 N. OF SYMMETRY OPERATORS     1  POLE ORDER IN MONO ZONE                  4
 *******************************************************************************
 TYPE OF CALCULATION :  RESTRICTED CLOSED SHELL
 KOHN-SHAM HAMILTONIAN

 (EXCHANGE)[CORRELATION] FUNCTIONAL:(HSEsol GGA)[PBEsol]

 RANGE-SEPARATED HYBRID FUNCTIONAL 
 OMEGA (SHORT-RANGE)[LONG-RANGE]:(    0.1100)[    0.0000]

 HYBRID EXCHANGE - PERCENTAGE OF FOCK EXCHANGE    25.0000

 CAPPA:IS1  2;IS2  2;IS3  8; K PTS MONK NET  20; SYMMOPS:K SPACE   2;G SPACE   1

 *******************************************************************************
 MAX NUMBER OF SCF CYCLES      50  CONVERGENCE ON DELTAP        10**-16
 WEIGHT OF F(I) IN F(I+1)      30% CONVERGENCE ON ENERGY        10**- 6
 SHRINK. FACT.(MONKH.)    2  2  8  NUMBER OF K POINTS IN THE IBZ     20
 SHRINKING FACTOR(GILAT NET)    8  NUMBER OF K POINTS(GILAT NET)   1028
 *******************************************************************************
 *** K POINTS COORDINATES (OBLIQUE COORDINATES IN UNITS OF IS =  2)
   1-R(  0  0  0)   2-R(  1  0  0)   3-R(  0  1  0)   4-R(  1  1  0)
   5-C(  0  0  1)   6-C(  1  0  1)   7-C(  0  1  1)   8-C(  1  1  1)
   9-C(  0  0  2)  10-C(  1  0  2)  11-C(  0  1  2)  12-C(  1  1  2)
  13-C(  0  0  3)  14-C(  1  0  3)  15-C(  0  1  3)  16-C(  1  1  3)
  17-R(  0  0  4)  18-R(  1  0  4)  19-R(  0  1  4)  20-R(  1  1  4)

 DIRECT LATTICE VECTORS COMPON. (A.U.)     RECIP. LATTICE VECTORS COMPON. (A.U.) 
        X            Y            Z              X            Y            Z
   24.5879030  -14.1935232    0.0000000      0.2555397    0.0000000   -0.1648424
    0.0000000   28.3910867    0.0000000      0.1277517    0.2213084   -0.3297179
    3.7789785    6.5464361    5.8581954      0.0000000    0.0000000    1.0725462

 DISK SPACE FOR EIGENVECTORS (FTN 10)     7189632 REALS

 SYMMETRY ADAPTION OF THE BLOCH FUNCTIONS DISABLED
 TTTTTTTTTTTTTTTTTTTTTTTTTTTTTT gordsh1     TELAPSE        0.04 TCPU        0.04

 MATRIX SIZE: P(G)  394592, F(G)   78936, P(G) IRR  198709, F(G) IRR   79596
 MAX G-VECTOR INDEX FOR 1- AND 2-ELECTRON INTEGRALS  55

 TTTTTTTTTTTTTTTTTTTTTTTTTTTTTT INPUT       TELAPSE        0.39 TCPU        0.39

 NEIGHBORS OF THE NON-EQUIVALENT ATOMS

 N = NUMBER OF NEIGHBORS AT DISTANCE R
    ATOM  N     R/ANG      R/AU   NEIGHBORS (ATOM LABELS AND CELL INDICES)
   1 B    1     1.3791     2.6061   37 O   -1 0 0
   1 B    1     1.3793     2.6065   38 O    0 0 0
   1 B    1     1.5503     2.9297   25 C   -1 0-1
   1 B    1     2.3895     4.5155    3 B    0 1-2
   1 B    1     2.3898     4.5160    2 B    0 0 0
   1 B    1     2.5632     4.8437   26 C    0 0-1

   2 B    1     1.3793     2.6065   39 O    0 1-2
   2 B    1     1.3793     2.6065   38 O    0 0 0
   2 B    1     1.5504     2.9298   19 C    0 0 0
   2 B    1     2.3895     4.5156    3 B    0 1-2
   2 B    1     2.3898     4.5160    1 B    0 0 0
   2 B    1     2.5634     4.8440   22 C    0 1-2

   3 B    1     1.3791     2.6061   37 O   -1-1 2
   3 B    1     1.3793     2.6064   39 O    0 0 0
   3 B    1     1.5502     2.9294   31 C   -1-1 2
   3 B    1     2.3895     4.5155    1 B    0-1 2
   3 B    1     2.3895     4.5156    2 B    0-1 2
   3 B    1     2.5629     4.8433   32 C    0 0 0

   4 B    1     1.3795     2.6068   40 O    0 0 0
   4 B    1     1.3795     2.6070   41 O    0 0 0
   4 B    1     1.5513     2.9316   24 C    0 0 0
   4 B    1     2.3905     4.5174    6 B    0 0 0
   4 B    1     2.3905     4.5175    5 B    0 0 0
   4 B    1     2.5648     4.8468   23 C    0 0 0

   5 B    1     1.3795     2.6069   41 O    0 0 0
   5 B    1     1.3797     2.6072   42 O    0 0 0
   5 B    1     1.5516     2.9322   36 C    0 0 0
   5 B    1     2.3905     4.5175    4 B    0 0 0
   5 B    1     2.3911     4.5185    6 B    0 0 0
   5 B    1     2.5651     4.8473   35 C    0 0 0

   6 B    1     1.3795     2.6068   40 O    0 0 0
   6 B    1     1.3796     2.6071   42 O    0 0 0
   6 B    1     1.5516     2.9322   30 C    0 0 1
   6 B    1     2.3905     4.5174    4 B    0 0 0
   6 B    1     2.3911     4.5185    5 B    0 0 0
   6 B    1     2.5651     4.8473   29 C    0 0 1

   7 H    1     1.0913     2.0623   20 C    0 0 0
   7 H    1     2.1472     4.0576   19 C    0 0 0
   7 H    1     2.1680     4.0969   23 C    0 0 0
   7 H    1     2.5202     4.7625   10 H    0 0 0
   7 H    1     2.5676     4.8520   38 O    0 0 0
   7 H    1     2.7321     5.1630    2 B    0 0 0

   8 H    1     1.0914     2.0625   21 C    0-1 1
   8 H    1     2.1493     4.0616   24 C    0-1 1
   8 H    1     2.1666     4.0942   22 C    0 0-1
   8 H    1     2.5198     4.7618    9 H    0 0-1
   8 H    1     2.5720     4.8604   40 O    0-1 1
   8 H    1     2.7362     5.1707    4 B    0-1 1

   9 H    1     1.0914     2.0624   22 C    0 0 0
   9 H    1     2.1471     4.0575   19 C    0-1 2
   9 H    1     2.1680     4.0970   21 C    0-1 2
   9 H    1     2.5198     4.7618    8 H    0 0 1
   9 H    1     2.5665     4.8500   39 O    0 0 0
   9 H    1     2.7315     5.1618    2 B    0-1 2

  10 H    1     1.0915     2.0626   23 C    0 0 0
  10 H    1     2.1490     4.0610   24 C    0 0 0
  10 H    1     2.1669     4.0948   20 C    0 0 0
  10 H    1     2.5202     4.7625    7 H    0 0 0
  10 H    1     2.5712     4.8588   41 O    0 0 0
  10 H    1     2.7351     5.1686    4 B    0 0 0

  11 H    1     1.0913     2.0623   26 C    0 0 0
  11 H    1     2.1469     4.0571   25 C   -1 0 0
  11 H    1     2.1680     4.0968   29 C   -1-1 2
  11 H    1     2.5198     4.7617   14 H    0 0 0
  11 H    1     2.5670     4.8510   38 O    0 0 1
  11 H    1     2.7310     5.1609    1 B    0 0 1

  12 H    1     1.0914     2.0625   27 C    0-1 2
  12 H    1     2.1493     4.0617   30 C    0-1 2
  12 H    1     2.1664     4.0939   28 C    0 0 0
  12 H    1     2.5192     4.7606   13 H    0 0 0
  12 H    1     2.5735     4.8632   40 O    0-1 1
  12 H    1     2.7371     5.1723    6 B    0-1 1

  13 H    1     1.0914     2.0624   28 C    0 0 0
  13 H    1     2.1475     4.0581   25 C    0 0 0
  13 H    1     2.1679     4.0967   27 C    0-1 2
  13 H    1     2.5192     4.7606   12 H    0 0 0
  13 H    1     2.5675     4.8519   37 O    0 0 1
  13 H    1     2.7328     5.1643    1 B    1 0 1

  14 H    1     1.0914     2.0625   29 C   -1-1 2
  14 H    1     2.1491     4.0612   30 C   -1-1 2
  14 H    1     2.1666     4.0942   26 C    0 0 0
  14 H    1     2.5198     4.7617   11 H    0 0 0
  14 H    1     2.5723     4.8609   42 O   -1-1 1
  14 H    1     2.7355     5.1693    6 B   -1-1 1

  15 H    1     1.0914     2.0624   32 C    0 0 0
  15 H    1     2.1475     4.0582   31 C   -1-1 2
  15 H    1     2.1678     4.0966   35 C   -1-1 2
  15 H    1     2.5200     4.7621   18 H    0 0 1
  15 H    1     2.5667     4.8503   39 O    0 0 0
  15 H    1     2.7315     5.1618    3 B    0 0 0

  16 H    1     1.0913     2.0623   33 C    0 0 0
  16 H    1     2.1487     4.0605   36 C    0 0 0
  16 H    1     2.1667     4.0945   34 C    0 0 0
  16 H    1     2.5197     4.7616   17 H    0 0 0
  16 H    1     2.5723     4.8610   41 O    0 0 0
  16 H    1     2.7359     5.1701    5 B    0 0 0

  17 H    1     1.0915     2.0626   34 C    0 0 0
  17 H    1     2.1479     4.0589   31 C    0 0 0
  17 H    1     2.1679     4.0968   33 C    0 0 0
  17 H    1     2.5197     4.7616   16 H    0 0 0
  17 H    1     2.5677     4.8522   37 O    0 0 0
  17 H    1     2.7331     5.1648    3 B    1 1-2

  18 H    1     1.0914     2.0624   35 C   -1-1 1
  18 H    1     2.1486     4.0602   36 C   -1-1 1
  18 H    1     2.1668     4.0947   32 C    0 0-1
  18 H    1     2.5200     4.7621   15 H    0 0-1
  18 H    1     2.5717     4.8598   42 O   -1-1 1
  18 H    1     2.7349     5.1682    5 B   -1-1 1

  19 C    1     1.4020     2.6495   22 C    0 1-2
  19 C    1     1.4021     2.6495   20 C    0 0 0
  19 C    1     1.5504     2.9298    2 B    0 0 0
  19 C    1     2.1471     4.0575    9 H    0 1-2
  19 C    1     2.1472     4.0576    7 H    0 0 0
  19 C    1     2.4246     4.5817   21 C    0 0 0

  20 C    1     1.0913     2.0623    7 H    0 0 0
  20 C    1     1.3914     2.6294   23 C    0 0 0
  20 C    1     1.4021     2.6495   19 C    0 0 0
  20 C    1     2.1669     4.0948   10 H    0 0 0
  20 C    1     2.4177     4.5688   22 C    0 1-2
  20 C    1     2.4250     4.5825   24 C    0 0 0

  21 C    1     1.0914     2.0625    8 H    0 1-1
  21 C    1     1.3914     2.6293   22 C    0 1-2
  21 C    1     1.4026     2.6505   24 C    0 0 0
  21 C    1     2.1680     4.0970    9 H    0 1-2
  21 C    1     2.4182     4.5697   23 C    0 0 0
  21 C    1     2.4246     4.5817   19 C    0 0 0

  22 C    1     1.0914     2.0624    9 H    0 0 0
  22 C    1     1.3914     2.6293   21 C    0-1 2
  22 C    1     1.4020     2.6495   19 C    0-1 2
  22 C    1     2.1666     4.0942    8 H    0 0 1
  22 C    1     2.4177     4.5688   20 C    0-1 2
  22 C    1     2.4250     4.5826   24 C    0-1 2

  23 C    1     1.0915     2.0626   10 H    0 0 0
  23 C    1     1.3914     2.6294   20 C    0 0 0
  23 C    1     1.4025     2.6504   24 C    0 0 0
  23 C    1     2.1680     4.0969    7 H    0 0 0
  23 C    1     2.4182     4.5697   21 C    0 0 0
  23 C    1     2.4246     4.5818   19 C    0 0 0

  24 C    1     1.4025     2.6504   23 C    0 0 0
  24 C    1     1.4026     2.6505   21 C    0 0 0
  24 C    1     1.5513     2.9316    4 B    0 0 0
  24 C    1     2.1490     4.0610   10 H    0 0 0
  24 C    1     2.1493     4.0616    8 H    0 1-1
  24 C    1     2.4250     4.5825   20 C    0 0 0

  25 C    1     1.4020     2.6494   26 C    1 0 0
  25 C    1     1.4021     2.6495   28 C    0 0 0
  25 C    1     1.5503     2.9297    1 B    1 0 1
  25 C    1     2.1469     4.0571   11 H    1 0 0
  25 C    1     2.1475     4.0581   13 H    0 0 0
  25 C    1     2.4246     4.5818   27 C    0-1 2

  26 C    1     1.0913     2.0623   11 H    0 0 0
  26 C    1     1.3914     2.6293   29 C   -1-1 2
  26 C    1     1.4020     2.6494   25 C   -1 0 0
  26 C    1     2.1666     4.0942   14 H    0 0 0
  26 C    1     2.4175     4.5684   28 C   -1 0 0
  26 C    1     2.4251     4.5828   30 C   -1-1 2

  27 C    1     1.0914     2.0625   12 H    0 1-2
  27 C    1     1.3915     2.6295   28 C    0 1-2
  27 C    1     1.4026     2.6505   30 C    0 0 0
  27 C    1     2.1679     4.0967   13 H    0 1-2
  27 C    1     2.4179     4.5691   29 C    0 0 0
  27 C    1     2.4246     4.5818   25 C    0 1-2

  28 C    1     1.0914     2.0624   13 H    0 0 0
  28 C    1     1.3915     2.6295   27 C    0-1 2
  28 C    1     1.4021     2.6495   25 C    0 0 0
  28 C    1     2.1664     4.0939   12 H    0 0 0
  28 C    1     2.4175     4.5684   26 C    1 0 0
  28 C    1     2.4253     4.5832   30 C    0-1 2

  29 C    1     1.0914     2.0625   14 H    1 1-2
  29 C    1     1.3914     2.6293   26 C    1 1-2
  29 C    1     1.4025     2.6504   30 C    0 0 0
  29 C    1     2.1680     4.0968   11 H    1 1-2
  29 C    1     2.4179     4.5691   27 C    0 0 0
  29 C    1     2.4247     4.5819   25 C    0 1-2

  30 C    1     1.4025     2.6504   29 C    0 0 0
  30 C    1     1.4026     2.6505   27 C    0 0 0
  30 C    1     1.5516     2.9322    6 B    0 0-1
  30 C    1     2.1491     4.0612   14 H    1 1-2
  30 C    1     2.1493     4.0617   12 H    0 1-2
  30 C    1     2.4251     4.5828   26 C    1 1-2

  31 C    1     1.4021     2.6496   32 C    1 1-2
  31 C    1     1.4021     2.6497   34 C    0 0 0
  31 C    1     1.5502     2.9294    3 B    1 1-2
  31 C    1     2.1475     4.0582   15 H    1 1-2
  31 C    1     2.1479     4.0589   17 H    0 0 0
  31 C    1     2.4244     4.5814   33 C    0 0 0

  32 C    1     1.0914     2.0624   15 H    0 0 0
  32 C    1     1.3914     2.6293   35 C   -1-1 2
  32 C    1     1.4021     2.6496   31 C   -1-1 2
  32 C    1     2.1668     4.0947   18 H    0 0 1
  32 C    1     2.4179     4.5692   34 C   -1-1 2
  32 C    1     2.4251     4.5827   36 C   -1-1 2

  33 C    1     1.0913     2.0623   16 H    0 0 0
  33 C    1     1.3914     2.6294   34 C    0 0 0
  33 C    1     1.4025     2.6504   36 C    0 0 0
  33 C    1     2.1679     4.0968   17 H    0 0 0
  33 C    1     2.4178     4.5690   35 C    0 0 0
  33 C    1     2.4244     4.5814   31 C    0 0 0

  34 C    1     1.0915     2.0626   17 H    0 0 0
  34 C    1     1.3914     2.6294   33 C    0 0 0
  34 C    1     1.4021     2.6497   31 C    0 0 0
  34 C    1     2.1667     4.0945   16 H    0 0 0
  34 C    1     2.4179     4.5692   32 C    1 1-2
  34 C    1     2.4253     4.5832   36 C    0 0 0

  35 C    1     1.0914     2.0624   18 H    1 1-1
  35 C    1     1.3914     2.6293   32 C    1 1-2
  35 C    1     1.4025     2.6503   36 C    0 0 0
  35 C    1     2.1678     4.0966   15 H    1 1-2
  35 C    1     2.4178     4.5690   33 C    0 0 0
  35 C    1     2.4245     4.5817   31 C    0 0 0

  36 C    1     1.4025     2.6503   35 C    0 0 0
  36 C    1     1.4025     2.6504   33 C    0 0 0
  36 C    1     1.5516     2.9322    5 B    0 0 0
  36 C    1     2.1486     4.0602   18 H    1 1-1
  36 C    1     2.1487     4.0605   16 H    0 0 0
  36 C    1     2.4251     4.5827   32 C    1 1-2

  37 O    1     1.3791     2.6061    1 B    1 0 0
  37 O    1     1.3791     2.6061    3 B    1 1-2
  37 O    1     2.3880     4.5126   38 O    1 0 0
  37 O    1     2.3882     4.5130   39 O    1 1-2
  37 O    1     2.5383     4.7966   31 C    0 0 0
  37 O    1     2.5384     4.7968   25 C    0 0-1

  38 O    1     1.3793     2.6065    1 B    0 0 0
  38 O    1     1.3793     2.6065    2 B    0 0 0
  38 O    1     2.3880     4.5126   37 O   -1 0 0
  38 O    1     2.3882     4.5131   39 O    0 1-2
  38 O    1     2.5391     4.7981   19 C    0 0 0
  38 O    1     2.5395     4.7990   25 C   -1 0-1

  39 O    1     1.3793     2.6064    3 B    0 0 0
  39 O    1     1.3793     2.6065    2 B    0-1 2
  39 O    1     2.3882     4.5130   37 O   -1-1 2
  39 O    1     2.3882     4.5131   38 O    0-1 2
  39 O    1     2.5390     4.7980   19 C    0-1 2
  39 O    1     2.5391     4.7982   31 C   -1-1 2

  40 O    1     1.3795     2.6068    6 B    0 0 0
  40 O    1     1.3795     2.6068    4 B    0 0 0
  40 O    1     2.3880     4.5126   42 O    0 0 0
  40 O    1     2.3884     4.5134   41 O    0 0 0
  40 O    1     2.5400     4.7998   24 C    0 0 0
  40 O    1     2.5403     4.8005   30 C    0 0 1

  41 O    1     1.3795     2.6069    5 B    0 0 0
  41 O    1     1.3795     2.6070    4 B    0 0 0
  41 O    1     2.3881     4.5128   42 O    0 0 0
  41 O    1     2.3884     4.5134   40 O    0 0 0
  41 O    1     2.5404     4.8006   24 C    0 0 0
  41 O    1     2.5405     4.8008   36 C    0 0 0

  42 O    1     1.3796     2.6071    6 B    0 0 0
  42 O    1     1.3797     2.6072    5 B    0 0 0
  42 O    1     2.3880     4.5126   40 O    0 0 0
  42 O    1     2.3881     4.5128   41 O    0 0 0
  42 O    1     2.5409     4.8016   36 C    0 0 0
  42 O    1     2.5410     4.8019   30 C    0 0 1


 SYMMETRY ALLOWED INTERNAL DEGREE(S) OF FREEDOM: 123
 TTTTTTTTTTTTTTTTTTTTTTTTTTTTTT SYMM        TELAPSE        0.39 TCPU        0.39
 TTTTTTTTTTTTTTTTTTTTTTTTTTTTTT INT_SCREEN  TELAPSE        0.43 TCPU        0.42

 DFT PARAMETERS

     ATOM       ELECTRONS   NET CHARGE   R(ANGSTROM)
   1   5  B       5.0000      0.0000     0.89000000
   7   1  H       1.0000      0.0000     1.11000000
  19   6  C       6.0000      0.0000     0.77000000
  37   8  O       8.0000      0.0000     0.74000000

 SIZE OF GRID=    1235521
 TTTTTTTTTTTTTTTTTTTTTTTTTTTTTT MAKE_GRID2  TELAPSE       12.07 TCPU       12.06
 BECKE WEIGHT FUNCTION
 RADSAFE =     2.00
 TOLERANCES - DENSITY:10**- 6; POTENTIAL:10**- 9; GRID WGT:10**-14

 RADIAL INTEGRATION  - INTERVALS (POINTS,UPPER LIMIT):            1( 75,  4.0*R)

 ANGULAR INTEGRATION - INTERVALS (ACCURACY LEVEL [N. POINTS] UPPER LIMIT):
  1(  4[  86]   0.2)  2(  8[ 194]   0.5)  3( 12[ 350]   0.9)  4( 16[ 974]   3.5)
  5( 12[ 350]9999.0)
 TTTTTTTTTTTTTTTTTTTTTTTTTTTTTT INT_CALC    TELAPSE       12.18 TCPU       12.16
 EEEEEEEEEE INT_CALC TERMINATION  DATE 19 02 2026 TIME 17:53:04.4

 *******************************************************************************
 cof-1_z31_L040_incl                                                             
 CRYSTAL - SCF - TYPE OF CALCULATION :  RESTRICTED CLOSED SHELL
 *******************************************************************************

 CAPPA:IS1  2;IS2  2;IS3  8; K PTS MONK NET  20; SYMMOPS:K SPACE   2;G SPACE   1

 TTTTTTTTTTTTTTTTTTTTTTTTTTTTTT SDIK        TELAPSE       12.80 TCPU       19.63

 AAAAAAAAAAAAAAAAAAAAAAAAAAAAAAAAAAAAAAAAAAAAAAAAAAAAAAAAAAAAAAAAAAAAAAAAAAAAAAA
         ATOMIC WAVEFUNCTION(S)


 NUCLEAR CHARGE  5.0  SYMMETRY SPECIES            S    P
 N. ELECTRONS    5.0  NUMBER OF PRIMITIVE GTOS    8    4
                      NUMBER OF CONTRACTED GTOS   4    2
                      NUMBER OF CLOSED SHELLS     2    0
                      OPEN SHELL OCCUPATION       0    1

  ZNUC  SCFIT    TOTAL HF ENERGY   KINETIC ENERGY   VIRIAL THEOREM ACCURACY
   5.0    11    -2.451164084E+01  2.462155050E+01 -1.995536038E+00  1.5E-06

 NUCLEAR CHARGE  1.0  SYMMETRY SPECIES            S
 N. ELECTRONS    1.0  NUMBER OF PRIMITIVE GTOS    4
                      NUMBER OF CONTRACTED GTOS   2
                      NUMBER OF CLOSED SHELLS     0
                      OPEN SHELL OCCUPATION       1

  ZNUC  SCFIT    TOTAL HF ENERGY   KINETIC ENERGY   VIRIAL THEOREM ACCURACY
   1.0     1    -4.977266687E-01  5.190767460E-01 -1.958869132E+00  0.0E+00

 NUCLEAR CHARGE  6.0  SYMMETRY SPECIES            S    P
 N. ELECTRONS    6.0  NUMBER OF PRIMITIVE GTOS    8    4
                      NUMBER OF CONTRACTED GTOS   4    2
                      NUMBER OF CLOSED SHELLS     2    0
                      OPEN SHELL OCCUPATION       0    2

  ZNUC  SCFIT    TOTAL HF ENERGY   KINETIC ENERGY   VIRIAL THEOREM ACCURACY
   6.0     9    -3.766704647E+01  3.775180683E+01 -1.997754800E+00  1.1E-06

 NUCLEAR CHARGE  8.0  SYMMETRY SPECIES            S    P
 N. ELECTRONS    8.0  NUMBER OF PRIMITIVE GTOS    8    4
                      NUMBER OF CONTRACTED GTOS   4    2
                      NUMBER OF CLOSED SHELLS     2    0
                      OPEN SHELL OCCUPATION       0    4

  ZNUC  SCFIT    TOTAL HF ENERGY   KINETIC ENERGY   VIRIAL THEOREM ACCURACY
   8.0    12    -7.477373220E+01  7.477365593E+01 -2.000001020E+00  3.8E-06

 AAAAAAAAAAAAAAAAAAAAAAAAAAAAAAAAAAAAAAAAAAAAAAAAAAAAAAAAAAAAAAAAAAAAAAAAAAAAAAA

 CHARGE NORMALIZATION FACTOR   1.00000000
 TOTAL ATOMIC CHARGES:
   5.0000000   5.0000000   5.0000000   5.0000000   5.0000000   5.0000000
   1.0000000   1.0000000   1.0000000   1.0000000   1.0000000   1.0000000
   1.0000000   1.0000000   1.0000000   1.0000000   1.0000000   1.0000000
   6.0000000   6.0000000   6.0000000   6.0000000   6.0000000   6.0000000
   6.0000000   6.0000000   6.0000000   6.0000000   6.0000000   6.0000000
   6.0000000   6.0000000   6.0000000   6.0000000   6.0000000   6.0000000
   8.0000000   8.0000000   8.0000000   8.0000000   8.0000000   8.0000000
 TTTTTTTTTTTTTTTTTTTTTTTTTTTTTT MOQGAD      TELAPSE       12.85 TCPU       21.03
 TTTTTTTTTTTTTTTTTTTTTTTTTTTTTT SHELLXN     TELAPSE       24.87 TCPU      402.04
 TTTTTTTTTTTTTTTTTTTTTTTTTTTTTT MONMO3      TELAPSE       25.05 TCPU      407.77
 NUMERICALLY INTEGRATED DENSITY    198.0000222656
 TTTTTTTTTTTTTTTTTTTTTTTTTTTTTT NUMDFT      TELAPSE       25.77 TCPU      430.72
 CYC   0 ETOT(AU) -1.296025812484E+03 DETOT -1.30E+03 tst  0.00E+00 PX  1.00E+00
 TTTTTTTTTTTTTTTTTTTTTTTTTTTTTT DIIS        TELAPSE       25.81 TCPU      431.96
 TTTTTTTTTTTTTTTTTTTTTTTTTTTTTT FDIK        TELAPSE       26.30 TCPU      447.54
 INSULATING STATE
 TOP OF VALENCE BANDS -    BAND     99; K   17; EIG -3.0498568E-01 AU
 TOP OF VALENCE BANDS -    BAND     99; K    1; EIG -3.1045315E-01 AU
 BOTTOM OF VIRTUAL BANDS - BAND    100; K   17; EIG -1.7455119E-01 AU
 DIRECT ENERGY BAND GAP:   3.5493 eV
 BOTTOM OF VIRTUAL BANDS - BAND    100; K    1; EIG -1.6711015E-01 AU
 TTTTTTTTTTTTTTTTTTTTTTTTTTTTTT PDIG        TELAPSE       26.62 TCPU      453.73
 CHARGE NORMALIZATION FACTOR   1.00000000
 TOTAL ATOMIC CHARGES:
   4.1366511   4.1526221   4.1530555   4.1521108   4.1517526   4.1371711
   0.7859769   0.7861559   0.7837499   0.7837332   0.7856852   0.7857126
   0.7857623   0.7856746   0.7837178   0.7837665   0.7859361   0.7861495
   6.0451906   6.2703986   6.2700772   6.2679544   6.2679053   6.0445334
   6.0498369   6.2580085   6.2594965   6.2578998   6.2597266   6.0469846
   6.0457242   6.2675589   6.2682638   6.2699612   6.2703813   6.0441660
   8.7050223   8.7052319   8.7038304   8.7058787   8.7044512   8.7061340
 TTTTTTTTTTTTTTTTTTTTTTTTTTTTTT MOQGAD      TELAPSE       26.68 TCPU      453.78
 TTTTTTTTTTTTTTTTTTTTTTTTTTTTTT SHELLXN     TELAPSE       39.07 TCPU      849.35
 TTTTTTTTTTTTTTTTTTTTTTTTTTTTTT MONMO3      TELAPSE       39.25 TCPU      855.08
 NUMERICALLY INTEGRATED DENSITY    198.0000069487
 TTTTTTTTTTTTTTTTTTTTTTTTTTTTTT NUMDFT      TELAPSE       39.99 TCPU      878.47
 CYC   1 ETOT(AU) -1.288832331008E+03 DETOT  7.19E+00 tst  0.00E+00 PX  1.00E+00
 TTTTTTTTTTTTTTTTTTTTTTTTTTTTTT DIIS        TELAPSE       40.03 TCPU      879.98
 DIIS TEST: 0.10745E+01 AT SCF   CYCLE   1 - MIX   30 %
 TTTTTTTTTTTTTTTTTTTTTTTTTTTTTT FDIK        TELAPSE       40.53 TCPU      895.73
 INSULATING STATE
 TOP OF VALENCE BANDS -    BAND     99; K   17; EIG -2.1746428E-01 AU
 TOP OF VALENCE BANDS -    BAND     99; K    1; EIG -2.3026605E-01 AU
 BOTTOM OF VIRTUAL BANDS - BAND    100; K   17; EIG -1.0246419E-01 AU
 DIRECT ENERGY BAND GAP:   3.1293 eV
 BOTTOM OF VIRTUAL BANDS - BAND    100; K    1; EIG -9.1269645E-02 AU
 TTTTTTTTTTTTTTTTTTTTTTTTTTTTTT PDIG        TELAPSE       40.85 TCPU      901.91
 CHARGE NORMALIZATION FACTOR   1.00000000
 TOTAL ATOMIC CHARGES:
   4.6334434   4.6841832   4.6843097   4.6838205   4.6840660   4.6338576
   0.9018437   0.9020399   0.9177759   0.9181991   0.8896188   0.8890169
   0.8896024   0.8891401   0.9178165   0.9181893   0.9017429   0.9018413
   5.8771364   6.1372936   6.1380386   6.1440121   6.1432217   5.8798667
   5.9258006   6.1522861   6.1557897   6.1536135   6.1531489   5.9251872
   5.8768453   6.1428324   6.1442556   6.1378222   6.1379764   5.8800528
   8.3350906   8.3350217   8.3577394   8.3348696   8.3569174   8.3346742
 TTTTTTTTTTTTTTTTTTTTTTTTTTTTTT MOQGAD      TELAPSE       40.91 TCPU      901.97
 TTTTTTTTTTTTTTTTTTTTTTTTTTTTTT SHELLXN     TELAPSE       53.30 TCPU     1297.43
 TTTTTTTTTTTTTTTTTTTTTTTTTTTTTT MONMO3      TELAPSE       53.48 TCPU     1303.14
 NUMERICALLY INTEGRATED DENSITY    198.0000051334
 TTTTTTTTTTTTTTTTTTTTTTTTTTTTTT NUMDFT      TELAPSE       54.21 TCPU     1326.53
 CYC   2 ETOT(AU) -1.289022105758E+03 DETOT -1.90E-01 tst  3.16E-03 PX  1.60E-01
 TTTTTTTTTTTTTTTTTTTTTTTTTTTTTT DIIS        TELAPSE       54.27 TCPU     1328.22
 DIIS TEST: 0.44099E+00 AT SCF   CYCLE   2 - DIIS ACTIVE - HISTORY:     2 CYCLES
 TTTTTTTTTTTTTTTTTTTTTTTTTTTTTT FDIK        TELAPSE       54.76 TCPU     1344.00
 INSULATING STATE
 TOP OF VALENCE BANDS -    BAND     99; K   17; EIG -2.2825332E-01 AU
 TOP OF VALENCE BANDS -    BAND     99; K    1; EIG -2.3735081E-01 AU
 BOTTOM OF VIRTUAL BANDS - BAND    100; K   17; EIG -9.6308702E-02 AU
 DIRECT ENERGY BAND GAP:   3.5904 eV
 BOTTOM OF VIRTUAL BANDS - BAND    100; K    1; EIG -8.7174799E-02 AU
 TTTTTTTTTTTTTTTTTTTTTTTTTTTTTT PDIG        TELAPSE       55.09 TCPU     1350.19
 CHARGE NORMALIZATION FACTOR   1.00000000
 TOTAL ATOMIC CHARGES:
   4.4381790   4.4851040   4.4851942   4.4839631   4.4838645   4.4390768
   0.8836796   0.8840901   0.8943949   0.8945226   0.8788927   0.8787947
   0.8791449   0.8785819   0.8942455   0.8946517   0.8836121   0.8839157
   5.8992236   6.1701277   6.1698519   6.1549705   6.1540545   5.8992431
   5.9272220   6.1643249   6.1649635   6.1634692   6.1652690   5.9256470
   5.8996698   6.1547827   6.1541662   6.1697298   6.1704568   5.8990098
   8.5264981   8.5271023   8.5208539   8.5271812   8.5205256   8.5277490
 TTTTTTTTTTTTTTTTTTTTTTTTTTTTTT MOQGAD      TELAPSE       55.14 TCPU     1350.25
 TTTTTTTTTTTTTTTTTTTTTTTTTTTTTT SHELLXN     TELAPSE       67.54 TCPU     1745.72
 TTTTTTTTTTTTTTTTTTTTTTTTTTTTTT MONMO3      TELAPSE       67.72 TCPU     1751.44
 NUMERICALLY INTEGRATED DENSITY    198.0000055301
 TTTTTTTTTTTTTTTTTTTTTTTTTTTTTT NUMDFT      TELAPSE       68.45 TCPU     1774.79
 CYC   3 ETOT(AU) -1.289112543395E+03 DETOT -9.04E-02 tst  6.20E-04 PX  6.84E-02
 TTTTTTTTTTTTTTTTTTTTTTTTTTTTTT DIIS        TELAPSE       68.51 TCPU     1776.71
 DIIS TEST: 0.16665E-01 AT SCF   CYCLE   3 - DIIS ACTIVE - HISTORY:     3 CYCLES
 TTTTTTTTTTTTTTTTTTTTTTTTTTTTTT FDIK        TELAPSE       69.00 TCPU     1792.44
 INSULATING STATE
 TOP OF VALENCE BANDS -    BAND     99; K   17; EIG -2.3798576E-01 AU
 TOP OF VALENCE BANDS -    BAND     99; K    1; EIG -2.4958804E-01 AU
 BOTTOM OF VIRTUAL BANDS - BAND    100; K   17; EIG -1.0600131E-01 AU
 DIRECT ENERGY BAND GAP:   3.5915 eV
 BOTTOM OF VIRTUAL BANDS - BAND    100; K    1; EIG -9.5004316E-02 AU
 TTTTTTTTTTTTTTTTTTTTTTTTTTTTTT PDIG        TELAPSE       69.32 TCPU     1798.63
 CHARGE NORMALIZATION FACTOR   1.00000000
 TOTAL ATOMIC CHARGES:
   4.4455243   4.4885445   4.4886711   4.4878551   4.4877791   4.4465436
   0.8675803   0.8678985   0.8769835   0.8772045   0.8580430   0.8576042
   0.8579705   0.8577328   0.8770272   0.8771792   0.8675200   0.8677368
   5.9429785   6.1695855   6.1701244   6.1706710   6.1704541   5.9454646
   5.9830257   6.1750881   6.1791248   6.1768199   6.1765078   5.9816646
   5.9432521   6.1694819   6.1715255   6.1700273   6.1699676   5.9452564
   8.4839028   8.4837074   8.4992153   8.4839970   8.4990441   8.4837153
 TTTTTTTTTTTTTTTTTTTTTTTTTTTTTT MOQGAD      TELAPSE       69.38 TCPU     1798.69
 TTTTTTTTTTTTTTTTTTTTTTTTTTTTTT SHELLXN     TELAPSE       81.78 TCPU     2194.27
 TTTTTTTTTTTTTTTTTTTTTTTTTTTTTT MONMO3      TELAPSE       81.96 TCPU     2200.00
 NUMERICALLY INTEGRATED DENSITY    198.0000054830
 TTTTTTTTTTTTTTTTTTTTTTTTTTTTTT NUMDFT      TELAPSE       82.69 TCPU     2223.34
 CYC   4 ETOT(AU) -1.289116175408E+03 DETOT -3.63E-03 tst  3.34E-05 PX  1.52E-02
 TTTTTTTTTTTTTTTTTTTTTTTTTTTTTT DIIS        TELAPSE       82.75 TCPU     2225.36
 DIIS TEST: 0.42650E-02 AT SCF   CYCLE   4 - DIIS ACTIVE - HISTORY:     4 CYCLES
 TTTTTTTTTTTTTTTTTTTTTTTTTTTTTT FDIK        TELAPSE       83.25 TCPU     2241.16
 INSULATING STATE
 TOP OF VALENCE BANDS -    BAND     99; K   17; EIG -2.3666725E-01 AU
 TOP OF VALENCE BANDS -    BAND     99; K    1; EIG -2.4723048E-01 AU
 BOTTOM OF VIRTUAL BANDS - BAND    100; K   17; EIG -1.0493051E-01 AU
 DIRECT ENERGY BAND GAP:   3.5847 eV
 BOTTOM OF VIRTUAL BANDS - BAND    100; K    1; EIG -9.4911422E-02 AU
 TTTTTTTTTTTTTTTTTTTTTTTTTTTTTT PDIG        TELAPSE       83.57 TCPU     2247.35
 CHARGE NORMALIZATION FACTOR   1.00000000
 TOTAL ATOMIC CHARGES:
   4.4448339   4.4925523   4.4926265   4.4916564   4.4916715   4.4455715
   0.8692549   0.8695963   0.8804195   0.8806795   0.8616173   0.8614879
   0.8618259   0.8613249   0.8803421   0.8807713   0.8691938   0.8694269
   5.9287684   6.1733389   6.1731190   6.1679282   6.1667134   5.9286201
   5.9625823   6.1759529   6.1768412   6.1751990   6.1768473   5.9605766
   5.9287407   6.1674308   6.1670958   6.1729589   6.1737643   5.9287330
   8.4966489   8.4971842   8.5010074   8.4970675   8.5004744   8.4975542
 TTTTTTTTTTTTTTTTTTTTTTTTTTTTTT MOQGAD      TELAPSE       83.63 TCPU     2247.40
 TTTTTTTTTTTTTTTTTTTTTTTTTTTTTT SHELLXN     TELAPSE       96.02 TCPU     2642.83
 TTTTTTTTTTTTTTTTTTTTTTTTTTTTTT MONMO3      TELAPSE       96.20 TCPU     2648.54
 NUMERICALLY INTEGRATED DENSITY    198.0000053757
 TTTTTTTTTTTTTTTTTTTTTTTTTTTTTT NUMDFT      TELAPSE       96.93 TCPU     2671.92
 CYC   5 ETOT(AU) -1.289117137348E+03 DETOT -9.62E-04 tst  5.70E-06 PX  6.89E-03
 TTTTTTTTTTTTTTTTTTTTTTTTTTTTTT DIIS        TELAPSE       97.00 TCPU     2674.14
 DIIS TEST: 0.71588E-04 AT SCF   CYCLE   5 - DIIS ACTIVE - HISTORY:     5 CYCLES
 TTTTTTTTTTTTTTTTTTTTTTTTTTTTTT FDIK        TELAPSE       97.49 TCPU     2689.90
 INSULATING STATE
 TOP OF VALENCE BANDS -    BAND     99; K   17; EIG -2.3635457E-01 AU
 TOP OF VALENCE BANDS -    BAND     99; K    1; EIG -2.4691341E-01 AU
 BOTTOM OF VIRTUAL BANDS - BAND    100; K   17; EIG -1.0463526E-01 AU
 DIRECT ENERGY BAND GAP:   3.5843 eV
 BOTTOM OF VIRTUAL BANDS - BAND    100; K    1; EIG -9.4483621E-02 AU
 TTTTTTTTTTTTTTTTTTTTTTTTTTTTTT PDIG        TELAPSE       97.82 TCPU     2696.09
 CHARGE NORMALIZATION FACTOR   1.00000000
 TOTAL ATOMIC CHARGES:
   4.4464367   4.4914862   4.4916646   4.4907738   4.4906724   4.4473927
   0.8704004   0.8707337   0.8813281   0.8814857   0.8628772   0.8623651
   0.8627818   0.8625104   0.8813212   0.8815044   0.8703176   0.8705833
   5.9267210   6.1716114   6.1723228   6.1665213   6.1668741   5.9299774
   5.9631147   6.1725735   6.1769976   6.1746611   6.1741431   5.9624327
   5.9275375   6.1655838   6.1677006   6.1722291   6.1719646   5.9292658
   8.4956603   8.4953504   8.5043489   8.4959039   8.5043593   8.4955098
 TTTTTTTTTTTTTTTTTTTTTTTTTTTTTT MOQGAD      TELAPSE       97.88 TCPU     2696.14
 TTTTTTTTTTTTTTTTTTTTTTTTTTTTTT SHELLXN     TELAPSE      110.26 TCPU     3091.50
 TTTTTTTTTTTTTTTTTTTTTTTTTTTTTT MONMO3      TELAPSE      110.44 TCPU     3097.22
 NUMERICALLY INTEGRATED DENSITY    198.0000053842
 TTTTTTTTTTTTTTTTTTTTTTTTTTTTTT NUMDFT      TELAPSE      111.18 TCPU     3120.60
 CYC   6 ETOT(AU) -1.289117149786E+03 DETOT -1.24E-05 tst  1.69E-07 PX  1.22E-03
 TTTTTTTTTTTTTTTTTTTTTTTTTTTTTT DIIS        TELAPSE      111.25 TCPU     3122.94
 DIIS TEST: 0.36220E-04 AT SCF   CYCLE   6 - DIIS ACTIVE - HISTORY:     6 CYCLES
 TTTTTTTTTTTTTTTTTTTTTTTTTTTTTT FDIK        TELAPSE      111.74 TCPU     3138.75
 INSULATING STATE
 TOP OF VALENCE BANDS -    BAND     99; K   17; EIG -2.3641801E-01 AU
 TOP OF VALENCE BANDS -    BAND     99; K    1; EIG -2.4699996E-01 AU
 BOTTOM OF VIRTUAL BANDS - BAND    100; K   17; EIG -1.0464345E-01 AU
 DIRECT ENERGY BAND GAP:   3.5858 eV
 BOTTOM OF VIRTUAL BANDS - BAND    100; K    1; EIG -9.4518066E-02 AU
 TTTTTTTTTTTTTTTTTTTTTTTTTTTTTT PDIG        TELAPSE      112.07 TCPU     3144.94
 CHARGE NORMALIZATION FACTOR   1.00000000
 TOTAL ATOMIC CHARGES:
   4.4458080   4.4920103   4.4920918   4.4911257   4.4911132   4.4466543
   0.8703244   0.8706751   0.8811811   0.8814396   0.8626100   0.8624213
   0.8627677   0.8623140   0.8811393   0.8814915   0.8702639   0.8705016
   5.9283674   6.1722827   6.1721913   6.1671905   6.1660540   5.9286082
   5.9631181   6.1745097   6.1759440   6.1742242   6.1754689   5.9611749
   5.9283182   6.1664795   6.1666540   6.1720484   6.1726939   5.9287561
   8.4959611   8.4963754   8.5025491   8.4963206   8.5020990   8.4966781
 TTTTTTTTTTTTTTTTTTTTTTTTTTTTTT MOQGAD      TELAPSE      112.13 TCPU     3144.99
 TTTTTTTTTTTTTTTTTTTTTTTTTTTTTT SHELLXN     TELAPSE      124.52 TCPU     3540.38
 TTTTTTTTTTTTTTTTTTTTTTTTTTTTTT MONMO3      TELAPSE      124.69 TCPU     3546.10
 NUMERICALLY INTEGRATED DENSITY    198.0000053878
 TTTTTTTTTTTTTTTTTTTTTTTTTTTTTT NUMDFT      TELAPSE      125.43 TCPU     3569.45
 CYC   7 ETOT(AU) -1.289117157584E+03 DETOT -7.80E-06 tst  8.44E-08 PX  8.59E-04
 TTTTTTTTTTTTTTTTTTTTTTTTTTTTTT DIIS        TELAPSE      125.51 TCPU     3572.01
 DIIS TEST: 0.19003E-05 AT SCF   CYCLE   7 - DIIS ACTIVE - HISTORY:     7 CYCLES
 TTTTTTTTTTTTTTTTTTTTTTTTTTTTTT FDIK        TELAPSE      126.00 TCPU     3587.86
 INSULATING STATE
 TOP OF VALENCE BANDS -    BAND     99; K   17; EIG -2.3642380E-01 AU
 TOP OF VALENCE BANDS -    BAND     99; K    1; EIG -2.4701261E-01 AU
 BOTTOM OF VIRTUAL BANDS - BAND    100; K   17; EIG -1.0464869E-01 AU
 DIRECT ENERGY BAND GAP:   3.5858 eV
 BOTTOM OF VIRTUAL BANDS - BAND    100; K    1; EIG -9.4538490E-02 AU
 TTTTTTTTTTTTTTTTTTTTTTTTTTTTTT PDIG        TELAPSE      126.33 TCPU     3594.05
 CHARGE NORMALIZATION FACTOR   1.00000000
 TOTAL ATOMIC CHARGES:
   4.4457045   4.4920735   4.4921957   4.4912626   4.4912170   4.4465615
   0.8702918   0.8706354   0.8811965   0.8813943   0.8626263   0.8623158
   0.8626948   0.8622965   0.8811435   0.8814591   0.8702223   0.8704722
   5.9276881   6.1721105   6.1723212   6.1668911   6.1664639   5.9291995
   5.9627324   6.1740222   6.1765934   6.1746042   6.1752520   5.9613634
   5.9280990   6.1662283   6.1670147   6.1721969   6.1724987   5.9288859
   8.4961605   8.4962944   8.5024197   8.4964935   8.5021399   8.4965631
 TTTTTTTTTTTTTTTTTTTTTTTTTTTTTT MOQGAD      TELAPSE      126.39 TCPU     3594.10
 TTTTTTTTTTTTTTTTTTTTTTTTTTTTTT SHELLXN     TELAPSE      138.78 TCPU     3989.63
 TTTTTTTTTTTTTTTTTTTTTTTTTTTTTT MONMO3      TELAPSE      138.96 TCPU     3995.35
 NUMERICALLY INTEGRATED DENSITY    198.0000053874
 TTTTTTTTTTTTTTTTTTTTTTTTTTTTTT NUMDFT      TELAPSE      139.69 TCPU     4018.77
 CYC   8 ETOT(AU) -1.289117157675E+03 DETOT -9.05E-08 tst  1.42E-08 PX  1.71E-04
 TTTTTTTTTTTTTTTTTTTTTTTTTTTTTT DIIS        TELAPSE      139.78 TCPU     4021.44
 DIIS TEST: 0.51635E-06 AT SCF   CYCLE   8 - DIIS ACTIVE - HISTORY:     8 CYCLES
 TTTTTTTTTTTTTTTTTTTTTTTTTTTTTT FDIK        TELAPSE      140.27 TCPU     4037.26
 INSULATING STATE
 TOP OF VALENCE BANDS -    BAND     99; K   17; EIG -2.3642109E-01 AU
 TOP OF VALENCE BANDS -    BAND     99; K    1; EIG -2.4700637E-01 AU
 BOTTOM OF VIRTUAL BANDS - BAND    100; K   17; EIG -1.0465101E-01 AU
 DIRECT ENERGY BAND GAP:   3.5856 eV
 BOTTOM OF VIRTUAL BANDS - BAND    100; K    1; EIG -9.4540150E-02 AU
 TTTTTTTTTTTTTTTTTTTTTTTTTTTTTT PDIG        TELAPSE      140.60 TCPU     4043.45
 CHARGE NORMALIZATION FACTOR   1.00000000
 TOTAL ATOMIC CHARGES:
   4.4457613   4.4920602   4.4921668   4.4912216   4.4911902   4.4466142
   0.8702828   0.8706274   0.8811860   0.8814137   0.8626052   0.8623366
   0.8627023   0.8622889   0.8811455   0.8814656   0.8702156   0.8704616
   5.9279171   6.1721474   6.1722593   6.1670420   6.1663229   5.9289433
   5.9629245   6.1741743   6.1763495   6.1744649   6.1752994   5.9613371
   5.9281266   6.1663169   6.1669364   6.1721281   6.1725437   5.9288310
   8.4960442   8.4962767   8.5026335   8.4963845   8.5022966   8.4965543
 TTTTTTTTTTTTTTTTTTTTTTTTTTTTTT MOQGAD      TELAPSE      140.65 TCPU     4043.50
 TTTTTTTTTTTTTTTTTTTTTTTTTTTTTT SHELLXN     TELAPSE      153.05 TCPU     4439.21
 +++ ENERGIES IN A.U. +++
 ::: EXT EL-POLE                                  -1.6838877514040E+03
 ::: EXT EL-SPHEROPOLE                             1.8490715768033E+01
 ::: BIELET ZONE E-E                               2.4159568785556E+03
 ::: TOTAL E-E                                     7.5055984291963E+02
 ::: TOTAL E-N + N-E                              -3.3224062312132E+03
 ::: TOTAL N-N                                     1.3645846400646E+02
 ::: KINETIC ENERGY                                1.2800193348492E+03
 ::: PSEUDO TOTAL   ENERGY                        -1.1553685894379E+03
 ::: VIRIAL COEFFICIENT                            1.0511831171405E+00
 TTTTTTTTTTTTTTTTTTTTTTTTTTTTTT MONMO3      TELAPSE      153.23 TCPU     4444.92
 NUMERICALLY INTEGRATED DENSITY    198.0000053864
 EXCHANGE ENERGY: -0.126032316886E+03  CORRELATION ENERGY: -0.771625141048E+01
 TTTTTTTTTTTTTTTTTTTTTTTTTTTTTT NUMDFT      TELAPSE      153.96 TCPU     4468.28
 CYC   9 ETOT(AU) -1.289117157734E+03 DETOT -5.93E-08 tst  1.93E-09 PX  1.71E-04

 == SCF ENDED - CONVERGENCE ON ENERGY      E(AU) -1.2891171577343E+03 CYCLES   9


 ENERGY EXPRESSION=HARTREE+FOCK EXCH*0.00000+(HSESOL     EXCH)*1.00000+PBESOL     CORR


 TOTAL ENERGY(DFT)(AU)(  9) -1.2891171577343E+03 DE-5.9E-08 tester 1.9E-09
 TTTTTTTTTTTTTTTTTTTTTTTTTTTTTT EDFT        TELAPSE      153.96 TCPU     4468.29
 
 INFORMATION **** DFTD3 ENERGY **** CALCULATE DFTD3 ENERGY

           DFT-D V3(BJ)
 DF                                         hsesol3c  
 parameters
 s6       :    1.0000
 s8       :    0.0000
 a1       :    0.5196
 a2       :    4.9385
 k1 k3    :   16.0000   -4.0000
 Cutoff   :   50.2022
 CN-Cutoff:   21.1671
 ABC-Cutoff:   21.1671
 
 Edisp /kcal,au:   -31.5605 -0.05029488

 E6    /kcal :   -33.7026
 E8    /kcal :     0.0000
 E6(ABC) "   :   2.142066
 
 INFORMATION **** DFTD3 ENERGY **** NORMAL TERMINATION OF DFTD3 MODULE

 GCP ENERGY CALCULATION
  level        hsesol3c            basis:hsesol3c
  Nbf            474
  Atoms           42

  Parameters: 
  sigma     1.0000
  eta       1.4281
  alpha     0.2936
  beta      1.9467

  dmp_scal      4.0000
  dmp_exp       6.0000
 cutoffs: 
   distance [bohr] 60.0
   noise    [a.u.] 2.2E-16
 SR-damping   T
 ** gCP correction **
  Egcp:        0.0858184202 / (a.u.) ||      53.8519 / (kcal/mol)
 INFORMATION **** GCP **** NORMAL TERMINATION OF GCP MODULE

 *******************************************************************************

 DFT-D3-GCP DISPERSION AND COUNTERPOISE CORRECTION

 D3 DISPERSION ENERGY (AU)      -5.0294878418953E-02
 GCP ENERGY (AU)                 8.5818420229019E-02
 TOTAL ENERGY + DISP + GCP (AU) -1.2890816341924E+03

 *******************************************************************************

 EIGENVECTORS IN FORTRAN UNIT 10
 TTTTTTTTTTTTTTTTTTTTTTTTTTTTTT END         TELAPSE      155.96 TCPU     4476.25
 EEEEEEEEEE TERMINATION  DATE 19 02 2026 TIME 17:55:28.2
