 Default number of threads is:           32

         
 *******************************************************************************
 *                                                                             *
 *                               CRYSTAL23                                     *
 *                      public : 1.0.1 - October 2022                          *
 *                       HTTP://WWW.CRYSTAL.UNITO.IT                           *
 *                                                                             *
 *                              MAIN AUTHORS                                   *
 *                                                                             *
 *  R. DOVESI(1,11), V.R. SAUNDERS(2), C. ROETTI(1,11), R. ORLANDO(1,11),      *
 *  C.M. ZICOVICH-WILSON(1,3), F. PASCALE(4), B. CIVALLERI(1,11),              *
 *  K. DOLL(5), N.M. HARRISON(6), I.J. BUSH(7), Ph. D'ARCO(8),                 *
 *  M. LLUNELL(9), M. CAUSA'(10), Y. NOEL(8), L. MASCHIO(1,11), A. ERBA(1,11)  *
 *  M. RE'RAT(14), S. CASASSA(1,11), B.G. SEARLE(2), J.K. DESMARAIS(1)         *
 *                                                                             *
 *        CONTRIBUTIONS TO THE CODE HAVE ALSO BEEN GIVEN BY                    *
 *                                                                             *
 *  M. FERRABONE(1,11), M. DE LA PIERRE(1,11), M. FERRERO(1,11),               *
 *  J. BAIMA(1,11), E. ALBANESE(1,11), M.F. PEINTINGER(12), R. BAST(13),       *
 *  B. KIRTMAN(15), V. LACIVITA(1,11), R. DEMICHELIS(1,16)                     *
 *  G. BRANDEBURG(17), S. SALUSTRO(1,11), G. SANSONE(1,11)                     *
 *  M.T. RUGGIERO(18), L.E. DAGA(1), L. DONA'(1), A. COSSARD(1)                *
 *                                                                             *
 * (1) THEORETICAL CHEMISTRY GROUP - UNIVERSITA' DI TORINO - TORINO (ITALY)    *
 * (2) SCIENTIFIC COMPUTING DEPARTMENT - STFC DARESBURY (UK)                   *
 * (3) UNIVERSIDAD AUTONOMA DEL ESTADO DE MORELOS - CUERNAVACA (MEXICO)        *
 * (4) UNIVERSITE' DE LORRAINE - NANCY (FRANCE)                                *
 * (5) UNIVERSITAET STUTTGART- STUTTGART (GERMANY)                             *
 * (6) IMPERIAL COLLEGE - LONDON (UK)                                          *
 * (7) SCIENTIFIC COMPUTING DEPARTMENT - STFC RAL (UK)                         *
 * (8) UPMC - SORBONNE UNIVERSITES - PARIS (FRANCE)                            *
 * (9) UNIVERSIDAD DE BARCELONA - BARCELONA (SPAIN)                            *
 *(10) UNIVERSITA' DI NAPOLI "FEDERICO II" - NAPOLI (ITALY)                    *
 *(11) NIS - NANOSTRUCTURED INTERFACES AND SURFACES - TORINO (ITALY)           *
 *(12) MPI FUER CHEMISCHE ENERGIEKONVERSION - MUELHEIM AN DER RUHR (GERMANY)   *
 *(13) UNIVERSITY OF TROMSO - TROMSO (NORWAY)                                  *
 *(14) UNIVERSITE' DE PAU ET DES PAYS DE L'ADOUR - PAU (FRANCE)                *
 *(15) UNIVERSITY OF CALIFORNIA SANTA BARBARA - SANTA BARBARA (USA)            *
 *(16) CURTIN UNIVERSITY - PERTH (AUSTRALIA)                                   *
 *(17) UNIVERSITY COLLEGE LONDON - LONDON (UK)                                 *
 *(18) UNIVERSITY OF VERMONT - BURLINGTON (USA)                                *
 *                                                                             *
 *******************************************************************************
 EEEEEEEEEE STARTING  DATE 19 02 2026 TIME 19:09:42.8
 cof-1_z41_L020_incl                                                             

 CRYSTAL CALCULATION
 (INPUT ACCORDING TO THE INTERNATIONAL TABLES FOR X-RAY CRYSTALLOGRAPHY)
 CRYSTAL FAMILY                       :  TRICLINIC   
 CRYSTAL CLASS  (GROTH - 1921)        :  TRICLINIC PEDIAL                     

 SPACE GROUP (NONCENTROSYMMETRIC)     :  P 1             

 LATTICE PARAMETERS  (ANGSTROMS AND DEGREES) - CONVENTIONAL CELL
        A           B           C        ALPHA        BETA       GAMMA
    15.02361    15.02392     4.56180    67.68512    89.99995   119.99596


 NUMBER OF IRREDUCIBLE ATOMS IN THE CONVENTIONAL CELL:   42

 INPUT COORDINATES

 ATOM AT. N.              COORDINATES
   1   5     5.751678400000E-01  1.502850000000E-01  5.011636100000E-01
   2   5     7.342235000000E-01  3.093446500000E-01  5.011636200000E-01
   3   5     5.753518100000E-01  3.097039600000E-01  4.987140700000E-01
   4   5     1.887425500000E-01  5.365999900000E-01  5.011636200000E-01
   5   5     3.478505200000E-01  5.365792300000E-01  5.011636100000E-01
   6   5     3.480190400000E-01  6.960949400000E-01  4.987140700000E-01
   7   1     8.649211800000E-01  2.326774200000E-01  4.960852000000E-01
   8   1     5.857177000000E-02  6.149201800000E-01  4.953086300000E-01
   9   1     8.649178400000E-01  5.179575400000E-01  4.951891100000E-01
  10   1     5.868031000000E-02  3.295654700000E-01  4.952189200000E-01
  11   1     6.523085000000E-01  1.954845000000E-02  5.039119400000E-01
  12   1     2.701461400000E-01  8.258622700000E-01  5.046885700000E-01
  13   1     3.670772200000E-01  1.945656000000E-02  5.048081600000E-01
  14   1     5.555217500000E-01  8.257585100000E-01  5.047781500000E-01
  15   1     6.529503000000E-01  5.178015800000E-01  4.960852400000E-01
  16   1     2.708990700000E-01  3.294760800000E-01  4.953085800000E-01
  17   1     3.677870000000E-01  2.327083700000E-01  4.951890200000E-01
  18   1     5.562350000000E-01  6.148384400000E-01  4.952190200000E-01
  19   6     8.535727400000E-01  3.693007600000E-01  4.986244400000E-01
  20   6     9.083574900000E-01  3.165146300000E-01  4.962047100000E-01
  21   6     1.527256000000E-02  5.309464300000E-01  4.959956800000E-01
  22   6     9.082883400000E-01  4.773569000000E-01  4.966230000000E-01
  23   6     1.538654000000E-02  3.701626400000E-01  4.950098100000E-01
  24   6     6.986983000000E-02  4.776957500000E-01  4.966528400000E-01
  25   6     5.155106500000E-01  3.110309000000E-02  5.013727400000E-01
  26   6     5.684631400000E-01 -2.388135000000E-02  5.037924100000E-01
  27   6     3.540678900000E-01  8.691937200000E-01  5.040015200000E-01
  28   6     4.076050100000E-01 -2.377015000000E-02  5.033742200000E-01
  29   6     5.149103200000E-01  8.690026000000E-01  5.049873000000E-01
  30   6     4.072476300000E-01  8.146236400000E-01  5.033443100000E-01
  31   6     5.157273000000E-01  3.692316200000E-01  4.986244400000E-01
  32   6     5.690785900000E-01  4.773547700000E-01  4.962047600000E-01
  33   6     3.547078100000E-01  3.699331700000E-01  4.959956300000E-01
  34   6     4.081235000000E-01  3.163547100000E-01  4.966229300000E-01
  35   6     5.157031600000E-01  5.310106600000E-01  4.950098800000E-01
  36   6     4.077939200000E-01  4.776183500000E-01  4.966528400000E-01
  37   8     5.223617200000E-01  2.036129100000E-01  4.993712600000E-01
  38   8     6.809096000000E-01  2.028262500000E-01  5.045392100000E-01
  39   8     6.815064700000E-01  3.629698000000E-01  4.967424800000E-01
  40   8     2.419495500000E-01  6.428933800000E-01  4.993712800000E-01
  41   8     2.415718700000E-01  4.831435300000E-01  5.045392100000E-01
  42   8     4.010908900000E-01  6.432817700000E-01  4.967424600000E-01

 *******************************************************************************

 << INFORMATION >>: FROM NOW ON, ALL COORDINATES REFER TO THE PRIMITIVE CELL

 *******************************************************************************

 LATTICE PARAMETERS  (ANGSTROMS AND DEGREES) - PRIMITIVE CELL
       A          B          C        ALPHA      BETA     GAMMA        VOLUME
   15.02361   15.02392    4.56180    67.68512  89.99995 119.99596    801.476686

 COORDINATES OF THE EQUIVALENT ATOMS (FRACTIONAL UNITS)

 N. ATOM EQUIV AT. N.          X                  Y                  Z

   1   1   1    5 B    -4.24832160000E-01  1.50285000000E-01 -4.98836390000E-01

   2   2   1    5 B    -2.65776500000E-01  3.09344650000E-01 -4.98836380000E-01

   3   3   1    5 B    -4.24648190000E-01  3.09703960000E-01  4.98714070000E-01

   4   4   1    5 B     1.88742550000E-01 -4.63400010000E-01 -4.98836380000E-01

   5   5   1    5 B     3.47850520000E-01 -4.63420770000E-01 -4.98836390000E-01

   6   6   1    5 B     3.48019040000E-01 -3.03905060000E-01  4.98714070000E-01

   7   7   1    1 H    -1.35078820000E-01  2.32677420000E-01  4.96085200000E-01

   8   8   1    1 H     5.85717700000E-02 -3.85079820000E-01  4.95308630000E-01

   9   9   1    1 H    -1.35082160000E-01 -4.82042460000E-01  4.95189110000E-01

  10  10   1    1 H     5.86803100000E-02  3.29565470000E-01  4.95218920000E-01

  11  11   1    1 H    -3.47691500000E-01  1.95484500000E-02 -4.96088060000E-01

  12  12   1    1 H     2.70146140000E-01 -1.74137730000E-01 -4.95311430000E-01

  13  13   1    1 H     3.67077220000E-01  1.94565600000E-02 -4.95191840000E-01

  14  14   1    1 H    -4.44478250000E-01 -1.74241490000E-01 -4.95221850000E-01

  15  15   1    1 H    -3.47049700000E-01 -4.82198420000E-01  4.96085240000E-01

  16  16   1    1 H     2.70899070000E-01  3.29476080000E-01  4.95308580000E-01

  17  17   1    1 H     3.67787000000E-01  2.32708370000E-01  4.95189020000E-01

  18  18   1    1 H    -4.43765000000E-01 -3.85161560000E-01  4.95219020000E-01

  19  19   1    6 C    -1.46427260000E-01  3.69300760000E-01  4.98624440000E-01

  20  20   1    6 C    -9.16425100000E-02  3.16514630000E-01  4.96204710000E-01

  21  21   1    6 C     1.52725600000E-02 -4.69053570000E-01  4.95995680000E-01

  22  22   1    6 C    -9.17116600000E-02  4.77356900000E-01  4.96623000000E-01

  23  23   1    6 C     1.53865400000E-02  3.70162640000E-01  4.95009810000E-01

  24  24   1    6 C     6.98698300000E-02  4.77695750000E-01  4.96652840000E-01

  25  25   1    6 C    -4.84489350000E-01  3.11030900000E-02 -4.98627260000E-01

  26  26   1    6 C    -4.31536860000E-01 -2.38813500000E-02 -4.96207590000E-01

  27  27   1    6 C     3.54067890000E-01 -1.30806280000E-01 -4.95998480000E-01

  28  28   1    6 C     4.07605010000E-01 -2.37701500000E-02 -4.96625780000E-01

  29  29   1    6 C    -4.85089680000E-01 -1.30997400000E-01 -4.95012700000E-01

  30  30   1    6 C     4.07247630000E-01 -1.85376360000E-01 -4.96655690000E-01

  31  31   1    6 C    -4.84272700000E-01  3.69231620000E-01  4.98624440000E-01

  32  32   1    6 C    -4.30921410000E-01  4.77354770000E-01  4.96204760000E-01

  33  33   1    6 C     3.54707810000E-01  3.69933170000E-01  4.95995630000E-01

  34  34   1    6 C     4.08123500000E-01  3.16354710000E-01  4.96622930000E-01

  35  35   1    6 C    -4.84296840000E-01 -4.68989340000E-01  4.95009880000E-01

  36  36   1    6 C     4.07793920000E-01  4.77618350000E-01  4.96652840000E-01

  37  37   1    8 O    -4.77638280000E-01  2.03612910000E-01  4.99371260000E-01

  38  38   1    8 O    -3.19090400000E-01  2.02826250000E-01 -4.95460790000E-01

  39  39   1    8 O    -3.18493530000E-01  3.62969800000E-01  4.96742480000E-01

  40  40   1    8 O     2.41949550000E-01 -3.57106620000E-01  4.99371280000E-01

  41  41   1    8 O     2.41571870000E-01  4.83143530000E-01 -4.95460790000E-01

  42  42   1    8 O     4.01090890000E-01 -3.56718230000E-01  4.96742460000E-01

 NUMBER OF SYMMETRY OPERATORS         :    1
 *******************************************************************************
 * GEOMETRY EDITING - INPUT COORDINATES ARE GIVEN IN ANGSTROM         
 *******************************************************************************

 GCALCO - MAX INDICES DIRECT LATTICE VECTOR    10    10    31
 NO.OF VECTORS CREATED 6999 STARS 3500 RMAX   207.89932 BOHR

 GEOMETRY FOR WAVE FUNCTION - DIMENSIONALITY OF THE SYSTEM    3
 (NON PERIODIC DIRECTION: LATTICE PARAMETER FORMALLY SET TO 500)
 *******************************************************************************
 LATTICE PARAMETERS (ANGSTROMS AND DEGREES) - BOHR = 0.5291772083 ANGSTROM
 PRIMITIVE CELL - CENTRING CODE 1/0 VOLUME=   801.476686 - DENSITY  0.808 g/cm^3
         A              B              C           ALPHA      BETA       GAMMA 
    15.02361100    15.02391600     4.56179800    67.685123  89.999949 119.995964
 *******************************************************************************
 ATOMS IN THE ASYMMETRIC UNIT   42 - ATOMS IN THE UNIT CELL:   42
     ATOM                 X/A                 Y/B                 Z/C    
 *******************************************************************************
      1 T   5 B    -4.248321600000E-01  1.502850000000E-01 -4.988363900000E-01
      2 T   5 B    -2.657765000000E-01  3.093446500000E-01 -4.988363800000E-01
      3 T   5 B    -4.246481900000E-01  3.097039600000E-01  4.987140700000E-01
      4 T   5 B     1.887425500000E-01 -4.634000100000E-01 -4.988363800000E-01
      5 T   5 B     3.478505200000E-01 -4.634207700000E-01 -4.988363900000E-01
      6 T   5 B     3.480190400000E-01 -3.039050600000E-01  4.987140700000E-01
      7 T   1 H    -1.350788200000E-01  2.326774200000E-01  4.960852000000E-01
      8 T   1 H     5.857177000000E-02 -3.850798200000E-01  4.953086300000E-01
      9 T   1 H    -1.350821600000E-01 -4.820424600000E-01  4.951891100000E-01
     10 T   1 H     5.868031000000E-02  3.295654700000E-01  4.952189200000E-01
     11 T   1 H    -3.476915000000E-01  1.954845000000E-02 -4.960880600000E-01
     12 T   1 H     2.701461400000E-01 -1.741377300000E-01 -4.953114300000E-01
     13 T   1 H     3.670772200000E-01  1.945656000000E-02 -4.951918400000E-01
     14 T   1 H    -4.444782500000E-01 -1.742414900000E-01 -4.952218500000E-01
     15 T   1 H    -3.470497000000E-01 -4.821984200000E-01  4.960852400000E-01
     16 T   1 H     2.708990700000E-01  3.294760800000E-01  4.953085800000E-01
     17 T   1 H     3.677870000000E-01  2.327083700000E-01  4.951890200000E-01
     18 T   1 H    -4.437650000000E-01 -3.851615600000E-01  4.952190200000E-01
     19 T   6 C    -1.464272600000E-01  3.693007600000E-01  4.986244400000E-01
     20 T   6 C    -9.164251000000E-02  3.165146300000E-01  4.962047100000E-01
     21 T   6 C     1.527256000000E-02 -4.690535700000E-01  4.959956800000E-01
     22 T   6 C    -9.171166000000E-02  4.773569000000E-01  4.966230000000E-01
     23 T   6 C     1.538654000000E-02  3.701626400000E-01  4.950098100000E-01
     24 T   6 C     6.986983000000E-02  4.776957500000E-01  4.966528400000E-01
     25 T   6 C    -4.844893500000E-01  3.110309000000E-02 -4.986272600000E-01
     26 T   6 C    -4.315368600000E-01 -2.388135000000E-02 -4.962075900000E-01
     27 T   6 C     3.540678900000E-01 -1.308062800000E-01 -4.959984800000E-01
     28 T   6 C     4.076050100000E-01 -2.377015000000E-02 -4.966257800000E-01
     29 T   6 C    -4.850896800000E-01 -1.309974000000E-01 -4.950127000000E-01
     30 T   6 C     4.072476300000E-01 -1.853763600000E-01 -4.966556900000E-01
     31 T   6 C    -4.842727000000E-01  3.692316200000E-01  4.986244400000E-01
     32 T   6 C    -4.309214100000E-01  4.773547700000E-01  4.962047600000E-01
     33 T   6 C     3.547078100000E-01  3.699331700000E-01  4.959956300000E-01
     34 T   6 C     4.081235000000E-01  3.163547100000E-01  4.966229300000E-01
     35 T   6 C    -4.842968400000E-01 -4.689893400000E-01  4.950098800000E-01
     36 T   6 C     4.077939200000E-01  4.776183500000E-01  4.966528400000E-01
     37 T   8 O    -4.776382800000E-01  2.036129100000E-01  4.993712600000E-01
     38 T   8 O    -3.190904000000E-01  2.028262500000E-01 -4.954607900000E-01
     39 T   8 O    -3.184935300000E-01  3.629698000000E-01  4.967424800000E-01
     40 T   8 O     2.419495500000E-01 -3.571066200000E-01  4.993712800000E-01
     41 T   8 O     2.415718700000E-01  4.831435300000E-01 -4.954607900000E-01
     42 T   8 O     4.010908900000E-01 -3.567182300000E-01  4.967424600000E-01

 T = ATOM BELONGING TO THE ASYMMETRIC UNIT

 ****    1 SYMMOPS - TRANSLATORS IN FRACTIONAL UNITS
 **** MATRICES AND TRANSLATORS IN THE CRYSTALLOGRAPHIC REFERENCE FRAME
   V INV                    ROTATION MATRICES                   TRANSLATORS
   1   1  1.00  0.00  0.00  0.00  1.00  0.00 -0.00 -0.00  1.00  0.00  0.00  0.00

 DIRECT LATTICE VECTORS CARTESIAN COMPONENTS (ANGSTROM)
          X                    Y                    Z
   0.130113578931E+02  -0.751088897922E+01   0.000000000000E+00
   0.000000000000E+00   0.150239160000E+02   0.000000000000E+00
   0.999869367164E+00   0.173209818632E+01   0.410001196515E+01


 CARTESIAN COORDINATES - PRIMITIVE CELL
 *******************************************************************************
 *      ATOM          X(ANGSTROM)         Y(ANGSTROM)         Z(ANGSTROM)
 *******************************************************************************
    1     5 B    -6.026414503828E+00  4.584702798233E+00 -2.045235167652E+00
    2     5 B    -3.956884376653E+00  5.779752232367E+00 -2.045235126652E+00
    3     5 B     6.984887868730E+00 -5.367137391733E-01 -2.055278310961E+00
    4     5 B     1.957025652109E+00  5.780175247589E+00 -2.045235126652E+00
    5     5 B     4.027236383418E+00  4.584821035394E+00 -2.045235167652E+00
    6     5 B     4.026979837441E+00  6.975863084312E+00 -2.055278310961E+00
    7     1 H    -2.261407842972E+00  3.637458122502E+00 -2.066056709416E+00
    8     1 H     1.257342188329E+00 -5.367409751071E+00  2.030771309442E+00
    9     1 H    -1.262477906685E+00 -5.369862161325E+00  2.030281276012E+00
   10     1 H     2.587953756694E-01  3.636292250949E+00 -2.069608467781E+00
   11     1 H    -5.019961797484E+00  2.045893297268E+00 -2.033966981768E+00
   12     1 H     4.019590752069E+00 -3.771098136902E+00  2.069229175674E+00
   13     1 H     4.281045932123E+00 -3.322483411074E+00 -2.030292469044E+00
   14     1 H    -5.278553377031E+00  1.594962598059E+00  2.069596454746E+00
   15     1 H    -4.019567418400E+00 -3.778588445979E+00  2.033955419734E+00
   16     1 H     3.020139261938E+00  2.041153017354E+00 -2.069240860708E+00
   17     1 H     4.280663250303E+00 -1.405985045133E-01 -2.069731058139E+00
   18     1 H    -5.278830907277E+00 -1.595797309635E+00  2.030403907369E+00
   19     6 C    -2.406527549048E+00  5.779710792227E+00 -2.055645795033E+00
   20     6 C    -1.696122973621E+00  4.570983024194E+00 -2.065566716986E+00
   21     6 C     6.946476307810E-01 -6.302618720019E+00  2.033588222662E+00
   22     6 C    -6.967351064971E-01 -6.303110138436E+00  2.036160242168E+00
   23     6 C    -3.047244430236E-01  4.571033223777E+00 -2.070465821283E+00
   24     6 C     4.058199577239E-01  5.780229582506E+00 -2.063729378624E+00
   25     6 C     6.208931441925E+00 -4.268324420948E+00 -2.044377732150E+00
   26     6 C    -5.111153931337E+00  3.755051969175E+00  2.065554908951E+00
   27     6 C     5.110839716082E+00 -3.751607057195E+00  2.066412262453E+00
   28     6 C     5.806803126911E+00 -2.546703140889E+00  2.063840324948E+00
   29     6 C    -5.806754104631E+00  2.550048384069E+00  2.070453972248E+00
   30     6 C     5.802123221735E+00 -4.972028830561E+00  2.063717693590E+00
   31     6 C     6.209002411631E+00  8.053026514330E-01 -2.055645795033E+00
   32     6 C    -5.110732749925E+00 -3.756099799205E+00  2.034445453164E+00
   33     6 C     4.111291732892E+00  2.020688835550E+00 -2.066423947487E+00
   34     6 C     4.806929610641E+00  8.156177809543E-01 -2.063852009982E+00
   35     6 C    -5.806414296261E+00 -2.551150935473E+00  2.029546430867E+00
   36     6 C     4.802671233399E+00  3.240956408015E+00 -2.063729378624E+00
   37     8 O     6.296071947105E+00 -1.731475762129E+00 -2.052583824098E+00
   38     8 O    -4.647195461191E+00  4.585710375578E+00 -2.031395167262E+00
   39     8 O    -3.647355716332E+00 -6.318111921160E+00  2.036650111598E+00
   40     8 O     3.647398232828E+00 -6.317435982158E+00  2.047428223052E+00
   41     8 O     2.647781990913E+00  4.586101578841E+00 -2.031395167262E+00
   42     8 O    -7.295943206498E+00 -5.581753044629E-04  2.036650029598E+00

 *******************************************************************************
 STARTING BASIS SET HANDLING 
 *******************************************************************************

 Loading internal basis set: SOLDEF2MSVP         

 Please cite in your publication:
 L. Dona', J. G. Brandenburg and B. Civalleri, J. Chem. Phys., 151, 121101 (2019
 )                                                                              
                                                                                
                    

 *******************************************************************************
 LOCAL ATOMIC FUNCTIONS BASIS SET
 *******************************************************************************
   ATOM   X(AU)   Y(AU)   Z(AU)  N. TYPE  EXPONENT  S COEF   P COEF   D/F/G COEF
 *******************************************************************************
   1 B  -11.388   8.664  -3.865
                                  1 S  
                                         2.410E+03 1.755E-03 0.000E+00 0.000E+00
                                         3.619E+02 1.344E-02 0.000E+00 0.000E+00
                                         8.231E+01 6.637E-02 0.000E+00 0.000E+00
                                         2.311E+01 2.303E-01 0.000E+00 0.000E+00
                                         7.252E+00 5.150E-01 0.000E+00 0.000E+00
                                  2 S  
                                         2.367E+00 1.000E+00 0.000E+00 0.000E+00
                                  3 S  
                                         5.533E-01 1.000E+00 0.000E+00 0.000E+00
                                  4 S  
                                         1.716E-01 1.000E+00 0.000E+00 0.000E+00
                           5-     7 P  
                                         6.002E+00 0.000E+00-3.555E-02 0.000E+00
                                         1.240E+00 0.000E+00-1.983E-01 0.000E+00
                                         3.367E-01 0.000E+00-5.048E-01 0.000E+00
                           8-    10 P  
                                         1.256E-01 0.000E+00 1.000E+00 0.000E+00
                          11-    15 D  
                                         8.880E-01 0.000E+00 0.000E+00 1.000E+00
   2 B   -7.477  10.922  -3.865
   3 B   13.200  -1.014  -3.884
   4 B    3.698  10.923  -3.865
   5 B    7.610   8.664  -3.865
   6 B    7.610  13.182  -3.884
   7 H   -4.273   6.874  -3.904
                                 91 S  
                                         1.874E+01 1.968E-02 0.000E+00 0.000E+00
                                         2.826E+00 1.380E-01 0.000E+00 0.000E+00
                                         6.401E-01 4.783E-01 0.000E+00 0.000E+00
                                 92 S  
                                         1.756E-01 1.000E+00 0.000E+00 0.000E+00
   8 H    2.376 -10.143   3.838
   9 H   -2.386 -10.148   3.837
  10 H    0.489   6.872  -3.911
  11 H   -9.486   3.866  -3.844
  12 H    7.596  -7.126   3.910
  13 H    8.090  -6.279  -3.837
  14 H   -9.975   3.014   3.911
  15 H   -7.596  -7.140   3.844
  16 H    5.707   3.857  -3.910
  17 H    8.089  -0.266  -3.911
  18 H   -9.976  -3.016   3.837
  19 C   -4.548  10.922  -3.885
                                115 S  
                                         3.624E+03 1.634E-03 0.000E+00 0.000E+00
                                         5.440E+02 1.252E-02 0.000E+00 0.000E+00
                                         1.237E+02 6.211E-02 0.000E+00 0.000E+00
                                         3.476E+01 2.182E-01 0.000E+00 0.000E+00
                                         1.093E+01 4.980E-01 0.000E+00 0.000E+00
                                116 S  
                                         3.574E+00 1.000E+00 0.000E+00 0.000E+00
                                117 S  
                                         7.742E-01 1.000E+00 0.000E+00 0.000E+00
                                118 S  
                                         2.330E-01 1.000E+00 0.000E+00 0.000E+00
                         119-   121 P  
                                         9.443E+00 0.000E+00 3.790E-02 0.000E+00
                                         2.002E+00 0.000E+00 2.082E-01 0.000E+00
                                         5.463E-01 0.000E+00 5.047E-01 0.000E+00
                         122-   124 P  
                                         1.820E-01 0.000E+00 1.000E+00 0.000E+00
                         125-   129 D  
                                         8.880E-01 0.000E+00 0.000E+00 1.000E+00
  20 C   -3.205   8.638  -3.903
  21 C    1.313 -11.910   3.843
  22 C   -1.317 -11.911   3.848
  23 C   -0.576   8.638  -3.913
  24 C    0.767  10.923  -3.900
  25 C   11.733  -8.066  -3.863
  26 C   -9.659   7.096   3.903
  27 C    9.658  -7.090   3.905
  28 C   10.973  -4.813   3.900
  29 C  -10.973   4.819   3.913
  30 C   10.964  -9.396   3.900
  31 C   11.733   1.522  -3.885
  32 C   -9.658  -7.098   3.845
  33 C    7.769   3.819  -3.905
  34 C    9.084   1.541  -3.900
  35 C  -10.973  -4.821   3.835
  36 C    9.076   6.125  -3.900
  37 O   11.898  -3.272  -3.879
                                385 S  
                                         6.773E+03 1.727E-03 0.000E+00 0.000E+00
                                         1.017E+03 1.325E-02 0.000E+00 0.000E+00
                                         2.313E+02 6.603E-02 0.000E+00 0.000E+00
                                         6.501E+01 2.353E-01 0.000E+00 0.000E+00
                                         2.050E+01 5.498E-01 0.000E+00 0.000E+00
                                386 S  
                                         6.716E+00 1.000E+00 0.000E+00 0.000E+00
                                387 S  
                                         1.147E+00 1.000E+00 0.000E+00 0.000E+00
                                388 S  
                                         3.342E-01 1.000E+00 0.000E+00 0.000E+00
                         389-   391 P  
                                         1.769E+01 0.000E+00 4.359E-02 0.000E+00
                                         3.854E+00 0.000E+00 2.318E-01 0.000E+00
                                         1.047E+00 0.000E+00 5.146E-01 0.000E+00
                         392-   394 P  
                                         2.759E-01 0.000E+00 1.000E+00 0.000E+00
                         395-   399 D  
                                         8.000E-01 0.000E+00 0.000E+00 1.000E+00
  38 O   -8.782   8.666  -3.839
  39 O   -6.893 -11.940   3.849
  40 O    6.893 -11.938   3.869
  41 O    5.004   8.666  -3.839
  42 O  -13.787  -0.001   3.849

 *******************************************************************************
 FINISHED BASIS SET HANDLING 
 *******************************************************************************

 INFORMATION **** SET_MPP **** PCRYSTAL CALCULATION
 INFORMATION **** READM2 **** NEW DEFAULT: FOCK/KS MATRIX MIXING SET TO 30 %
 INFORMATION **** READM2 **** NEW DEFAULT: FULL DIRECT SCF MODE
 INFORMATION **** READM2 **** NEW DEFAULT: COULOMB BIPOLAR BUFFER SET TO 32 Mb
 INFORMATION **** READM2 **** NEW DEFAULT: EXCHANGE BIPOLAR BUFFER SET TO 32 Mb

 *******************************************************************************
 NEW DEFAULT: DFT INTEGRATION GRID INCREASED TO XLGRID
 NEW DEFAULT: DIIS ACCELERATOR ACTIVE
 USE KEYWORD NODIIS TO TURN IT OFF
 *******************************************************************************

 WARNING **** RDDFTP **** HSEsol-HJS ACTIVE
 RANGE SEPARATION - OMEGA:   0.110000000000000     
 WARNING **** RDDFTP **** HSEsol-3c has to be combined with sol-def2-mSVP basis set
 *******************************************************************************
 N. OF ATOMS PER CELL        42  COULOMB OVERLAP TOL         (T1) 10**   -6
 NUMBER OF SHELLS           234  COULOMB PENETRATION TOL     (T2) 10**   -6
 NUMBER OF AO               474  EXCHANGE OVERLAP TOL        (T3) 10**   -6
 N. OF ELECTRONS PER CELL   198  EXCHANGE PSEUDO OVP (F(G))  (T4) 10**   -6
 CORE ELECTRONS PER CELL     60  EXCHANGE PSEUDO OVP (P(G))  (T5) 10**  -12
 N. OF SYMMETRY OPERATORS     1  POLE ORDER IN MONO ZONE                  4
 *******************************************************************************
 TYPE OF CALCULATION :  RESTRICTED CLOSED SHELL
 KOHN-SHAM HAMILTONIAN

 (EXCHANGE)[CORRELATION] FUNCTIONAL:(HSEsol GGA)[PBEsol]

 RANGE-SEPARATED HYBRID FUNCTIONAL 
 OMEGA (SHORT-RANGE)[LONG-RANGE]:(    0.1100)[    0.0000]

 HYBRID EXCHANGE - PERCENTAGE OF FOCK EXCHANGE    25.0000

 CAPPA:IS1  2;IS2  2;IS3  8; K PTS MONK NET  20; SYMMOPS:K SPACE   2;G SPACE   1

 *******************************************************************************
 MAX NUMBER OF SCF CYCLES      50  CONVERGENCE ON DELTAP        10**-16
 WEIGHT OF F(I) IN F(I+1)      30% CONVERGENCE ON ENERGY        10**- 6
 SHRINK. FACT.(MONKH.)    2  2  8  NUMBER OF K POINTS IN THE IBZ     20
 SHRINKING FACTOR(GILAT NET)    8  NUMBER OF K POINTS(GILAT NET)   1028
 *******************************************************************************
 *** K POINTS COORDINATES (OBLIQUE COORDINATES IN UNITS OF IS =  2)
   1-R(  0  0  0)   2-R(  1  0  0)   3-R(  0  1  0)   4-R(  1  1  0)
   5-C(  0  0  1)   6-C(  1  0  1)   7-C(  0  1  1)   8-C(  1  1  1)
   9-C(  0  0  2)  10-C(  1  0  2)  11-C(  0  1  2)  12-C(  1  1  2)
  13-C(  0  0  3)  14-C(  1  0  3)  15-C(  0  1  3)  16-C(  1  1  3)
  17-R(  0  0  4)  18-R(  1  0  4)  19-R(  0  1  4)  20-R(  1  1  4)

 DIRECT LATTICE VECTORS COMPON. (A.U.)     RECIP. LATTICE VECTORS COMPON. (A.U.) 
        X            Y            Z              X            Y            Z
   24.5879030  -14.1935232    0.0000000      0.2555397    0.0000000   -0.0623184
    0.0000000   28.3910867    0.0000000      0.1277517    0.2213084   -0.1246491
    1.8894793    3.2731912    7.7478998      0.0000000    0.0000000    0.8109534

 DISK SPACE FOR EIGENVECTORS (FTN 10)     7189632 REALS

 SYMMETRY ADAPTION OF THE BLOCH FUNCTIONS DISABLED
 TTTTTTTTTTTTTTTTTTTTTTTTTTTTTT gordsh1     TELAPSE        0.04 TCPU        0.04

 MATRIX SIZE: P(G)  319748, F(G)   66813, P(G) IRR  161371, F(G) IRR   67509
 MAX G-VECTOR INDEX FOR 1- AND 2-ELECTRON INTEGRALS  73

 TTTTTTTTTTTTTTTTTTTTTTTTTTTTTT INPUT       TELAPSE        0.30 TCPU        0.30

 NEIGHBORS OF THE NON-EQUIVALENT ATOMS

 N = NUMBER OF NEIGHBORS AT DISTANCE R
    ATOM  N     R/ANG      R/AU   NEIGHBORS (ATOM LABELS AND CELL INDICES)
   1 B    1     1.3791     2.6061   37 O   -1 0 0
   1 B    1     1.3793     2.6065   38 O    0 0 0
   1 B    1     1.5503     2.9297   25 C   -1 0 0
   1 B    1     2.3895     4.5155    3 B   -1 0 0
   1 B    1     2.3898     4.5160    2 B    0 0 0
   1 B    1     2.5632     4.8437   26 C    0 0-1

   2 B    1     1.3793     2.6065   39 O    0 1-1
   2 B    1     1.3793     2.6065   38 O    0 0 0
   2 B    1     1.5504     2.9298   19 C    0 0 0
   2 B    1     2.3895     4.5156    3 B   -1 0 0
   2 B    1     2.3898     4.5160    1 B    0 0 0
   2 B    1     2.5634     4.8440   22 C    0 1-1

   3 B    1     1.3791     2.6061   37 O    0 0 0
   3 B    1     1.3793     2.6064   39 O    1 1-1
   3 B    1     1.5502     2.9294   31 C    0 0 0
   3 B    1     2.3895     4.5155    1 B    1 0 0
   3 B    1     2.3895     4.5156    2 B    1 0 0
   3 B    1     2.5629     4.8433   32 C    1 1-1

   4 B    1     1.3795     2.6068   40 O    0 1-1
   4 B    1     1.3795     2.6070   41 O    0 0 0
   4 B    1     1.5513     2.9316   24 C    0 0 0
   4 B    1     2.3905     4.5174    6 B    0 0 0
   4 B    1     2.3905     4.5175    5 B    0 0 0
   4 B    1     2.5648     4.8468   23 C    0 0 0

   5 B    1     1.3795     2.6069   41 O    0 0 0
   5 B    1     1.3797     2.6072   42 O    1 1-1
   5 B    1     1.5516     2.9322   36 C    0 0 0
   5 B    1     2.3905     4.5175    4 B    0 0 0
   5 B    1     2.3911     4.5185    6 B    0 0 0
   5 B    1     2.5651     4.8473   35 C    1 1-1

   6 B    1     1.3795     2.6068   40 O    0 1-1
   6 B    1     1.3796     2.6071   42 O    1 1-1
   6 B    1     1.5516     2.9322   30 C    0 1-1
   6 B    1     2.3905     4.5174    4 B    0 0 0
   6 B    1     2.3911     4.5185    5 B    0 0 0
   6 B    1     2.5651     4.8473   29 C    1 1-1

   7 H    1     1.0913     2.0623   20 C    0 0 0
   7 H    1     2.1472     4.0576   19 C    0 0 0
   7 H    1     2.1680     4.0969   23 C    0 0 0
   7 H    1     2.5202     4.7625   10 H    0 0 0
   7 H    1     2.5676     4.8520   38 O    0 0 0
   7 H    1     2.7321     5.1630    2 B    0 0 0

   8 H    1     1.0914     2.0625   21 C    0 0 0
   8 H    1     2.1493     4.0616   24 C    0-1 1
   8 H    1     2.1666     4.0942   22 C    0 0 0
   8 H    1     2.5198     4.7618    9 H    0 0 0
   8 H    1     2.5720     4.8604   40 O    0 0 0
   8 H    1     2.7362     5.1707    4 B    0-1 1

   9 H    1     1.0914     2.0624   22 C    0 0 0
   9 H    1     2.1471     4.0575   19 C    0-1 1
   9 H    1     2.1680     4.0970   21 C    0 0 0
   9 H    1     2.5198     4.7618    8 H    0 0 0
   9 H    1     2.5665     4.8500   39 O    0 0 0
   9 H    1     2.7315     5.1618    2 B    0-1 1

  10 H    1     1.0915     2.0626   23 C    0 0 0
  10 H    1     2.1490     4.0610   24 C    0 0 0
  10 H    1     2.1669     4.0948   20 C    0 0 0
  10 H    1     2.5202     4.7625    7 H    0 0 0
  10 H    1     2.5712     4.8588   41 O    0 0 0
  10 H    1     2.7351     5.1686    4 B    0 0 0

  11 H    1     1.0913     2.0623   26 C    0 0-1
  11 H    1     2.1469     4.0571   25 C   -1 0 0
  11 H    1     2.1680     4.0968   29 C    0 0-1
  11 H    1     2.5198     4.7617   14 H    0 0-1
  11 H    1     2.5670     4.8510   38 O    0 0 0
  11 H    1     2.7310     5.1609    1 B    0 0 0

  12 H    1     1.0914     2.0625   27 C    0 0 0
  12 H    1     2.1493     4.0617   30 C    0 0 0
  12 H    1     2.1664     4.0939   28 C    0 0 0
  12 H    1     2.5192     4.7606   13 H    0 0 1
  12 H    1     2.5735     4.8632   40 O    0 0 0
  12 H    1     2.7371     5.1723    6 B    0-1 1

  13 H    1     1.0914     2.0624   28 C    0 0-1
  13 H    1     2.1475     4.0581   25 C    0 0 0
  13 H    1     2.1679     4.0967   27 C    0 0-1
  13 H    1     2.5192     4.7606   12 H    0 0-1
  13 H    1     2.5675     4.8519   37 O    0 0 0
  13 H    1     2.7328     5.1643    1 B    1 0 0

  14 H    1     1.0914     2.0625   29 C    0 0 0
  14 H    1     2.1491     4.0612   30 C   -1 0 0
  14 H    1     2.1666     4.0942   26 C    0 0 0
  14 H    1     2.5198     4.7617   11 H    0 0 1
  14 H    1     2.5723     4.8609   42 O    0 0 0
  14 H    1     2.7355     5.1693    6 B   -1-1 1

  15 H    1     1.0914     2.0624   32 C    0 0 0
  15 H    1     2.1475     4.0582   31 C   -1-1 1
  15 H    1     2.1678     4.0966   35 C    0 0 0
  15 H    1     2.5200     4.7621   18 H    0 0 0
  15 H    1     2.5667     4.8503   39 O    0 0 0
  15 H    1     2.7315     5.1618    3 B   -1-1 1

  16 H    1     1.0913     2.0623   33 C    0 0 0
  16 H    1     2.1487     4.0605   36 C    0 0 0
  16 H    1     2.1667     4.0945   34 C    0 0 0
  16 H    1     2.5197     4.7616   17 H    0 0 0
  16 H    1     2.5723     4.8610   41 O    0 0 0
  16 H    1     2.7359     5.1701    5 B    0 0 0

  17 H    1     1.0915     2.0626   34 C    0 0 0
  17 H    1     2.1479     4.0589   31 C    0 0 0
  17 H    1     2.1679     4.0968   33 C    0 0 0
  17 H    1     2.5197     4.7616   16 H    0 0 0
  17 H    1     2.5677     4.8522   37 O    0 0 0
  17 H    1     2.7331     5.1648    3 B    0 0 0

  18 H    1     1.0914     2.0624   35 C    0 0 0
  18 H    1     2.1486     4.0602   36 C   -1-1 1
  18 H    1     2.1668     4.0947   32 C    0 0 0
  18 H    1     2.5200     4.7621   15 H    0 0 0
  18 H    1     2.5717     4.8598   42 O    0 0 0
  18 H    1     2.7349     5.1682    5 B   -1-1 1

  19 C    1     1.4020     2.6495   22 C    0 1-1
  19 C    1     1.4021     2.6495   20 C    0 0 0
  19 C    1     1.5504     2.9298    2 B    0 0 0
  19 C    1     2.1471     4.0575    9 H    0 1-1
  19 C    1     2.1472     4.0576    7 H    0 0 0
  19 C    1     2.4246     4.5817   21 C    0 1-1

  20 C    1     1.0913     2.0623    7 H    0 0 0
  20 C    1     1.3914     2.6294   23 C    0 0 0
  20 C    1     1.4021     2.6495   19 C    0 0 0
  20 C    1     2.1669     4.0948   10 H    0 0 0
  20 C    1     2.4177     4.5688   22 C    0 1-1
  20 C    1     2.4250     4.5825   24 C    0 0 0

  21 C    1     1.0914     2.0625    8 H    0 0 0
  21 C    1     1.3914     2.6293   22 C    0 0 0
  21 C    1     1.4026     2.6505   24 C    0-1 1
  21 C    1     2.1680     4.0970    9 H    0 0 0
  21 C    1     2.4182     4.5697   23 C    0-1 1
  21 C    1     2.4246     4.5817   19 C    0-1 1

  22 C    1     1.0914     2.0624    9 H    0 0 0
  22 C    1     1.3914     2.6293   21 C    0 0 0
  22 C    1     1.4020     2.6495   19 C    0-1 1
  22 C    1     2.1666     4.0942    8 H    0 0 0
  22 C    1     2.4177     4.5688   20 C    0-1 1
  22 C    1     2.4250     4.5826   24 C    0-1 1

  23 C    1     1.0915     2.0626   10 H    0 0 0
  23 C    1     1.3914     2.6294   20 C    0 0 0
  23 C    1     1.4025     2.6504   24 C    0 0 0
  23 C    1     2.1680     4.0969    7 H    0 0 0
  23 C    1     2.4182     4.5697   21 C    0 1-1
  23 C    1     2.4246     4.5818   19 C    0 0 0

  24 C    1     1.4025     2.6504   23 C    0 0 0
  24 C    1     1.4026     2.6505   21 C    0 1-1
  24 C    1     1.5513     2.9316    4 B    0 0 0
  24 C    1     2.1490     4.0610   10 H    0 0 0
  24 C    1     2.1493     4.0616    8 H    0 1-1
  24 C    1     2.4250     4.5825   20 C    0 0 0

  25 C    1     1.4020     2.6494   26 C    1 0-1
  25 C    1     1.4021     2.6495   28 C    0 0-1
  25 C    1     1.5503     2.9297    1 B    1 0 0
  25 C    1     2.1469     4.0571   11 H    1 0 0
  25 C    1     2.1475     4.0581   13 H    0 0 0
  25 C    1     2.4246     4.5818   27 C    0 0-1

  26 C    1     1.0913     2.0623   11 H    0 0 1
  26 C    1     1.3914     2.6293   29 C    0 0 0
  26 C    1     1.4020     2.6494   25 C   -1 0 1
  26 C    1     2.1666     4.0942   14 H    0 0 0
  26 C    1     2.4175     4.5684   28 C   -1 0 0
  26 C    1     2.4251     4.5828   30 C   -1 0 0

  27 C    1     1.0914     2.0625   12 H    0 0 0
  27 C    1     1.3915     2.6295   28 C    0 0 0
  27 C    1     1.4026     2.6505   30 C    0 0 0
  27 C    1     2.1679     4.0967   13 H    0 0 1
  27 C    1     2.4179     4.5691   29 C    1 0 0
  27 C    1     2.4246     4.5818   25 C    0 0 1

  28 C    1     1.0914     2.0624   13 H    0 0 1
  28 C    1     1.3915     2.6295   27 C    0 0 0
  28 C    1     1.4021     2.6495   25 C    0 0 1
  28 C    1     2.1664     4.0939   12 H    0 0 0
  28 C    1     2.4175     4.5684   26 C    1 0 0
  28 C    1     2.4253     4.5832   30 C    0 0 0

  29 C    1     1.0914     2.0625   14 H    0 0 0
  29 C    1     1.3914     2.6293   26 C    0 0 0
  29 C    1     1.4025     2.6504   30 C   -1 0 0
  29 C    1     2.1680     4.0968   11 H    0 0 1
  29 C    1     2.4179     4.5691   27 C   -1 0 0
  29 C    1     2.4247     4.5819   25 C   -1 0 1

  30 C    1     1.4025     2.6504   29 C    1 0 0
  30 C    1     1.4026     2.6505   27 C    0 0 0
  30 C    1     1.5516     2.9322    6 B    0-1 1
  30 C    1     2.1491     4.0612   14 H    1 0 0
  30 C    1     2.1493     4.0617   12 H    0 0 0
  30 C    1     2.4251     4.5828   26 C    1 0 0

  31 C    1     1.4021     2.6496   32 C    1 1-1
  31 C    1     1.4021     2.6497   34 C    0 0 0
  31 C    1     1.5502     2.9294    3 B    0 0 0
  31 C    1     2.1475     4.0582   15 H    1 1-1
  31 C    1     2.1479     4.0589   17 H    0 0 0
  31 C    1     2.4244     4.5814   33 C    0 0 0

  32 C    1     1.0914     2.0624   15 H    0 0 0
  32 C    1     1.3914     2.6293   35 C    0 0 0
  32 C    1     1.4021     2.6496   31 C   -1-1 1
  32 C    1     2.1668     4.0947   18 H    0 0 0
  32 C    1     2.4179     4.5692   34 C   -1-1 1
  32 C    1     2.4251     4.5827   36 C   -1-1 1

  33 C    1     1.0913     2.0623   16 H    0 0 0
  33 C    1     1.3914     2.6294   34 C    0 0 0
  33 C    1     1.4025     2.6504   36 C    0 0 0
  33 C    1     2.1679     4.0968   17 H    0 0 0
  33 C    1     2.4178     4.5690   35 C    1 1-1
  33 C    1     2.4244     4.5814   31 C    0 0 0

  34 C    1     1.0915     2.0626   17 H    0 0 0
  34 C    1     1.3914     2.6294   33 C    0 0 0
  34 C    1     1.4021     2.6497   31 C    0 0 0
  34 C    1     2.1667     4.0945   16 H    0 0 0
  34 C    1     2.4179     4.5692   32 C    1 1-1
  34 C    1     2.4253     4.5832   36 C    0 0 0

  35 C    1     1.0914     2.0624   18 H    0 0 0
  35 C    1     1.3914     2.6293   32 C    0 0 0
  35 C    1     1.4025     2.6503   36 C   -1-1 1
  35 C    1     2.1678     4.0966   15 H    0 0 0
  35 C    1     2.4178     4.5690   33 C   -1-1 1
  35 C    1     2.4245     4.5817   31 C   -1-1 1

  36 C    1     1.4025     2.6503   35 C    1 1-1
  36 C    1     1.4025     2.6504   33 C    0 0 0
  36 C    1     1.5516     2.9322    5 B    0 0 0
  36 C    1     2.1486     4.0602   18 H    1 1-1
  36 C    1     2.1487     4.0605   16 H    0 0 0
  36 C    1     2.4251     4.5827   32 C    1 1-1

  37 O    1     1.3791     2.6061    1 B    1 0 0
  37 O    1     1.3791     2.6061    3 B    0 0 0
  37 O    1     2.3880     4.5126   38 O    1 0 0
  37 O    1     2.3882     4.5130   39 O    1 1-1
  37 O    1     2.5383     4.7966   31 C    0 0 0
  37 O    1     2.5384     4.7968   25 C    0 0 0

  38 O    1     1.3793     2.6065    1 B    0 0 0
  38 O    1     1.3793     2.6065    2 B    0 0 0
  38 O    1     2.3880     4.5126   37 O   -1 0 0
  38 O    1     2.3882     4.5131   39 O    0 1-1
  38 O    1     2.5391     4.7981   19 C    0 0 0
  38 O    1     2.5395     4.7990   25 C   -1 0 0

  39 O    1     1.3793     2.6064    3 B   -1-1 1
  39 O    1     1.3793     2.6065    2 B    0-1 1
  39 O    1     2.3882     4.5130   37 O   -1-1 1
  39 O    1     2.3882     4.5131   38 O    0-1 1
  39 O    1     2.5390     4.7980   19 C    0-1 1
  39 O    1     2.5391     4.7982   31 C   -1-1 1

  40 O    1     1.3795     2.6068    6 B    0-1 1
  40 O    1     1.3795     2.6068    4 B    0-1 1
  40 O    1     2.3880     4.5126   42 O    1 0 0
  40 O    1     2.3884     4.5134   41 O    0-1 1
  40 O    1     2.5400     4.7998   24 C    0-1 1
  40 O    1     2.5403     4.8005   30 C    0 0 0

  41 O    1     1.3795     2.6069    5 B    0 0 0
  41 O    1     1.3795     2.6070    4 B    0 0 0
  41 O    1     2.3881     4.5128   42 O    1 1-1
  41 O    1     2.3884     4.5134   40 O    0 1-1
  41 O    1     2.5404     4.8006   24 C    0 0 0
  41 O    1     2.5405     4.8008   36 C    0 0 0

  42 O    1     1.3796     2.6071    6 B   -1-1 1
  42 O    1     1.3797     2.6072    5 B   -1-1 1
  42 O    1     2.3880     4.5126   40 O   -1 0 0
  42 O    1     2.3881     4.5128   41 O   -1-1 1
  42 O    1     2.5409     4.8016   36 C   -1-1 1
  42 O    1     2.5410     4.8019   30 C   -1 0 0


 SYMMETRY ALLOWED INTERNAL DEGREE(S) OF FREEDOM: 123
 TTTTTTTTTTTTTTTTTTTTTTTTTTTTTT SYMM        TELAPSE        0.30 TCPU        0.30
 TTTTTTTTTTTTTTTTTTTTTTTTTTTTTT INT_SCREEN  TELAPSE        0.33 TCPU        0.33

 DFT PARAMETERS

     ATOM       ELECTRONS   NET CHARGE   R(ANGSTROM)
   1   5  B       5.0000      0.0000     0.89000000
   7   1  H       1.0000      0.0000     1.11000000
  19   6  C       6.0000      0.0000     0.77000000
  37   8  O       8.0000      0.0000     0.74000000

 SIZE OF GRID=    1317671
 TTTTTTTTTTTTTTTTTTTTTTTTTTTTTT MAKE_GRID2  TELAPSE        9.29 TCPU        9.28
 BECKE WEIGHT FUNCTION
 RADSAFE =     2.00
 TOLERANCES - DENSITY:10**- 6; POTENTIAL:10**- 9; GRID WGT:10**-14

 RADIAL INTEGRATION  - INTERVALS (POINTS,UPPER LIMIT):            1( 75,  4.0*R)

 ANGULAR INTEGRATION - INTERVALS (ACCURACY LEVEL [N. POINTS] UPPER LIMIT):
  1(  4[  86]   0.2)  2(  8[ 194]   0.5)  3( 12[ 350]   0.9)  4( 16[ 974]   3.5)
  5( 12[ 350]9999.0)
 TTTTTTTTTTTTTTTTTTTTTTTTTTTTTT INT_CALC    TELAPSE        9.37 TCPU        9.36
 EEEEEEEEEE INT_CALC TERMINATION  DATE 19 02 2026 TIME 19:09:52.2

 *******************************************************************************
 cof-1_z41_L020_incl                                                             
 CRYSTAL - SCF - TYPE OF CALCULATION :  RESTRICTED CLOSED SHELL
 *******************************************************************************

 CAPPA:IS1  2;IS2  2;IS3  8; K PTS MONK NET  20; SYMMOPS:K SPACE   2;G SPACE   1

 TTTTTTTTTTTTTTTTTTTTTTTTTTTTTT SDIK        TELAPSE       10.07 TCPU       17.28

 AAAAAAAAAAAAAAAAAAAAAAAAAAAAAAAAAAAAAAAAAAAAAAAAAAAAAAAAAAAAAAAAAAAAAAAAAAAAAAA
         ATOMIC WAVEFUNCTION(S)


 NUCLEAR CHARGE  5.0  SYMMETRY SPECIES            S    P
 N. ELECTRONS    5.0  NUMBER OF PRIMITIVE GTOS    8    4
                      NUMBER OF CONTRACTED GTOS   4    2
                      NUMBER OF CLOSED SHELLS     2    0
                      OPEN SHELL OCCUPATION       0    1

  ZNUC  SCFIT    TOTAL HF ENERGY   KINETIC ENERGY   VIRIAL THEOREM ACCURACY
   5.0    11    -2.451164084E+01  2.462155050E+01 -1.995536038E+00  1.5E-06

 NUCLEAR CHARGE  1.0  SYMMETRY SPECIES            S
 N. ELECTRONS    1.0  NUMBER OF PRIMITIVE GTOS    4
                      NUMBER OF CONTRACTED GTOS   2
                      NUMBER OF CLOSED SHELLS     0
                      OPEN SHELL OCCUPATION       1

  ZNUC  SCFIT    TOTAL HF ENERGY   KINETIC ENERGY   VIRIAL THEOREM ACCURACY
   1.0     1    -4.977266687E-01  5.190767460E-01 -1.958869132E+00  0.0E+00

 NUCLEAR CHARGE  6.0  SYMMETRY SPECIES            S    P
 N. ELECTRONS    6.0  NUMBER OF PRIMITIVE GTOS    8    4
                      NUMBER OF CONTRACTED GTOS   4    2
                      NUMBER OF CLOSED SHELLS     2    0
                      OPEN SHELL OCCUPATION       0    2

  ZNUC  SCFIT    TOTAL HF ENERGY   KINETIC ENERGY   VIRIAL THEOREM ACCURACY
   6.0     9    -3.766704647E+01  3.775180683E+01 -1.997754800E+00  1.1E-06

 NUCLEAR CHARGE  8.0  SYMMETRY SPECIES            S    P
 N. ELECTRONS    8.0  NUMBER OF PRIMITIVE GTOS    8    4
                      NUMBER OF CONTRACTED GTOS   4    2
                      NUMBER OF CLOSED SHELLS     2    0
                      OPEN SHELL OCCUPATION       0    4

  ZNUC  SCFIT    TOTAL HF ENERGY   KINETIC ENERGY   VIRIAL THEOREM ACCURACY
   8.0    12    -7.477373220E+01  7.477365593E+01 -2.000001020E+00  3.8E-06

 AAAAAAAAAAAAAAAAAAAAAAAAAAAAAAAAAAAAAAAAAAAAAAAAAAAAAAAAAAAAAAAAAAAAAAAAAAAAAAA

 CHARGE NORMALIZATION FACTOR   1.00000000
 TOTAL ATOMIC CHARGES:
   5.0000000   5.0000000   5.0000000   5.0000000   5.0000000   5.0000000
   1.0000000   1.0000000   1.0000000   1.0000000   1.0000000   1.0000000
   1.0000000   1.0000000   1.0000000   1.0000000   1.0000000   1.0000000
   6.0000000   6.0000000   6.0000000   6.0000000   6.0000000   6.0000000
   6.0000000   6.0000000   6.0000000   6.0000000   6.0000000   6.0000000
   6.0000000   6.0000000   6.0000000   6.0000000   6.0000000   6.0000000
   8.0000000   8.0000000   8.0000000   8.0000000   8.0000000   8.0000000
 TTTTTTTTTTTTTTTTTTTTTTTTTTTTTT MOQGAD      TELAPSE       10.12 TCPU       18.72
 TTTTTTTTTTTTTTTTTTTTTTTTTTTTTT SHELLXN     TELAPSE       17.08 TCPU      240.90
 TTTTTTTTTTTTTTTTTTTTTTTTTTTTTT MONMO3      TELAPSE       17.23 TCPU      245.62
 NUMERICALLY INTEGRATED DENSITY    197.9999544544
 TTTTTTTTTTTTTTTTTTTTTTTTTTTTTT NUMDFT      TELAPSE       17.77 TCPU      262.81
 CYC   0 ETOT(AU) -1.295956105605E+03 DETOT -1.30E+03 tst  0.00E+00 PX  1.00E+00
 TTTTTTTTTTTTTTTTTTTTTTTTTTTTTT DIIS        TELAPSE       17.80 TCPU      263.87
 TTTTTTTTTTTTTTTTTTTTTTTTTTTTTT FDIK        TELAPSE       18.28 TCPU      279.10
 INSULATING STATE
 TOP OF VALENCE BANDS -    BAND     99; K    1; EIG -3.1180260E-01 AU
 BOTTOM OF VIRTUAL BANDS - BAND    100; K    1; EIG -1.5713842E-01 AU
 DIRECT ENERGY BAND GAP:   4.2086 eV
 TTTTTTTTTTTTTTTTTTTTTTTTTTTTTT PDIG        TELAPSE       18.57 TCPU      285.24
 CHARGE NORMALIZATION FACTOR   1.00000000
 TOTAL ATOMIC CHARGES:
   4.1577846   4.1602775   4.1605996   4.1601676   4.1599555   4.1574475
   0.7853124   0.7854308   0.7852594   0.7853736   0.7853989   0.7855770
   0.7853887   0.7855405   0.7852559   0.7854332   0.7852642   0.7854242
   6.0444386   6.2660150   6.2660373   6.2653575   6.2652956   6.0437569
   6.0448977   6.2656816   6.2657668   6.2655829   6.2657816   6.0436872
   6.0448227   6.2651089   6.2656556   6.2656442   6.2663026   6.0432909
   8.6943177   8.6944473   8.6935553   8.6947712   8.6939557   8.6949383
 TTTTTTTTTTTTTTTTTTTTTTTTTTTTTT MOQGAD      TELAPSE       18.61 TCPU      285.28
 TTTTTTTTTTTTTTTTTTTTTTTTTTTTTT SHELLXN     TELAPSE       25.89 TCPU      517.42
 TTTTTTTTTTTTTTTTTTTTTTTTTTTTTT MONMO3      TELAPSE       26.04 TCPU      522.12
 NUMERICALLY INTEGRATED DENSITY    197.9999737015
 TTTTTTTTTTTTTTTTTTTTTTTTTTTTTT NUMDFT      TELAPSE       26.59 TCPU      539.57
 CYC   1 ETOT(AU) -1.288814256495E+03 DETOT  7.14E+00 tst  0.00E+00 PX  1.00E+00
 TTTTTTTTTTTTTTTTTTTTTTTTTTTTTT DIIS        TELAPSE       26.63 TCPU      540.94
 DIIS TEST: 0.11057E+01 AT SCF   CYCLE   1 - MIX   30 %
 TTTTTTTTTTTTTTTTTTTTTTTTTTTTTT FDIK        TELAPSE       27.12 TCPU      556.45
 INSULATING STATE
 TOP OF VALENCE BANDS -    BAND     99; K    1; EIG -2.2152406E-01 AU
 BOTTOM OF VIRTUAL BANDS - BAND    100; K    1; EIG -7.8936143E-02 AU
 DIRECT ENERGY BAND GAP:   3.8800 eV
 TTTTTTTTTTTTTTTTTTTTTTTTTTTTTT PDIG        TELAPSE       27.40 TCPU      562.60
 CHARGE NORMALIZATION FACTOR   1.00000000
 TOTAL ATOMIC CHARGES:
   4.7023384   4.7066814   4.7059809   4.7061213   4.7064231   4.7012717
   0.9132010   0.9133078   0.9164470   0.9165648   0.9124687   0.9123788
   0.9123967   0.9123149   0.9164288   0.9165857   0.9130963   0.9131446
   5.8647012   6.1211781   6.1215530   6.1375014   6.1392496   5.8672375
   5.8694553   6.1313894   6.1330384   6.1322927   6.1324536   5.8725596
   5.8645195   6.1376011   6.1392999   6.1214207   6.1215356   5.8676223
   8.3348566   8.3351325   8.3443265   8.3345753   8.3446063   8.3347421
 TTTTTTTTTTTTTTTTTTTTTTTTTTTTTT MOQGAD      TELAPSE       27.45 TCPU      562.64
 TTTTTTTTTTTTTTTTTTTTTTTTTTTTTT SHELLXN     TELAPSE       34.73 TCPU      794.71
 TTTTTTTTTTTTTTTTTTTTTTTTTTTTTT MONMO3      TELAPSE       34.88 TCPU      799.42
 NUMERICALLY INTEGRATED DENSITY    197.9999701950
 TTTTTTTTTTTTTTTTTTTTTTTTTTTTTT NUMDFT      TELAPSE       35.43 TCPU      817.01
 CYC   2 ETOT(AU) -1.289009459640E+03 DETOT -1.95E-01 tst  3.85E-03 PX  1.58E-01
 TTTTTTTTTTTTTTTTTTTTTTTTTTTTTT DIIS        TELAPSE       35.47 TCPU      818.53
 DIIS TEST: 0.46330E+00 AT SCF   CYCLE   2 - DIIS ACTIVE - HISTORY:     2 CYCLES
 TTTTTTTTTTTTTTTTTTTTTTTTTTTTTT FDIK        TELAPSE       35.96 TCPU      833.97
 INSULATING STATE
 TOP OF VALENCE BANDS -    BAND     99; K    1; EIG -2.3474422E-01 AU
 BOTTOM OF VIRTUAL BANDS - BAND    100; K    1; EIG -7.4666736E-02 AU
 DIRECT ENERGY BAND GAP:   4.3559 eV
 TTTTTTTTTTTTTTTTTTTTTTTTTTTTTT PDIG        TELAPSE       36.24 TCPU      840.10
 CHARGE NORMALIZATION FACTOR   1.00000000
 TOTAL ATOMIC CHARGES:
   4.4961825   4.4986937   4.4984261   4.4978790   4.4978891   4.4950366
   0.8891067   0.8892567   0.8916810   0.8918481   0.8890612   0.8893235
   0.8891611   0.8891408   0.8916607   0.8919021   0.8890385   0.8891399
   5.8895834   6.1603820   6.1604284   6.1598130   6.1588601   5.8886437
   5.8956189   6.1591951   6.1586038   6.1590948   6.1587686   5.8952901
   5.8901907   6.1599028   6.1588872   6.1603267   6.1605101   5.8882283
   8.5128816   8.5130981   8.5103142   8.5132991   8.5101462   8.5135060
 TTTTTTTTTTTTTTTTTTTTTTTTTTTTTT MOQGAD      TELAPSE       36.29 TCPU      840.15
 TTTTTTTTTTTTTTTTTTTTTTTTTTTTTT SHELLXN     TELAPSE       43.46 TCPU     1068.92
 TTTTTTTTTTTTTTTTTTTTTTTTTTTTTT MONMO3      TELAPSE       43.61 TCPU     1073.63
 NUMERICALLY INTEGRATED DENSITY    197.9999711085
 TTTTTTTTTTTTTTTTTTTTTTTTTTTTTT NUMDFT      TELAPSE       44.17 TCPU     1091.40
 CYC   3 ETOT(AU) -1.289106027421E+03 DETOT -9.66E-02 tst  7.24E-04 PX  6.30E-02
 TTTTTTTTTTTTTTTTTTTTTTTTTTTTTT DIIS        TELAPSE       44.22 TCPU     1093.16
 DIIS TEST: 0.12047E-01 AT SCF   CYCLE   3 - DIIS ACTIVE - HISTORY:     3 CYCLES
 TTTTTTTTTTTTTTTTTTTTTTTTTTTTTT FDIK        TELAPSE       44.71 TCPU     1108.89
 INSULATING STATE
 TOP OF VALENCE BANDS -    BAND     99; K    1; EIG -2.4578774E-01 AU
 BOTTOM OF VIRTUAL BANDS - BAND    100; K    1; EIG -8.3681015E-02 AU
 DIRECT ENERGY BAND GAP:   4.4112 eV
 TTTTTTTTTTTTTTTTTTTTTTTTTTTTTT PDIG        TELAPSE       45.00 TCPU     1115.03
 CHARGE NORMALIZATION FACTOR   1.00000000
 TOTAL ATOMIC CHARGES:
   4.5028567   4.5036450   4.5032100   4.5032507   4.5033707   4.5021984
   0.8725576   0.8727423   0.8742867   0.8742630   0.8713064   0.8712615
   0.8712533   0.8712112   0.8743219   0.8742661   0.8725084   0.8725909
   5.9382328   6.1582406   6.1584126   6.1688747   6.1715268   5.9414309
   5.9434301   6.1647653   6.1664163   6.1654909   6.1658421   5.9464217
   5.9381170   6.1687375   6.1717904   6.1581851   6.1585658   5.9417002
   8.4779152   8.4781131   8.4851840   8.4777617   8.4858654   8.4778790
 TTTTTTTTTTTTTTTTTTTTTTTTTTTTTT MOQGAD      TELAPSE       45.05 TCPU     1115.08
 TTTTTTTTTTTTTTTTTTTTTTTTTTTTTT SHELLXN     TELAPSE       52.31 TCPU     1346.56
 TTTTTTTTTTTTTTTTTTTTTTTTTTTTTT MONMO3      TELAPSE       52.46 TCPU     1351.42
 NUMERICALLY INTEGRATED DENSITY    197.9999711032
 TTTTTTTTTTTTTTTTTTTTTTTTTTTTTT NUMDFT      TELAPSE       53.01 TCPU     1368.99
 CYC   4 ETOT(AU) -1.289108515466E+03 DETOT -2.49E-03 tst  2.82E-05 PX  1.26E-02
 TTTTTTTTTTTTTTTTTTTTTTTTTTTTTT DIIS        TELAPSE       53.07 TCPU     1370.77
 DIIS TEST: 0.40725E-02 AT SCF   CYCLE   4 - DIIS ACTIVE - HISTORY:     4 CYCLES
 TTTTTTTTTTTTTTTTTTTTTTTTTTTTTT FDIK        TELAPSE       53.55 TCPU     1386.14
 INSULATING STATE
 TOP OF VALENCE BANDS -    BAND     99; K    1; EIG -2.4366222E-01 AU
 BOTTOM OF VIRTUAL BANDS - BAND    100; K    1; EIG -8.2965190E-02 AU
 DIRECT ENERGY BAND GAP:   4.3728 eV
 TTTTTTTTTTTTTTTTTTTTTTTTTTTTTT PDIG        TELAPSE       53.84 TCPU     1392.28
 CHARGE NORMALIZATION FACTOR   1.00000000
 TOTAL ATOMIC CHARGES:
   4.5033906   4.5060931   4.5056956   4.5053211   4.5053998   4.5022203
   0.8755654   0.8756990   0.8778178   0.8780465   0.8749712   0.8751792
   0.8750182   0.8750306   0.8777997   0.8780989   0.8754777   0.8755798
   5.9205209   6.1620155   6.1620334   6.1687944   6.1677344   5.9189411
   5.9249733   6.1658818   6.1655353   6.1659779   6.1655752   5.9243023
   5.9209366   6.1689081   6.1677432   6.1620060   6.1621330   5.9187048
   8.4901699   8.4903989   8.4917557   8.4904142   8.4915284   8.4906113
 TTTTTTTTTTTTTTTTTTTTTTTTTTTTTT MOQGAD      TELAPSE       53.89 TCPU     1392.33
 TTTTTTTTTTTTTTTTTTTTTTTTTTTTTT SHELLXN     TELAPSE       61.13 TCPU     1622.65
 TTTTTTTTTTTTTTTTTTTTTTTTTTTTTT MONMO3      TELAPSE       61.28 TCPU     1627.50
 NUMERICALLY INTEGRATED DENSITY    197.9999712462
 TTTTTTTTTTTTTTTTTTTTTTTTTTTTTT NUMDFT      TELAPSE       61.83 TCPU     1645.16
 CYC   5 ETOT(AU) -1.289109445112E+03 DETOT -9.30E-04 tst  6.01E-06 PX  6.74E-03
 TTTTTTTTTTTTTTTTTTTTTTTTTTTTTT DIIS        TELAPSE       61.90 TCPU     1647.22
 DIIS TEST: 0.84379E-04 AT SCF   CYCLE   5 - DIIS ACTIVE - HISTORY:     5 CYCLES
 TTTTTTTTTTTTTTTTTTTTTTTTTTTTTT FDIK        TELAPSE       62.38 TCPU     1662.72
 INSULATING STATE
 TOP OF VALENCE BANDS -    BAND     99; K    1; EIG -2.4341297E-01 AU
 BOTTOM OF VIRTUAL BANDS - BAND    100; K    1; EIG -8.2379597E-02 AU
 DIRECT ENERGY BAND GAP:   4.3819 eV
 TTTTTTTTTTTTTTTTTTTTTTTTTTTTTT PDIG        TELAPSE       62.67 TCPU     1668.86
 CHARGE NORMALIZATION FACTOR   1.00000000
 TOTAL ATOMIC CHARGES:
   4.5034764   4.5052763   4.5048835   4.5048920   4.5049910   4.5028083
   0.8765595   0.8767346   0.8789157   0.8788352   0.8760494   0.8760155
   0.8760258   0.8759413   0.8789452   0.8788405   0.8765006   0.8765909
   5.9172938   6.1609232   6.1613330   6.1663795   6.1696911   5.9219417
   5.9231312   6.1641389   6.1658745   6.1647195   6.1654111   5.9271141
   5.9173849   6.1662426   6.1699583   6.1608864   6.1614454   5.9220225
   8.4889102   8.4890916   8.4925582   8.4888783   8.4933895   8.4889985
 TTTTTTTTTTTTTTTTTTTTTTTTTTTTTT MOQGAD      TELAPSE       62.71 TCPU     1668.90
 TTTTTTTTTTTTTTTTTTTTTTTTTTTTTT SHELLXN     TELAPSE       69.95 TCPU     1899.23
 TTTTTTTTTTTTTTTTTTTTTTTTTTTTTT MONMO3      TELAPSE       70.10 TCPU     1904.00
 NUMERICALLY INTEGRATED DENSITY    197.9999712187
 TTTTTTTTTTTTTTTTTTTTTTTTTTTTTT NUMDFT      TELAPSE       70.64 TCPU     1921.48
 CYC   6 ETOT(AU) -1.289109455201E+03 DETOT -1.01E-05 tst  6.20E-07 PX  9.68E-04
 TTTTTTTTTTTTTTTTTTTTTTTTTTTTTT DIIS        TELAPSE       70.71 TCPU     1923.59
 DIIS TEST: 0.52447E-04 AT SCF   CYCLE   6 - DIIS ACTIVE - HISTORY:     6 CYCLES
 TTTTTTTTTTTTTTTTTTTTTTTTTTTTTT FDIK        TELAPSE       71.18 TCPU     1938.84
 INSULATING STATE
 TOP OF VALENCE BANDS -    BAND     99; K    1; EIG -2.4343724E-01 AU
 BOTTOM OF VIRTUAL BANDS - BAND    100; K    1; EIG -8.2420503E-02 AU
 DIRECT ENERGY BAND GAP:   4.3815 eV
 TTTTTTTTTTTTTTTTTTTTTTTTTTTTTT PDIG        TELAPSE       71.47 TCPU     1944.99
 CHARGE NORMALIZATION FACTOR   1.00000000
 TOTAL ATOMIC CHARGES:
   4.5035337   4.5056572   4.5052684   4.5049684   4.5050527   4.5024994
   0.8765500   0.8767145   0.8787673   0.8789242   0.8759301   0.8760724
   0.8759503   0.8759535   0.8787677   0.8789579   0.8764781   0.8765819
   5.9201164   6.1610882   6.1610715   6.1678292   6.1677166   5.9197594
   5.9250779   6.1648480   6.1649958   6.1651282   6.1648408   5.9253439
   5.9203739   6.1678474   6.1678257   6.1610460   6.1611971   5.9196745
   8.4891679   8.4893868   8.4920959   8.4893184   8.4921305   8.4894925
 TTTTTTTTTTTTTTTTTTTTTTTTTTTTTT MOQGAD      TELAPSE       71.52 TCPU     1945.03
 TTTTTTTTTTTTTTTTTTTTTTTTTTTTTT SHELLXN     TELAPSE       78.77 TCPU     2175.90
 TTTTTTTTTTTTTTTTTTTTTTTTTTTTTT MONMO3      TELAPSE       78.93 TCPU     2180.77
 NUMERICALLY INTEGRATED DENSITY    197.9999712162
 TTTTTTTTTTTTTTTTTTTTTTTTTTTTTT NUMDFT      TELAPSE       79.48 TCPU     2198.45
 CYC   7 ETOT(AU) -1.289109467876E+03 DETOT -1.27E-05 tst  3.75E-07 PX  7.17E-04
 TTTTTTTTTTTTTTTTTTTTTTTTTTTTTT DIIS        TELAPSE       79.55 TCPU     2200.85
 DIIS TEST: 0.32284E-05 AT SCF   CYCLE   7 - DIIS ACTIVE - HISTORY:     7 CYCLES
 TTTTTTTTTTTTTTTTTTTTTTTTTTTTTT FDIK        TELAPSE       80.04 TCPU     2216.42
 INSULATING STATE
 TOP OF VALENCE BANDS -    BAND     99; K    1; EIG -2.4344986E-01 AU
 BOTTOM OF VIRTUAL BANDS - BAND    100; K    1; EIG -8.2465975E-02 AU
 DIRECT ENERGY BAND GAP:   4.3806 eV
 TTTTTTTTTTTTTTTTTTTTTTTTTTTTTT PDIG        TELAPSE       80.32 TCPU     2222.56
 CHARGE NORMALIZATION FACTOR   1.00000000
 TOTAL ATOMIC CHARGES:
   4.5035147   4.5057732   4.5053809   4.5051536   4.5052382   4.5025455
   0.8765089   0.8766580   0.8787460   0.8788510   0.8758928   0.8760076
   0.8759158   0.8758855   0.8787443   0.8788867   0.8764332   0.8765287
   5.9195541   6.1609748   6.1611598   6.1674041   6.1680241   5.9203813
   5.9245603   6.1646993   6.1651547   6.1649706   6.1650122   5.9257013
   5.9198469   6.1674319   6.1681224   6.1609546   6.1612653   5.9202625
   8.4893446   8.4895585   8.4918245   8.4894812   8.4919952   8.4896510
 TTTTTTTTTTTTTTTTTTTTTTTTTTTTTT MOQGAD      TELAPSE       80.37 TCPU     2222.60
 TTTTTTTTTTTTTTTTTTTTTTTTTTTTTT SHELLXN     TELAPSE       87.62 TCPU     2453.44
 TTTTTTTTTTTTTTTTTTTTTTTTTTTTTT MONMO3      TELAPSE       87.77 TCPU     2458.18
 NUMERICALLY INTEGRATED DENSITY    197.9999712175
 TTTTTTTTTTTTTTTTTTTTTTTTTTTTTT NUMDFT      TELAPSE       88.32 TCPU     2475.83
 CYC   8 ETOT(AU) -1.289109468379E+03 DETOT -5.03E-07 tst  1.81E-08 PX  1.53E-04
 TTTTTTTTTTTTTTTTTTTTTTTTTTTTTT DIIS        TELAPSE       88.40 TCPU     2478.30
 DIIS TEST: 0.26501E-06 AT SCF   CYCLE   8 - DIIS ACTIVE - HISTORY:     8 CYCLES
 TTTTTTTTTTTTTTTTTTTTTTTTTTTTTT FDIK        TELAPSE       88.88 TCPU     2493.76
 INSULATING STATE
 TOP OF VALENCE BANDS -    BAND     99; K    1; EIG -2.4344825E-01 AU
 BOTTOM OF VIRTUAL BANDS - BAND    100; K    1; EIG -8.2463699E-02 AU
 DIRECT ENERGY BAND GAP:   4.3806 eV
 TTTTTTTTTTTTTTTTTTTTTTTTTTTTTT PDIG        TELAPSE       89.17 TCPU     2499.90
 CHARGE NORMALIZATION FACTOR   1.00000000
 TOTAL ATOMIC CHARGES:
   4.5035723   4.5057466   4.5053528   4.5051151   4.5052027   4.5025996
   0.8764886   0.8766499   0.8787339   0.8788456   0.8758861   0.8759976
   0.8759008   0.8758839   0.8787380   0.8788758   0.8764165   0.8765173
   5.9195732   6.1610400   6.1611325   6.1675143   6.1680620   5.9202029
   5.9246253   6.1647313   6.1651726   6.1650512   6.1649790   5.9256089
   5.9198223   6.1675124   6.1681908   6.1610086   6.1612475   5.9201280
   8.4892486   8.4894595   8.4920390   8.4893714   8.4922193   8.4895362
 TTTTTTTTTTTTTTTTTTTTTTTTTTTTTT MOQGAD      TELAPSE       89.21 TCPU     2499.95
 TTTTTTTTTTTTTTTTTTTTTTTTTTTTTT SHELLXN     TELAPSE       96.43 TCPU     2729.68
 +++ ENERGIES IN A.U. +++
 ::: EXT EL-POLE                                  -1.2272914886527E+03
 ::: EXT EL-SPHEROPOLE                             1.3955345553288E+01
 ::: BIELET ZONE E-E                               2.0992380954385E+03
 ::: TOTAL E-E                                     8.8590195233911E+02
 ::: TOTAL E-N + N-E                              -3.6018641999651E+03
 ::: TOTAL N-N                                     2.8064224184023E+02
 ::: KINETIC ENERGY                                1.2799247128069E+03
 ::: PSEUDO TOTAL   ENERGY                        -1.1553952929789E+03
 ::: VIRIAL COEFFICIENT                            1.0511347254291E+00
 TTTTTTTTTTTTTTTTTTTTTTTTTTTTTT MONMO3      TELAPSE       96.57 TCPU     2734.38
 NUMERICALLY INTEGRATED DENSITY    197.9999712171
 EXCHANGE ENERGY: -0.126024571260E+03  CORRELATION ENERGY: -0.768960423919E+01
 TTTTTTTTTTTTTTTTTTTTTTTTTTTTTT NUMDFT      TELAPSE       97.12 TCPU     2751.73
 CYC   9 ETOT(AU) -1.289109468478E+03 DETOT -9.94E-08 tst  8.51E-10 PX  1.53E-04

 == SCF ENDED - CONVERGENCE ON ENERGY      E(AU) -1.2891094684781E+03 CYCLES   9


 ENERGY EXPRESSION=HARTREE+FOCK EXCH*0.00000+(HSESOL     EXCH)*1.00000+PBESOL     CORR


 TOTAL ENERGY(DFT)(AU)(  9) -1.2891094684781E+03 DE-9.9E-08 tester 8.5E-10
 TTTTTTTTTTTTTTTTTTTTTTTTTTTTTT EDFT        TELAPSE       97.12 TCPU     2751.74
 
 INFORMATION **** DFTD3 ENERGY **** CALCULATE DFTD3 ENERGY

           DFT-D V3(BJ)
 DF                                         hsesol3c  
 parameters
 s6       :    1.0000
 s8       :    0.0000
 a1       :    0.5196
 a2       :    4.9385
 k1 k3    :   16.0000   -4.0000
 Cutoff   :   50.2022
 CN-Cutoff:   21.1671
 ABC-Cutoff:   21.1671
 
 Edisp /kcal,au:   -24.9014 -0.03968285

 E6    /kcal :   -26.4724
 E8    /kcal :     0.0000
 E6(ABC) "   :   1.571021
 
 INFORMATION **** DFTD3 ENERGY **** NORMAL TERMINATION OF DFTD3 MODULE

 GCP ENERGY CALCULATION
  level        hsesol3c            basis:hsesol3c
  Nbf            474
  Atoms           42

  Parameters: 
  sigma     1.0000
  eta       1.4281
  alpha     0.2936
  beta      1.9467

  dmp_scal      4.0000
  dmp_exp       6.0000
 cutoffs: 
   distance [bohr] 60.0
   noise    [a.u.] 2.2E-16
 SR-damping   T
 ** gCP correction **
  Egcp:        0.0829452885 / (a.u.) ||      52.0490 / (kcal/mol)
 INFORMATION **** GCP **** NORMAL TERMINATION OF GCP MODULE

 *******************************************************************************

 DFT-D3-GCP DISPERSION AND COUNTERPOISE CORRECTION

 D3 DISPERSION ENERGY (AU)      -3.9682852944499E-02
 GCP ENERGY (AU)                 8.2945288502222E-02
 TOTAL ENERGY + DISP + GCP (AU) -1.2890662060425E+03

 *******************************************************************************

 EIGENVECTORS IN FORTRAN UNIT 10
 TTTTTTTTTTTTTTTTTTTTTTTTTTTTTT END         TELAPSE       98.20 TCPU     2758.81
 EEEEEEEEEE TERMINATION  DATE 19 02 2026 TIME 19:11:21.0
