 Default number of threads is:           32

         
 *******************************************************************************
 *                                                                             *
 *                               CRYSTAL23                                     *
 *                      public : 1.0.1 - October 2022                          *
 *                       HTTP://WWW.CRYSTAL.UNITO.IT                           *
 *                                                                             *
 *                              MAIN AUTHORS                                   *
 *                                                                             *
 *  R. DOVESI(1,11), V.R. SAUNDERS(2), C. ROETTI(1,11), R. ORLANDO(1,11),      *
 *  C.M. ZICOVICH-WILSON(1,3), F. PASCALE(4), B. CIVALLERI(1,11),              *
 *  K. DOLL(5), N.M. HARRISON(6), I.J. BUSH(7), Ph. D'ARCO(8),                 *
 *  M. LLUNELL(9), M. CAUSA'(10), Y. NOEL(8), L. MASCHIO(1,11), A. ERBA(1,11)  *
 *  M. RE'RAT(14), S. CASASSA(1,11), B.G. SEARLE(2), J.K. DESMARAIS(1)         *
 *                                                                             *
 *        CONTRIBUTIONS TO THE CODE HAVE ALSO BEEN GIVEN BY                    *
 *                                                                             *
 *  M. FERRABONE(1,11), M. DE LA PIERRE(1,11), M. FERRERO(1,11),               *
 *  J. BAIMA(1,11), E. ALBANESE(1,11), M.F. PEINTINGER(12), R. BAST(13),       *
 *  B. KIRTMAN(15), V. LACIVITA(1,11), R. DEMICHELIS(1,16)                     *
 *  G. BRANDEBURG(17), S. SALUSTRO(1,11), G. SANSONE(1,11)                     *
 *  M.T. RUGGIERO(18), L.E. DAGA(1), L. DONA'(1), A. COSSARD(1)                *
 *                                                                             *
 * (1) THEORETICAL CHEMISTRY GROUP - UNIVERSITA' DI TORINO - TORINO (ITALY)    *
 * (2) SCIENTIFIC COMPUTING DEPARTMENT - STFC DARESBURY (UK)                   *
 * (3) UNIVERSIDAD AUTONOMA DEL ESTADO DE MORELOS - CUERNAVACA (MEXICO)        *
 * (4) UNIVERSITE' DE LORRAINE - NANCY (FRANCE)                                *
 * (5) UNIVERSITAET STUTTGART- STUTTGART (GERMANY)                             *
 * (6) IMPERIAL COLLEGE - LONDON (UK)                                          *
 * (7) SCIENTIFIC COMPUTING DEPARTMENT - STFC RAL (UK)                         *
 * (8) UPMC - SORBONNE UNIVERSITES - PARIS (FRANCE)                            *
 * (9) UNIVERSIDAD DE BARCELONA - BARCELONA (SPAIN)                            *
 *(10) UNIVERSITA' DI NAPOLI "FEDERICO II" - NAPOLI (ITALY)                    *
 *(11) NIS - NANOSTRUCTURED INTERFACES AND SURFACES - TORINO (ITALY)           *
 *(12) MPI FUER CHEMISCHE ENERGIEKONVERSION - MUELHEIM AN DER RUHR (GERMANY)   *
 *(13) UNIVERSITY OF TROMSO - TROMSO (NORWAY)                                  *
 *(14) UNIVERSITE' DE PAU ET DES PAYS DE L'ADOUR - PAU (FRANCE)                *
 *(15) UNIVERSITY OF CALIFORNIA SANTA BARBARA - SANTA BARBARA (USA)            *
 *(16) CURTIN UNIVERSITY - PERTH (AUSTRALIA)                                   *
 *(17) UNIVERSITY COLLEGE LONDON - LONDON (UK)                                 *
 *(18) UNIVERSITY OF VERMONT - BURLINGTON (USA)                                *
 *                                                                             *
 *******************************************************************************
 EEEEEEEEEE STARTING  DATE 02 12 2025 TIME 07:59:18.4
 COF-5_z34_inc_L030                                                              

 CRYSTAL CALCULATION
 (INPUT ACCORDING TO THE INTERNATIONAL TABLES FOR X-RAY CRYSTALLOGRAPHY)
 CRYSTAL FAMILY                       :  TRICLINIC   
 CRYSTAL CLASS  (GROTH - 1921)        :  TRICLINIC PEDIAL                     

 SPACE GROUP (NONCENTROSYMMETRIC)     :  P 1             

 LATTICE PARAMETERS  (ANGSTROMS AND DEGREES) - CONVENTIONAL CELL
        A           B           C        ALPHA        BETA       GAMMA
    15.02070    15.04439     4.53431    55.06610    89.99947   120.05310


 NUMBER OF IRREDUCIBLE ATOMS IN THE CONVENTIONAL CELL:   42

 INPUT COORDINATES

 ATOM AT. N.              COORDINATES
   1   5     5.577630900000E-01  1.127356800000E-01  5.006438700000E-01
   2   5     7.165413400000E-01  2.717601000000E-01  5.006538500000E-01
   3   5     5.574748700000E-01  2.717769200000E-01  4.992239100000E-01
   4   5     1.703825200000E-01  4.979149500000E-01  5.054387700000E-01
   5   5     3.284898200000E-01  4.964825000000E-01  5.094825900000E-01
   6   5     3.294517300000E-01  6.571953600000E-01  5.035170600000E-01
   7   1     8.461176100000E-01  1.933111000000E-01  5.045421900000E-01
   8   1     4.190486000000E-02  5.778726400000E-01  4.929520800000E-01
   9   1     8.475385600000E-01  4.806050200000E-01  4.928137900000E-01
  10   1     4.060684000000E-02  2.906242500000E-01  5.041107700000E-01
  11   1     5.361322000000E-01  7.870628900000E-01  5.042328400000E-01
  12   1     3.511075200000E-01 -1.530737000000E-02  4.945842700000E-01
  13   1     2.526162100000E-01  7.906797200000E-01  4.958910900000E-01
  14   1     6.344488500000E-01 -1.881828000000E-02  5.023715400000E-01
  15   1     5.364743700000E-01  5.758833900000E-01  4.977885400000E-01
  16   1     3.482069400000E-01  1.923619800000E-01  5.060715100000E-01
  17   1     2.508850600000E-01  2.883675100000E-01  5.057066400000E-01
  18   1     6.341579100000E-01  4.798091100000E-01  4.987219700000E-01
  19   6     8.358627400000E-01  3.312467800000E-01  5.004038700000E-01
  20   6     8.901828600000E-01  2.776634300000E-01  5.021699300000E-01
  21   6    -2.061320000000E-03  4.934725200000E-01  4.957771500000E-01
  22   6     8.909212400000E-01  4.398699400000E-01  4.961143000000E-01
  23   6    -2.712110000000E-03  3.313766800000E-01  5.015262300000E-01
  24   6     5.204148000000E-02  4.395517500000E-01  4.993430000000E-01
  25   6     3.886033600000E-01  7.769473600000E-01  5.018853000000E-01
  26   6     4.964315400000E-01  8.313395100000E-01  5.022754700000E-01
  27   6     3.905817700000E-01 -5.989985000000E-02  4.969992100000E-01
  28   6     3.363341900000E-01  8.328872100000E-01  4.981178600000E-01
  29   6     5.506809400000E-01 -6.146281000000E-02  5.008381000000E-01
  30   6     4.981891500000E-01 -6.095380000000E-03  4.992138700000E-01
  31   6     3.884235900000E-01  4.383316500000E-01  4.999850700000E-01
  32   6     4.963365100000E-01  4.917136900000E-01  4.994336000000E-01
  33   6     3.889762200000E-01  2.766421300000E-01  5.039570400000E-01
  34   6     3.351450100000E-01  3.298277900000E-01  5.033491100000E-01
  35   6     5.500417200000E-01  4.384329800000E-01  5.003719400000E-01
  36   6     4.971436000000E-01  3.304235800000E-01  5.016137600000E-01
  37   8     5.047654000000E-01  1.657884300000E-01  4.996137700000E-01
  38   8     6.635793300000E-01  1.653968000000E-01  5.026037500000E-01
  39   8     6.637100400000E-01  3.251818300000E-01  4.980841300000E-01
  40   8     2.235318100000E-01  6.043959600000E-01  5.027504200000E-01
  41   8     2.224267800000E-01  4.436093200000E-01  5.102380200000E-01
  42   8     3.820546900000E-01  6.035368800000E-01  5.052221100000E-01

 *******************************************************************************

 << INFORMATION >>: FROM NOW ON, ALL COORDINATES REFER TO THE PRIMITIVE CELL

 *******************************************************************************

 LATTICE PARAMETERS  (ANGSTROMS AND DEGREES) - PRIMITIVE CELL
       A          B          C        ALPHA      BETA     GAMMA        VOLUME
   15.02070   15.04439    4.53431    55.06610  89.99947 120.05310    665.065497

 COORDINATES OF THE EQUIVALENT ATOMS (FRACTIONAL UNITS)

 N. ATOM EQUIV AT. N.          X                  Y                  Z

   1   1   1    5 B    -4.42236910000E-01  1.12735680000E-01 -4.99356130000E-01

   2   2   1    5 B    -2.83458660000E-01  2.71760100000E-01 -4.99346150000E-01

   3   3   1    5 B    -4.42525130000E-01  2.71776920000E-01  4.99223910000E-01

   4   4   1    5 B     1.70382520000E-01  4.97914950000E-01 -4.94561230000E-01

   5   5   1    5 B     3.28489820000E-01  4.96482500000E-01 -4.90517410000E-01

   6   6   1    5 B     3.29451730000E-01 -3.42804640000E-01 -4.96482940000E-01

   7   7   1    1 H    -1.53882390000E-01  1.93311100000E-01 -4.95457810000E-01

   8   8   1    1 H     4.19048600000E-02 -4.22127360000E-01  4.92952080000E-01

   9   9   1    1 H    -1.52461440000E-01  4.80605020000E-01  4.92813790000E-01

  10  10   1    1 H     4.06068400000E-02  2.90624250000E-01 -4.95889230000E-01

  11  11   1    1 H    -4.63867800000E-01 -2.12937110000E-01 -4.95767160000E-01

  12  12   1    1 H     3.51107520000E-01 -1.53073700000E-02  4.94584270000E-01

  13  13   1    1 H     2.52616210000E-01 -2.09320280000E-01  4.95891090000E-01

  14  14   1    1 H    -3.65551150000E-01 -1.88182800000E-02 -4.97628460000E-01

  15  15   1    1 H    -4.63525630000E-01 -4.24116610000E-01  4.97788540000E-01

  16  16   1    1 H     3.48206940000E-01  1.92361980000E-01 -4.93928490000E-01

  17  17   1    1 H     2.50885060000E-01  2.88367510000E-01 -4.94293360000E-01

  18  18   1    1 H    -3.65842090000E-01  4.79809110000E-01  4.98721970000E-01

  19  19   1    6 C    -1.64137260000E-01  3.31246780000E-01 -4.99596130000E-01

  20  20   1    6 C    -1.09817140000E-01  2.77663430000E-01 -4.97830070000E-01

  21  21   1    6 C    -2.06132000000E-03  4.93472520000E-01  4.95777150000E-01

  22  22   1    6 C    -1.09078760000E-01  4.39869940000E-01  4.96114300000E-01

  23  23   1    6 C    -2.71211000000E-03  3.31376680000E-01 -4.98473770000E-01

  24  24   1    6 C     5.20414800000E-02  4.39551750000E-01  4.99343000000E-01

  25  25   1    6 C     3.88603360000E-01 -2.23052640000E-01 -4.98114700000E-01

  26  26   1    6 C     4.96431540000E-01 -1.68660490000E-01 -4.97724530000E-01

  27  27   1    6 C     3.90581770000E-01 -5.98998500000E-02  4.96999210000E-01

  28  28   1    6 C     3.36334190000E-01 -1.67112790000E-01  4.98117860000E-01

  29  29   1    6 C    -4.49319060000E-01 -6.14628100000E-02 -4.99161900000E-01

  30  30   1    6 C     4.98189150000E-01 -6.09538000000E-03  4.99213870000E-01

  31  31   1    6 C     3.88423590000E-01  4.38331650000E-01  4.99985070000E-01

  32  32   1    6 C     4.96336510000E-01  4.91713690000E-01  4.99433600000E-01

  33  33   1    6 C     3.88976220000E-01  2.76642130000E-01 -4.96042960000E-01

  34  34   1    6 C     3.35145010000E-01  3.29827790000E-01 -4.96650890000E-01

  35  35   1    6 C    -4.49958280000E-01  4.38432980000E-01 -4.99628060000E-01

  36  36   1    6 C     4.97143600000E-01  3.30423580000E-01 -4.98386240000E-01

  37  37   1    8 O    -4.95234600000E-01  1.65788430000E-01  4.99613770000E-01

  38  38   1    8 O    -3.36420670000E-01  1.65396800000E-01 -4.97396250000E-01

  39  39   1    8 O    -3.36289960000E-01  3.25181830000E-01  4.98084130000E-01

  40  40   1    8 O     2.23531810000E-01 -3.95604040000E-01 -4.97249580000E-01

  41  41   1    8 O     2.22426780000E-01  4.43609320000E-01 -4.89761980000E-01

  42  42   1    8 O     3.82054690000E-01 -3.96463120000E-01 -4.94777890000E-01

 NUMBER OF SYMMETRY OPERATORS         :    1
 *******************************************************************************
 * GEOMETRY EDITING - INPUT COORDINATES ARE GIVEN IN ANGSTROM         
 *******************************************************************************

 GCALCO - MAX INDICES DIRECT LATTICE VECTOR     9    11    31
 NO.OF VECTORS CREATED 6999 STARS 3500 RMAX   195.44836 BOHR

 GEOMETRY FOR WAVE FUNCTION - DIMENSIONALITY OF THE SYSTEM    3
 (NON PERIODIC DIRECTION: LATTICE PARAMETER FORMALLY SET TO 500)
 *******************************************************************************
 LATTICE PARAMETERS (ANGSTROMS AND DEGREES) - BOHR = 0.5291772083 ANGSTROM
 PRIMITIVE CELL - CENTRING CODE 1/0 VOLUME=   665.065497 - DENSITY  0.974 g/cm^3
         A              B              C           ALPHA      BETA       GAMMA 
    15.02070100    15.04438700     4.53431400    55.066100  89.999465 120.053104
 *******************************************************************************
 ATOMS IN THE ASYMMETRIC UNIT   42 - ATOMS IN THE UNIT CELL:   42
     ATOM                 X/A                 Y/B                 Z/C    
 *******************************************************************************
      1 T   5 B    -4.422369100000E-01  1.127356800000E-01 -4.993561300000E-01
      2 T   5 B    -2.834586600000E-01  2.717601000000E-01 -4.993461500000E-01
      3 T   5 B    -4.425251300000E-01  2.717769200000E-01  4.992239100000E-01
      4 T   5 B     1.703825200000E-01  4.979149500000E-01 -4.945612300000E-01
      5 T   5 B     3.284898200000E-01  4.964825000000E-01 -4.905174100000E-01
      6 T   5 B     3.294517300000E-01 -3.428046400000E-01 -4.964829400000E-01
      7 T   1 H    -1.538823900000E-01  1.933111000000E-01 -4.954578100000E-01
      8 T   1 H     4.190486000000E-02 -4.221273600000E-01  4.929520800000E-01
      9 T   1 H    -1.524614400000E-01  4.806050200000E-01  4.928137900000E-01
     10 T   1 H     4.060684000000E-02  2.906242500000E-01 -4.958892300000E-01
     11 T   1 H    -4.638678000000E-01 -2.129371100000E-01 -4.957671600000E-01
     12 T   1 H     3.511075200000E-01 -1.530737000000E-02  4.945842700000E-01
     13 T   1 H     2.526162100000E-01 -2.093202800000E-01  4.958910900000E-01
     14 T   1 H    -3.655511500000E-01 -1.881828000000E-02 -4.976284600000E-01
     15 T   1 H    -4.635256300000E-01 -4.241166100000E-01  4.977885400000E-01
     16 T   1 H     3.482069400000E-01  1.923619800000E-01 -4.939284900000E-01
     17 T   1 H     2.508850600000E-01  2.883675100000E-01 -4.942933600000E-01
     18 T   1 H    -3.658420900000E-01  4.798091100000E-01  4.987219700000E-01
     19 T   6 C    -1.641372600000E-01  3.312467800000E-01 -4.995961300000E-01
     20 T   6 C    -1.098171400000E-01  2.776634300000E-01 -4.978300700000E-01
     21 T   6 C    -2.061320000000E-03  4.934725200000E-01  4.957771500000E-01
     22 T   6 C    -1.090787600000E-01  4.398699400000E-01  4.961143000000E-01
     23 T   6 C    -2.712110000000E-03  3.313766800000E-01 -4.984737700000E-01
     24 T   6 C     5.204148000000E-02  4.395517500000E-01  4.993430000000E-01
     25 T   6 C     3.886033600000E-01 -2.230526400000E-01 -4.981147000000E-01
     26 T   6 C     4.964315400000E-01 -1.686604900000E-01 -4.977245300000E-01
     27 T   6 C     3.905817700000E-01 -5.989985000000E-02  4.969992100000E-01
     28 T   6 C     3.363341900000E-01 -1.671127900000E-01  4.981178600000E-01
     29 T   6 C    -4.493190600000E-01 -6.146281000000E-02 -4.991619000000E-01
     30 T   6 C     4.981891500000E-01 -6.095380000000E-03  4.992138700000E-01
     31 T   6 C     3.884235900000E-01  4.383316500000E-01  4.999850700000E-01
     32 T   6 C     4.963365100000E-01  4.917136900000E-01  4.994336000000E-01
     33 T   6 C     3.889762200000E-01  2.766421300000E-01 -4.960429600000E-01
     34 T   6 C     3.351450100000E-01  3.298277900000E-01 -4.966508900000E-01
     35 T   6 C    -4.499582800000E-01  4.384329800000E-01 -4.996280600000E-01
     36 T   6 C     4.971436000000E-01  3.304235800000E-01 -4.983862400000E-01
     37 T   8 O    -4.952346000000E-01  1.657884300000E-01  4.996137700000E-01
     38 T   8 O    -3.364206700000E-01  1.653968000000E-01 -4.973962500000E-01
     39 T   8 O    -3.362899600000E-01  3.251818300000E-01  4.980841300000E-01
     40 T   8 O     2.235318100000E-01 -3.956040400000E-01 -4.972495800000E-01
     41 T   8 O     2.224267800000E-01  4.436093200000E-01 -4.897619800000E-01
     42 T   8 O     3.820546900000E-01 -3.964631200000E-01 -4.947778900000E-01

 T = ATOM BELONGING TO THE ASYMMETRIC UNIT

 ****    1 SYMMOPS - TRANSLATORS IN FRACTIONAL UNITS
 **** MATRICES AND TRANSLATORS IN THE CRYSTALLOGRAPHIC REFERENCE FRAME
   V INV                    ROTATION MATRICES                   TRANSLATORS
   1   1  1.00 -0.00  0.00  0.00  1.00  0.00  0.00 -0.00  1.00  0.00  0.00  0.00

 DIRECT LATTICE VECTORS CARTESIAN COMPONENTS (ANGSTROM)
          X                    Y                    Z
   0.130013421718E+02  -0.752240388864E+01   0.000000000000E+00
   0.000000000000E+00   0.150443870000E+02   0.000000000000E+00
   0.150234290180E+01   0.259648889506E+01   0.340017862381E+01


 CARTESIAN COORDINATES - PRIMITIVE CELL
 *******************************************************************************
 *      ATOM          X(ANGSTROM)         Y(ANGSTROM)         Z(ANGSTROM)
 *******************************************************************************
    1     5 B    -6.499877525274E+00  3.726151203887E+00 -1.697900038895E+00
    2     5 B    -4.435532174206E+00  4.924207908545E+00 -1.697866105113E+00
    3     5 B     6.495584132833E+00 -1.405093524358E+00 -1.702728156534E+00
    4     5 B     1.472200889213E+00  4.925016328258E+00 -1.681596522412E+00
    5     5 B     3.533883200642E+00  3.724618761480E+00 -1.667846812089E+00
    6     5 B     2.035084148239E+00  3.523231020212E+00 -5.088309303487E+00
    7     1 H    -2.745025130595E+00  2.779361787088E+00 -1.684645054563E+00
    8     1 H     1.285402481836E+00 -5.385928047427E+00  1.676125124979E+00
    9     1 H    -1.241828050126E+00 -5.387517022785E+00  1.675654914278E+00
   10     1 H    -2.170522434150E-01  2.779231758587E+00 -1.686111959624E+00
   11     1 H    -5.273373362240E+00  1.595127622620E+00  1.714481723992E+00
   12     1 H     5.307904173979E+00 -1.587280007284E+00  1.681674862527E+00
   13     1 H     4.029348243474E+00 -3.761800751361E+00  1.686118283957E+00
   14     1 H    -3.997921265250E+00  3.771116030069E+00  1.708152971519E+00
   15     1 H    -5.278606241351E+00 -1.601244996171E+00  1.692569952886E+00
   16     1 H     3.785107612578E+00 -1.007865007542E+00 -1.679445093390E+00
   17     1 H     2.519244390043E+00  1.167626447577E+00 -1.680685716564E+00
   18     1 H    -4.007186781326E+00 -3.779015045761E+00  1.695743781619E+00
   19     6 C    -2.884569380070E+00  4.920915710158E+00 -1.698716081765E+00
   20     6 C    -2.175681685433E+00  3.710754729260E+00 -1.692711162305E+00
   21     6 C    -7.843155462683E-01  6.130288615667E+00 -1.714447756207E+00
   22     6 C     8.295064164533E-01 -3.721634738887E+00  5.087055861639E+00
   23     6 C    -7.841396002104E-01  3.711478995221E+00 -1.694899857285E+00
   24     6 C    -7.554940158084E-02  4.921359261269E+00 -1.702323229262E+00
   25     6 C     2.801683266834E+00  4.875627153985E+00 -5.093857578958E+00
   26     6 C    -5.792475868271E+00  2.554804338649E+00  1.707826316359E+00
   27     6 C     5.824750473171E+00 -2.548817420503E+00  1.689886089893E+00
   28     6 C     5.121139719487E+00 -3.750793612227E+00  1.693689699711E+00
   29     6 C    -5.089320278874E+00  3.755709709312E+00  1.702939001610E+00
   30     6 C    -5.774224152284E+00  4.979325903487E+00  1.697416329484E+00
   31     6 C     4.298834120299E+00  2.374268639982E+00 -1.700140076573E+00
   32     6 C     5.701018420935E+00  2.364172253818E+00 -1.702015173078E+00
   33     6 C     4.311986312959E+00 -5.209500280687E-02 -1.686634669084E+00
   34     6 C     3.611195012909E+00  1.151412269024E+00 -1.688701739675E+00
   35     6 C    -5.098331328984E+00 -3.764453474507E+00  1.701353974343E+00
   36     6 C     5.714787022089E+00 -6.274907601997E-02 -1.694602239650E+00
   37     8 O     5.810875981073E+00 -2.602111196207E+00 -1.701402562896E+00
   38     8 O    -5.121179969897E+00  3.727501784418E+00 -1.691236096814E+00
   39     8 O    -2.121584779888E+00 -3.732757993882E+00  5.093753635497E+00
   40     8 O     6.568312693503E-01  3.523678259090E+00 -5.090916016427E+00
   41     8 O     2.156056240721E+00  3.728984669783E+00 -1.665278215152E+00
   42     8 O     2.721554800212E+00  2.324698513793E+00 -5.082511828924E+00

 *******************************************************************************
 STARTING BASIS SET HANDLING 
 *******************************************************************************

 Loading internal basis set: SOLDEF2MSVP         

 Please cite in your publication:
 L. Dona', J. G. Brandenburg and B. Civalleri, J. Chem. Phys., 151, 121101 (2019
 )                                                                              
                                                                                
                    

 *******************************************************************************
 LOCAL ATOMIC FUNCTIONS BASIS SET
 *******************************************************************************
   ATOM   X(AU)   Y(AU)   Z(AU)  N. TYPE  EXPONENT  S COEF   P COEF   D/F/G COEF
 *******************************************************************************
   1 B  -12.283   7.041  -3.209
                                  1 S  
                                         2.410E+03 1.755E-03 0.000E+00 0.000E+00
                                         3.619E+02 1.344E-02 0.000E+00 0.000E+00
                                         8.231E+01 6.637E-02 0.000E+00 0.000E+00
                                         2.311E+01 2.303E-01 0.000E+00 0.000E+00
                                         7.252E+00 5.150E-01 0.000E+00 0.000E+00
                                  2 S  
                                         2.367E+00 1.000E+00 0.000E+00 0.000E+00
                                  3 S  
                                         5.533E-01 1.000E+00 0.000E+00 0.000E+00
                                  4 S  
                                         1.716E-01 1.000E+00 0.000E+00 0.000E+00
                           5-     7 P  
                                         6.002E+00 0.000E+00-3.555E-02 0.000E+00
                                         1.240E+00 0.000E+00-1.983E-01 0.000E+00
                                         3.367E-01 0.000E+00-5.048E-01 0.000E+00
                           8-    10 P  
                                         1.256E-01 0.000E+00 1.000E+00 0.000E+00
                          11-    15 D  
                                         8.880E-01 0.000E+00 0.000E+00 1.000E+00
   2 B   -8.382   9.305  -3.209
   3 B   12.275  -2.655  -3.218
   4 B    2.782   9.307  -3.178
   5 B    6.678   7.039  -3.152
   6 B    3.846   6.658  -9.616
   7 H   -5.187   5.252  -3.184
                                 91 S  
                                         1.874E+01 1.968E-02 0.000E+00 0.000E+00
                                         2.826E+00 1.380E-01 0.000E+00 0.000E+00
                                         6.401E-01 4.783E-01 0.000E+00 0.000E+00
                                 92 S  
                                         1.756E-01 1.000E+00 0.000E+00 0.000E+00
   8 H    2.429 -10.178   3.167
   9 H   -2.347 -10.181   3.167
  10 H   -0.410   5.252  -3.186
  11 H   -9.965   3.014   3.240
  12 H   10.030  -3.000   3.178
  13 H    7.614  -7.109   3.186
  14 H   -7.555   7.126   3.228
  15 H   -9.975  -3.026   3.198
  16 H    7.153  -1.905  -3.174
  17 H    4.761   2.206  -3.176
  18 H   -7.572  -7.141   3.204
  19 C   -5.451   9.299  -3.210
                                115 S  
                                         3.624E+03 1.634E-03 0.000E+00 0.000E+00
                                         5.440E+02 1.252E-02 0.000E+00 0.000E+00
                                         1.237E+02 6.211E-02 0.000E+00 0.000E+00
                                         3.476E+01 2.182E-01 0.000E+00 0.000E+00
                                         1.093E+01 4.980E-01 0.000E+00 0.000E+00
                                116 S  
                                         3.574E+00 1.000E+00 0.000E+00 0.000E+00
                                117 S  
                                         7.742E-01 1.000E+00 0.000E+00 0.000E+00
                                118 S  
                                         2.330E-01 1.000E+00 0.000E+00 0.000E+00
                         119-   121 P  
                                         9.443E+00 0.000E+00 3.790E-02 0.000E+00
                                         2.002E+00 0.000E+00 2.082E-01 0.000E+00
                                         5.463E-01 0.000E+00 5.047E-01 0.000E+00
                         122-   124 P  
                                         1.820E-01 0.000E+00 1.000E+00 0.000E+00
                         125-   129 D  
                                         8.880E-01 0.000E+00 0.000E+00 1.000E+00
  20 C   -4.111   7.012  -3.199
  21 C   -1.482  11.585  -3.240
  22 C    1.568  -7.033   9.613
  23 C   -1.482   7.014  -3.203
  24 C   -0.143   9.300  -3.217
  25 C    5.294   9.214  -9.626
  26 C  -10.946   4.828   3.227
  27 C   11.007  -4.817   3.193
  28 C    9.678  -7.088   3.201
  29 C   -9.617   7.097   3.218
  30 C  -10.912   9.410   3.208
  31 C    8.124   4.487  -3.213
  32 C   10.773   4.468  -3.216
  33 C    8.148  -0.098  -3.187
  34 C    6.824   2.176  -3.191
  35 C   -9.634  -7.114   3.215
  36 C   10.799  -0.119  -3.202
  37 O   10.981  -4.917  -3.215
                                385 S  
                                         6.773E+03 1.727E-03 0.000E+00 0.000E+00
                                         1.017E+03 1.325E-02 0.000E+00 0.000E+00
                                         2.313E+02 6.603E-02 0.000E+00 0.000E+00
                                         6.501E+01 2.353E-01 0.000E+00 0.000E+00
                                         2.050E+01 5.498E-01 0.000E+00 0.000E+00
                                386 S  
                                         6.716E+00 1.000E+00 0.000E+00 0.000E+00
                                387 S  
                                         1.147E+00 1.000E+00 0.000E+00 0.000E+00
                                388 S  
                                         3.342E-01 1.000E+00 0.000E+00 0.000E+00
                         389-   391 P  
                                         1.769E+01 0.000E+00 4.359E-02 0.000E+00
                                         3.854E+00 0.000E+00 2.318E-01 0.000E+00
                                         1.047E+00 0.000E+00 5.146E-01 0.000E+00
                         392-   394 P  
                                         2.759E-01 0.000E+00 1.000E+00 0.000E+00
                         395-   399 D  
                                         8.000E-01 0.000E+00 0.000E+00 1.000E+00
  38 O   -9.678   7.044  -3.196
  39 O   -4.009  -7.054   9.626
  40 O    1.241   6.659  -9.620
  41 O    4.074   7.047  -3.147
  42 O    5.143   4.393  -9.605

 *******************************************************************************
 FINISHED BASIS SET HANDLING 
 *******************************************************************************

 INFORMATION **** SET_MPP **** PCRYSTAL CALCULATION
 INFORMATION **** READM2 **** NEW DEFAULT: FOCK/KS MATRIX MIXING SET TO 30 %
 INFORMATION **** READM2 **** NEW DEFAULT: FULL DIRECT SCF MODE
 INFORMATION **** READM2 **** NEW DEFAULT: COULOMB BIPOLAR BUFFER SET TO 32 Mb
 INFORMATION **** READM2 **** NEW DEFAULT: EXCHANGE BIPOLAR BUFFER SET TO 32 Mb

 *******************************************************************************
 NEW DEFAULT: DFT INTEGRATION GRID INCREASED TO XLGRID
 NEW DEFAULT: DIIS ACCELERATOR ACTIVE
 USE KEYWORD NODIIS TO TURN IT OFF
 *******************************************************************************

 WARNING **** RDDFTP **** HSEsol-HJS ACTIVE
 RANGE SEPARATION - OMEGA:   0.110000000000000     
 WARNING **** RDDFTP **** HSEsol-3c has to be combined with sol-def2-mSVP basis set
 *******************************************************************************
 N. OF ATOMS PER CELL        42  COULOMB OVERLAP TOL         (T1) 10**   -6
 NUMBER OF SHELLS           234  COULOMB PENETRATION TOL     (T2) 10**   -6
 NUMBER OF AO               474  EXCHANGE OVERLAP TOL        (T3) 10**   -6
 N. OF ELECTRONS PER CELL   198  EXCHANGE PSEUDO OVP (F(G))  (T4) 10**   -6
 CORE ELECTRONS PER CELL     60  EXCHANGE PSEUDO OVP (P(G))  (T5) 10**  -12
 N. OF SYMMETRY OPERATORS     1  POLE ORDER IN MONO ZONE                  4
 *******************************************************************************
 TYPE OF CALCULATION :  RESTRICTED CLOSED SHELL
 KOHN-SHAM HAMILTONIAN

 (EXCHANGE)[CORRELATION] FUNCTIONAL:(HSEsol GGA)[PBEsol]

 RANGE-SEPARATED HYBRID FUNCTIONAL 
 OMEGA (SHORT-RANGE)[LONG-RANGE]:(    0.1100)[    0.0000]

 HYBRID EXCHANGE - PERCENTAGE OF FOCK EXCHANGE    25.0000

 CAPPA:IS1  2;IS2  2;IS3  8; K PTS MONK NET  20; SYMMOPS:K SPACE   2;G SPACE   1

 *******************************************************************************
 MAX NUMBER OF SCF CYCLES      50  CONVERGENCE ON DELTAP        10**-16
 WEIGHT OF F(I) IN F(I+1)      30% CONVERGENCE ON ENERGY        10**- 6
 SHRINK. FACT.(MONKH.)    2  2  8  NUMBER OF K POINTS IN THE IBZ     20
 SHRINKING FACTOR(GILAT NET)    8  NUMBER OF K POINTS(GILAT NET)   1028
 *******************************************************************************
 *** K POINTS COORDINATES (OBLIQUE COORDINATES IN UNITS OF IS =  2)
   1-R(  0  0  0)   2-R(  1  0  0)   3-R(  0  1  0)   4-R(  1  1  0)
   5-C(  0  0  1)   6-C(  1  0  1)   7-C(  0  1  1)   8-C(  1  1  1)
   9-C(  0  0  2)  10-C(  1  0  2)  11-C(  0  1  2)  12-C(  1  1  2)
  13-C(  0  0  3)  14-C(  1  0  3)  15-C(  0  1  3)  16-C(  1  1  3)
  17-R(  0  0  4)  18-R(  1  0  4)  19-R(  0  1  4)  20-R(  1  1  4)

 DIRECT LATTICE VECTORS COMPON. (A.U.)     RECIP. LATTICE VECTORS COMPON. (A.U.) 
        X            Y            Z              X            Y            Z
   24.5689761  -14.2152832    0.0000000      0.2557366    0.0000000   -0.1129952
    0.0000000   28.4297713    0.0000000      0.1278719    0.2210072   -0.2252676
    2.8390166    4.9066529    6.4254064      0.0000000    0.0000000    0.9778658

 DISK SPACE FOR EIGENVECTORS (FTN 10)     7189632 REALS

 SYMMETRY ADAPTION OF THE BLOCH FUNCTIONS DISABLED
 TTTTTTTTTTTTTTTTTTTTTTTTTTTTTT gordsh1     TELAPSE        0.04 TCPU        0.04

 MATRIX SIZE: P(G)  371252, F(G)   75893, P(G) IRR  187123, F(G) IRR   76589
 MAX G-VECTOR INDEX FOR 1- AND 2-ELECTRON INTEGRALS  59

 TTTTTTTTTTTTTTTTTTTTTTTTTTTTTT INPUT       TELAPSE        0.35 TCPU        0.35

 NEIGHBORS OF THE NON-EQUIVALENT ATOMS

 N = NUMBER OF NEIGHBORS AT DISTANCE R
    ATOM  N     R/ANG      R/AU   NEIGHBORS (ATOM LABELS AND CELL INDICES)
   1 B    1     1.3787     2.6054   38 O    0 0 0
   1 B    1     1.3795     2.6068   37 O   -1 0 0
   1 B    1     1.5517     2.9323   30 C    0 0-1
   1 B    1     2.3868     4.5104    2 B    0 0 0
   1 B    1     2.3912     4.5187    3 B   -1 0 0
   1 B    1     2.5629     4.8432   27 C   -1 0-1

   2 B    1     1.3792     2.6064   38 O    0 0 0
   2 B    1     1.3798     2.6075   39 O    0 1-2
   2 B    1     1.5510     2.9309   19 C    0 0 0
   2 B    1     2.3868     4.5104    1 B    0 0 0
   2 B    1     2.3894     4.5154    3 B   -1 0 0
   2 B    1     2.5618     4.8411   22 C    0 1-2

   3 B    1     1.3790     2.6060   37 O    0 0 0
   3 B    1     1.3795     2.6069   39 O    1 1-2
   3 B    1     1.5529     2.9346   36 C    0 0 0
   3 B    1     2.3894     4.5154    2 B    1 0 0
   3 B    1     2.3912     4.5187    1 B    1 0 0
   3 B    1     2.5679     4.8526   35 C    1 1-1

   4 B    1     1.3778     2.6037   41 O    0 0 0
   4 B    1     1.3786     2.6051   40 O    0 0 1
   4 B    1     1.5479     2.9251   24 C    0 0 0
   4 B    1     2.3857     4.5084    5 B    0 0 0
   4 B    1     2.3859     4.5087    6 B    0 0 1
   4 B    1     2.5584     4.8348   21 C    0 0 0

   5 B    1     1.3778     2.6037   41 O    0 0 0
   5 B    1     1.3813     2.6104   42 O    0 0 1
   5 B    1     1.5523     2.9334   31 C    0 0 0
   5 B    1     2.3857     4.5084    4 B    0 0 0
   5 B    1     2.3952     4.5263    6 B    0 0 1
   5 B    1     2.5590     4.8358   32 C    0 0 0

   6 B    1     1.3783     2.6045   40 O    0 0 0
   6 B    1     1.3812     2.6101   42 O    0 0 0
   6 B    1     1.5546     2.9377   25 C    0 0 0
   6 B    1     2.3859     4.5087    4 B    0 0-1
   6 B    1     2.3952     4.5263    5 B    0 0-1
   6 B    1     2.5605     4.8386   26 C    1 1-2

   7 H    1     1.0917     2.0629   20 C    0 0 0
   7 H    1     2.1461     4.0556   19 C    0 0 0
   7 H    1     2.1712     4.1029   23 C    0 0 0
   7 H    1     2.5280     4.7772   10 H    0 0 0
   7 H    1     2.5583     4.8346   38 O    0 0 0
   7 H    1     2.7310     5.1608    2 B    0 0 0

   8 H    1     1.0909     2.0615   21 C    0-1 1
   8 H    1     2.1454     4.0542   24 C    0-1 1
   8 H    1     2.1688     4.0985   22 C    0 0-1
   8 H    1     2.5272     4.7758    9 H    0 0 0
   8 H    1     2.5562     4.8305   40 O    0-1 2
   8 H    1     2.7243     5.1481    4 B    0-1 1

   9 H    1     1.0908     2.0614   22 C    0 0-1
   9 H    1     2.1442     4.0520   19 C    0-1 1
   9 H    1     2.1694     4.0995   21 C    0-1 1
   9 H    1     2.5272     4.7758    8 H    0 0 0
   9 H    1     2.5616     4.8406   39 O    0 0-1
   9 H    1     2.7248     5.1492    2 B    0-1 1

  10 H    1     1.0912     2.0621   23 C    0 0 0
  10 H    1     2.1469     4.0570   24 C    0 0 0
  10 H    1     2.1689     4.0986   20 C    0 0 0
  10 H    1     2.5280     4.7772    7 H    0 0 0
  10 H    1     2.5562     4.8305   41 O    0 0 0
  10 H    1     2.7309     5.1607    4 B    0 0 0

  11 H    1     1.0911     2.0619   26 C    0 0 0
  11 H    1     2.1443     4.0521   25 C   -1-1 2
  11 H    1     2.1684     4.0978   29 C    0 0 0
  11 H    1     2.5222     4.7664   14 H    0 0 0
  11 H    1     2.5622     4.8419   42 O   -1-1 2
  11 H    1     2.7179     5.1361    6 B   -1-1 2

  12 H    1     1.0917     2.0630   27 C    0 0 0
  12 H    1     2.1441     4.0518   30 C    1 0 0
  12 H    1     2.1716     4.1037   28 C    0 0 0
  12 H    1     2.5226     4.7669   13 H    0 0 0
  12 H    1     2.5541     4.8265   37 O    0 0 1
  12 H    1     2.7237     5.1470    1 B    1 0 1

  13 H    1     1.0919     2.0633   28 C    0 0 0
  13 H    1     2.1522     4.0671   25 C    0-1 2
  13 H    1     2.1668     4.0946   27 C    0 0 0
  13 H    1     2.5226     4.7669   12 H    0 0 0
  13 H    1     2.5923     4.8987   40 O    0-1 2
  13 H    1     2.7582     5.2123    6 B    0-1 2

  14 H    1     1.0915     2.0627   29 C    0 0 0
  14 H    1     2.1483     4.0597   30 C    0 0 0
  14 H    1     2.1679     4.0968   26 C    0 0 0
  14 H    1     2.5222     4.7664   11 H    0 0 0
  14 H    1     2.5809     4.8771   38 O    0 0 1
  14 H    1     2.7404     5.1785    1 B    0 0 1

  15 H    1     1.0916     2.0628   32 C   -1-1 1
  15 H    1     2.1436     4.0508   31 C   -1-1 1
  15 H    1     2.1707     4.1021   35 C    0 0 0
  15 H    1     2.5217     4.7654   18 H    0 0 0
  15 H    1     2.5567     4.8315   42 O   -1-1 2
  15 H    1     2.7165     5.1334    5 B   -1-1 1

  16 H    1     1.0914     2.0624   33 C    0 0 0
  16 H    1     2.1488     4.0606   36 C    0 0 0
  16 H    1     2.1663     4.0937   34 C    0 0 0
  16 H    1     2.5170     4.7564   17 H    0 0 0
  16 H    1     2.5780     4.8716   37 O    0 0 0
  16 H    1     2.7395     5.1770    3 B    0 0 0

  17 H    1     1.0921     2.0638   34 C    0 0 0
  17 H    1     2.1502     4.0633   31 C    0 0 0
  17 H    1     2.1683     4.0976   33 C    0 0 0
  17 H    1     2.5170     4.7564   16 H    0 0 0
  17 H    1     2.5870     4.8888   41 O    0 0 0
  17 H    1     2.7510     5.1986    5 B    0 0 0

  18 H    1     1.0913     2.0622   35 C    0 0 0
  18 H    1     2.1495     4.0619   36 C   -1-1 1
  18 H    1     2.1656     4.0923   32 C   -1-1 1
  18 H    1     2.5217     4.7654   15 H    0 0 0
  18 H    1     2.5789     4.8734   39 O    0 0-1
  18 H    1     2.7392     5.1763    3 B   -1-1 1

  19 C    1     1.4017     2.6488   22 C    0 1-2
  19 C    1     1.4025     2.6504   20 C    0 0 0
  19 C    1     1.5510     2.9309    2 B    0 0 0
  19 C    1     2.1442     4.0520    9 H    0 1-1
  19 C    1     2.1461     4.0556    7 H    0 0 0
  19 C    1     2.4236     4.5800   21 C    0 0 0

  20 C    1     1.0917     2.0629    7 H    0 0 0
  20 C    1     1.3915     2.6296   23 C    0 0 0
  20 C    1     1.4025     2.6504   19 C    0 0 0
  20 C    1     2.1689     4.0986   10 H    0 0 0
  20 C    1     2.4191     4.5715   22 C    0 1-2
  20 C    1     2.4241     4.5809   24 C    0 0 0

  21 C    1     1.0909     2.0615    8 H    0 1-1
  21 C    1     1.3909     2.6284   22 C    0 1-2
  21 C    1     1.4014     2.6483   24 C    0 0 0
  21 C    1     2.1694     4.0995    9 H    0 1-1
  21 C    1     2.4189     4.5710   23 C    0 0 0
  21 C    1     2.4236     4.5800   19 C    0 0 0

  22 C    1     1.0908     2.0614    9 H    0 0 1
  22 C    1     1.3909     2.6284   21 C    0-1 2
  22 C    1     1.4017     2.6488   19 C    0-1 2
  22 C    1     2.1688     4.0985    8 H    0 0 1
  22 C    1     2.4191     4.5715   20 C    0-1 2
  22 C    1     2.4226     4.5780   24 C    0-1 2

  23 C    1     1.0912     2.0621   10 H    0 0 0
  23 C    1     1.3915     2.6296   20 C    0 0 0
  23 C    1     1.4021     2.6496   24 C    0 0 0
  23 C    1     2.1712     4.1029    7 H    0 0 0
  23 C    1     2.4189     4.5710   21 C    0 0 0
  23 C    1     2.4237     4.5802   19 C    0 0 0

  24 C    1     1.4014     2.6483   21 C    0 0 0
  24 C    1     1.4021     2.6496   23 C    0 0 0
  24 C    1     1.5479     2.9251    4 B    0 0 0
  24 C    1     2.1454     4.0542    8 H    0 1-1
  24 C    1     2.1469     4.0570   10 H    0 0 0
  24 C    1     2.4226     4.5780   22 C    0 1-2

  25 C    1     1.4025     2.6504   26 C    1 1-2
  25 C    1     1.4037     2.6526   28 C    0 1-2
  25 C    1     1.5546     2.9377    6 B    0 0 0
  25 C    1     2.1443     4.0521   11 H    1 1-2
  25 C    1     2.1522     4.0671   13 H    0 1-2
  25 C    1     2.4271     4.5865   27 C    0 1-2

  26 C    1     1.0911     2.0619   11 H    0 0 0
  26 C    1     1.3916     2.6298   29 C    0 0 0
  26 C    1     1.4025     2.6504   25 C   -1-1 2
  26 C    1     2.1679     4.0968   14 H    0 0 0
  26 C    1     2.4165     4.5665   28 C   -1 0 0
  26 C    1     2.4246     4.5819   30 C    0 0 0

  27 C    1     1.0917     2.0630   12 H    0 0 0
  27 C    1     1.3928     2.6320   28 C    0 0 0
  27 C    1     1.4024     2.6502   30 C    1 0 0
  27 C    1     2.1668     4.0946   13 H    0 0 0
  27 C    1     2.4166     4.5668   29 C    1 0 0
  27 C    1     2.4271     4.5865   25 C    0-1 2

  28 C    1     1.0919     2.0633   13 H    0 0 0
  28 C    1     1.3928     2.6320   27 C    0 0 0
  28 C    1     1.4037     2.6526   25 C    0-1 2
  28 C    1     2.1716     4.1037   12 H    0 0 0
  28 C    1     2.4165     4.5665   26 C    1 0 0
  28 C    1     2.4277     4.5877   30 C    1 0 0

  29 C    1     1.0915     2.0627   14 H    0 0 0
  29 C    1     1.3916     2.6298   26 C    0 0 0
  29 C    1     1.4023     2.6499   30 C    0 0 0
  29 C    1     2.1684     4.0978   11 H    0 0 0
  29 C    1     2.4166     4.5668   27 C   -1 0 0
  29 C    1     2.4281     4.5884   25 C   -1-1 2

  30 C    1     1.4023     2.6499   29 C    0 0 0
  30 C    1     1.4024     2.6502   27 C   -1 0 0
  30 C    1     1.5517     2.9323    1 B    0 0 1
  30 C    1     2.1441     4.0518   12 H   -1 0 0
  30 C    1     2.1483     4.0597   14 H    0 0 0
  30 C    1     2.4246     4.5819   26 C    0 0 0

  31 C    1     1.4022     2.6498   32 C    0 0 0
  31 C    1     1.4030     2.6513   34 C    0 0 0
  31 C    1     1.5523     2.9334    5 B    0 0 0
  31 C    1     2.1436     4.0508   15 H    1 1-1
  31 C    1     2.1502     4.0633   17 H    0 0 0
  31 C    1     2.4264     4.5853   33 C    0 0 0

  32 C    1     1.0916     2.0628   15 H    1 1-1
  32 C    1     1.3918     2.6301   35 C    1 1-1
  32 C    1     1.4022     2.6498   31 C    0 0 0
  32 C    1     2.1656     4.0923   18 H    1 1-1
  32 C    1     2.4163     4.5661   34 C    0 0 0
  32 C    1     2.4270     4.5863   36 C    0 0 0

  33 C    1     1.0914     2.0624   16 H    0 0 0
  33 C    1     1.3927     2.6318   34 C    0 0 0
  33 C    1     1.4029     2.6510   36 C    0 0 0
  33 C    1     2.1683     4.0976   17 H    0 0 0
  33 C    1     2.4155     4.5646   35 C    1 1-1
  33 C    1     2.4264     4.5853   31 C    0 0 0

  34 C    1     1.0921     2.0638   17 H    0 0 0
  34 C    1     1.3927     2.6318   33 C    0 0 0
  34 C    1     1.4030     2.6513   31 C    0 0 0
  34 C    1     2.1663     4.0937   16 H    0 0 0
  34 C    1     2.4163     4.5661   32 C    0 0 0
  34 C    1     2.4289     4.5899   36 C    0 0 0

  35 C    1     1.0913     2.0622   18 H    0 0 0
  35 C    1     1.3918     2.6301   32 C   -1-1 1
  35 C    1     1.4029     2.6511   36 C   -1-1 1
  35 C    1     2.1707     4.1021   15 H    0 0 0
  35 C    1     2.4155     4.5646   33 C   -1-1 1
  35 C    1     2.4269     4.5861   31 C   -1-1 1

  36 C    1     1.4029     2.6510   33 C    0 0 0
  36 C    1     1.4029     2.6511   35 C    1 1-1
  36 C    1     1.5529     2.9346    3 B    0 0 0
  36 C    1     2.1488     4.0606   16 H    0 0 0
  36 C    1     2.1495     4.0619   18 H    1 1-1
  36 C    1     2.4270     4.5863   32 C    0 0 0

  37 O    1     1.3790     2.6060    3 B    0 0 0
  37 O    1     1.3795     2.6068    1 B    1 0 0
  37 O    1     2.3868     4.5105   39 O    1 1-2
  37 O    1     2.3885     4.5136   38 O    1 0 0
  37 O    1     2.5389     4.7979   30 C    1 0-1
  37 O    1     2.5412     4.8022   36 C    0 0 0

  38 O    1     1.3787     2.6054    1 B    0 0 0
  38 O    1     1.3792     2.6064    2 B    0 0 0
  38 O    1     2.3885     4.5136   37 O   -1 0 0
  38 O    1     2.3912     4.5187   39 O    0 1-2
  38 O    1     2.5351     4.7906   19 C    0 0 0
  38 O    1     2.5405     4.8008   30 C    0 0-1

  39 O    1     1.3795     2.6069    3 B   -1-1 2
  39 O    1     1.3798     2.6075    2 B    0-1 2
  39 O    1     2.3868     4.5105   37 O   -1-1 2
  39 O    1     2.3912     4.5187   38 O    0-1 2
  39 O    1     2.5416     4.8030   19 C    0-1 2
  39 O    1     2.5427     4.8050   36 C   -1-1 2

  40 O    1     1.3783     2.6045    6 B    0 0 0
  40 O    1     1.3786     2.6051    4 B    0 0-1
  40 O    1     2.3876     4.5119   42 O    0 0 0
  40 O    1     2.3913     4.5189   41 O    0 0-1
  40 O    1     2.5354     4.7912   25 C    0 0 0
  40 O    1     2.5360     4.7923   24 C    0 0-1

  41 O    1     1.3778     2.6037    4 B    0 0 0
  41 O    1     1.3778     2.6037    5 B    0 0 0
  41 O    1     2.3870     4.5107   42 O    0 0 1
  41 O    1     2.3913     4.5189   40 O    0 0 1
  41 O    1     2.5305     4.7819   24 C    0 0 0
  41 O    1     2.5353     4.7911   31 C    0 0 0

  42 O    1     1.3812     2.6101    6 B    0 0 0
  42 O    1     1.3813     2.6104    5 B    0 0-1
  42 O    1     2.3870     4.5107   41 O    0 0-1
  42 O    1     2.3876     4.5119   40 O    0 0 0
  42 O    1     2.5481     4.8152   31 C    0 0-1
  42 O    1     2.5522     4.8230   25 C    0 0 0


 SYMMETRY ALLOWED INTERNAL DEGREE(S) OF FREEDOM: 123
 TTTTTTTTTTTTTTTTTTTTTTTTTTTTTT SYMM        TELAPSE        0.35 TCPU        0.35
 TTTTTTTTTTTTTTTTTTTTTTTTTTTTTT INT_SCREEN  TELAPSE        0.38 TCPU        0.38

 DFT PARAMETERS

     ATOM       ELECTRONS   NET CHARGE   R(ANGSTROM)
   1   5  B       5.0000      0.0000     0.89000000
   7   1  H       1.0000      0.0000     1.11000000
  19   6  C       6.0000      0.0000     0.77000000
  37   8  O       8.0000      0.0000     0.74000000

 SIZE OF GRID=    1260261
 TTTTTTTTTTTTTTTTTTTTTTTTTTTTTT MAKE_GRID2  TELAPSE       11.17 TCPU       11.16
 BECKE WEIGHT FUNCTION
 RADSAFE =     2.00
 TOLERANCES - DENSITY:10**- 6; POTENTIAL:10**- 9; GRID WGT:10**-14

 RADIAL INTEGRATION  - INTERVALS (POINTS,UPPER LIMIT):            1( 75,  4.0*R)

 ANGULAR INTEGRATION - INTERVALS (ACCURACY LEVEL [N. POINTS] UPPER LIMIT):
  1(  4[  86]   0.2)  2(  8[ 194]   0.5)  3( 12[ 350]   0.9)  4( 16[ 974]   3.5)
  5( 12[ 350]9999.0)
 TTTTTTTTTTTTTTTTTTTTTTTTTTTTTT INT_CALC    TELAPSE       11.27 TCPU       11.26
 EEEEEEEEEE INT_CALC TERMINATION  DATE 02 12 2025 TIME 07:59:29.7

 *******************************************************************************
 COF-5_z34_inc_L030                                                              
 CRYSTAL - SCF - TYPE OF CALCULATION :  RESTRICTED CLOSED SHELL
 *******************************************************************************

 CAPPA:IS1  2;IS2  2;IS3  8; K PTS MONK NET  20; SYMMOPS:K SPACE   2;G SPACE   1

 TTTTTTTTTTTTTTTTTTTTTTTTTTTTTT SDIK        TELAPSE       11.92 TCPU       19.51

 AAAAAAAAAAAAAAAAAAAAAAAAAAAAAAAAAAAAAAAAAAAAAAAAAAAAAAAAAAAAAAAAAAAAAAAAAAAAAAA
         ATOMIC WAVEFUNCTION(S)


 NUCLEAR CHARGE  5.0  SYMMETRY SPECIES            S    P
 N. ELECTRONS    5.0  NUMBER OF PRIMITIVE GTOS    8    4
                      NUMBER OF CONTRACTED GTOS   4    2
                      NUMBER OF CLOSED SHELLS     2    0
                      OPEN SHELL OCCUPATION       0    1

  ZNUC  SCFIT    TOTAL HF ENERGY   KINETIC ENERGY   VIRIAL THEOREM ACCURACY
   5.0    11    -2.451164084E+01  2.462155050E+01 -1.995536038E+00  1.5E-06

 NUCLEAR CHARGE  1.0  SYMMETRY SPECIES            S
 N. ELECTRONS    1.0  NUMBER OF PRIMITIVE GTOS    4
                      NUMBER OF CONTRACTED GTOS   2
                      NUMBER OF CLOSED SHELLS     0
                      OPEN SHELL OCCUPATION       1

  ZNUC  SCFIT    TOTAL HF ENERGY   KINETIC ENERGY   VIRIAL THEOREM ACCURACY
   1.0     1    -4.977266687E-01  5.190767460E-01 -1.958869132E+00  0.0E+00

 NUCLEAR CHARGE  6.0  SYMMETRY SPECIES            S    P
 N. ELECTRONS    6.0  NUMBER OF PRIMITIVE GTOS    8    4
                      NUMBER OF CONTRACTED GTOS   4    2
                      NUMBER OF CLOSED SHELLS     2    0
                      OPEN SHELL OCCUPATION       0    2

  ZNUC  SCFIT    TOTAL HF ENERGY   KINETIC ENERGY   VIRIAL THEOREM ACCURACY
   6.0     9    -3.766704647E+01  3.775180683E+01 -1.997754800E+00  1.1E-06

 NUCLEAR CHARGE  8.0  SYMMETRY SPECIES            S    P
 N. ELECTRONS    8.0  NUMBER OF PRIMITIVE GTOS    8    4
                      NUMBER OF CONTRACTED GTOS   4    2
                      NUMBER OF CLOSED SHELLS     2    0
                      OPEN SHELL OCCUPATION       0    4

  ZNUC  SCFIT    TOTAL HF ENERGY   KINETIC ENERGY   VIRIAL THEOREM ACCURACY
   8.0    12    -7.477373220E+01  7.477365593E+01 -2.000001020E+00  3.8E-06

 AAAAAAAAAAAAAAAAAAAAAAAAAAAAAAAAAAAAAAAAAAAAAAAAAAAAAAAAAAAAAAAAAAAAAAAAAAAAAAA

 CHARGE NORMALIZATION FACTOR   1.00000000
 TOTAL ATOMIC CHARGES:
   5.0000000   5.0000000   5.0000000   5.0000000   5.0000000   5.0000000
   1.0000000   1.0000000   1.0000000   1.0000000   1.0000000   1.0000000
   1.0000000   1.0000000   1.0000000   1.0000000   1.0000000   1.0000000
   6.0000000   6.0000000   6.0000000   6.0000000   6.0000000   6.0000000
   6.0000000   6.0000000   6.0000000   6.0000000   6.0000000   6.0000000
   6.0000000   6.0000000   6.0000000   6.0000000   6.0000000   6.0000000
   8.0000000   8.0000000   8.0000000   8.0000000   8.0000000   8.0000000
 TTTTTTTTTTTTTTTTTTTTTTTTTTTTTT MOQGAD      TELAPSE       11.98 TCPU       21.20
 TTTTTTTTTTTTTTTTTTTTTTTTTTTTTT SHELLXN     TELAPSE       22.29 TCPU      350.95
 TTTTTTTTTTTTTTTTTTTTTTTTTTTTTT MONMO3      TELAPSE       22.46 TCPU      356.34
 NUMERICALLY INTEGRATED DENSITY    198.0000301175
 TTTTTTTTTTTTTTTTTTTTTTTTTTTTTT NUMDFT      TELAPSE       23.11 TCPU      377.27
 CYC   0 ETOT(AU) -1.295973028218E+03 DETOT -1.30E+03 tst  0.00E+00 PX  1.00E+00
 TTTTTTTTTTTTTTTTTTTTTTTTTTTTTT DIIS        TELAPSE       23.15 TCPU      378.49
 TTTTTTTTTTTTTTTTTTTTTTTTTTTTTT FDIK        TELAPSE       23.67 TCPU      394.90
 INSULATING STATE
 TOP OF VALENCE BANDS -    BAND     99; K   17; EIG -3.0498946E-01 AU
 TOP OF VALENCE BANDS -    BAND     99; K    1; EIG -3.1064915E-01 AU
 BOTTOM OF VIRTUAL BANDS - BAND    100; K    1; EIG -1.6505600E-01 AU
 INDIRECT ENERGY BAND GAP:   3.8078 eV
 TTTTTTTTTTTTTTTTTTTTTTTTTTTTTT PDIG        TELAPSE       23.98 TCPU      401.07
 CHARGE NORMALIZATION FACTOR   1.00000000
 TOTAL ATOMIC CHARGES:
   4.1322065   4.1516246   4.1529700   4.1542395   4.1521263   4.1315461
   0.7858392   0.7858020   0.7845690   0.7845084   0.7864090   0.7862765
   0.7873005   0.7868392   0.7855420   0.7861466   0.7846653   0.7849347
   6.0460240   6.2685072   6.2685129   6.2668844   6.2655450   6.0484638
   6.0493110   6.2660209   6.2642594   6.2669277   6.2666671   6.0531175
   6.0452292   6.2684381   6.2694050   6.2663226   6.2680151   6.0426035
   8.7024622   8.7017335   8.6991924   8.7012871   8.6980114   8.7035134
 TTTTTTTTTTTTTTTTTTTTTTTTTTTTTT MOQGAD      TELAPSE       24.04 TCPU      401.13
 TTTTTTTTTTTTTTTTTTTTTTTTTTTTTT SHELLXN     TELAPSE       34.76 TCPU      743.13
 TTTTTTTTTTTTTTTTTTTTTTTTTTTTTT MONMO3      TELAPSE       34.92 TCPU      748.48
 NUMERICALLY INTEGRATED DENSITY    198.0000217582
 TTTTTTTTTTTTTTTTTTTTTTTTTTTTTT NUMDFT      TELAPSE       35.60 TCPU      769.99
 CYC   1 ETOT(AU) -1.288829194762E+03 DETOT  7.14E+00 tst  0.00E+00 PX  1.00E+00
 TTTTTTTTTTTTTTTTTTTTTTTTTTTTTT DIIS        TELAPSE       35.64 TCPU      771.46
 DIIS TEST: 0.10828E+01 AT SCF   CYCLE   1 - MIX   30 %
 TTTTTTTTTTTTTTTTTTTTTTTTTTTTTT FDIK        TELAPSE       36.16 TCPU      788.02
 INSULATING STATE
 TOP OF VALENCE BANDS -    BAND     99; K   17; EIG -2.1337079E-01 AU
 TOP OF VALENCE BANDS -    BAND     99; K    1; EIG -2.2477447E-01 AU
 BOTTOM OF VIRTUAL BANDS - BAND    100; K    1; EIG -8.8083705E-02 AU
 INDIRECT ENERGY BAND GAP:   3.4092 eV
 TTTTTTTTTTTTTTTTTTTTTTTTTTTTTT PDIG        TELAPSE       36.47 TCPU      794.18
 CHARGE NORMALIZATION FACTOR   1.00000000
 TOTAL ATOMIC CHARGES:
   4.6490880   4.6900334   4.6904574   4.6907158   4.6906062   4.6496351
   0.9075211   0.9079295   0.9185889   0.9185981   0.9042644   0.9037983
   0.9049166   0.9051010   0.9069790   0.9075548   0.9181842   0.9183701
   5.8692460   6.1238375   6.1219383   6.1505505   6.1530168   5.8653700
   5.9060933   6.1399285   6.1427531   6.1447992   6.1433142   5.9023085
   5.8711742   6.1186168   6.1217023   6.1536906   6.1496161   5.8716902
   8.3363463   8.3349610   8.3631630   8.3334469   8.3603592   8.3397358
 TTTTTTTTTTTTTTTTTTTTTTTTTTTTTT MOQGAD      TELAPSE       36.52 TCPU      794.24
 TTTTTTTTTTTTTTTTTTTTTTTTTTTTTT SHELLXN     TELAPSE       47.24 TCPU     1136.28
 TTTTTTTTTTTTTTTTTTTTTTTTTTTTTT MONMO3      TELAPSE       47.41 TCPU     1141.64
 NUMERICALLY INTEGRATED DENSITY    198.0000226283
 TTTTTTTTTTTTTTTTTTTTTTTTTTTTTT NUMDFT      TELAPSE       48.08 TCPU     1162.86
 CYC   2 ETOT(AU) -1.289021365157E+03 DETOT -1.92E-01 tst  3.39E-03 PX  1.59E-01
 TTTTTTTTTTTTTTTTTTTTTTTTTTTTTT DIIS        TELAPSE       48.13 TCPU     1164.69
 DIIS TEST: 0.44995E+00 AT SCF   CYCLE   2 - DIIS ACTIVE - HISTORY:     2 CYCLES
 TTTTTTTTTTTTTTTTTTTTTTTTTTTTTT FDIK        TELAPSE       48.65 TCPU     1181.30
 INSULATING STATE
 TOP OF VALENCE BANDS -    BAND     99; K   17; EIG -2.2674992E-01 AU
 TOP OF VALENCE BANDS -    BAND     99; K    1; EIG -2.3501074E-01 AU
 BOTTOM OF VIRTUAL BANDS - BAND    100; K    1; EIG -8.3697495E-02 AU
 INDIRECT ENERGY BAND GAP:   3.8927 eV
 TTTTTTTTTTTTTTTTTTTTTTTTTTTTTT PDIG        TELAPSE       48.97 TCPU     1187.46
 CHARGE NORMALIZATION FACTOR   1.00000000
 TOTAL ATOMIC CHARGES:
   4.4514184   4.4851403   4.4857858   4.4865937   4.4852312   4.4513371
   0.8862203   0.8861819   0.8939629   0.8941644   0.8857371   0.8855206
   0.8871982   0.8866755   0.8851055   0.8862320   0.8943648   0.8938211
   5.8907280   6.1665959   6.1673010   6.1591528   6.1592039   5.8924366
   5.9188348   6.1605101   6.1608327   6.1634782   6.1631978   5.9200248
   5.8911921   6.1663011   6.1666387   6.1599820   6.1609335   5.8910785
   8.5239522   8.5235167   8.5183215   8.5230094   8.5161072   8.5259798
 TTTTTTTTTTTTTTTTTTTTTTTTTTTTTT MOQGAD      TELAPSE       49.02 TCPU     1187.52
 TTTTTTTTTTTTTTTTTTTTTTTTTTTTTT SHELLXN     TELAPSE       59.74 TCPU     1529.34
 TTTTTTTTTTTTTTTTTTTTTTTTTTTTTT MONMO3      TELAPSE       59.90 TCPU     1534.67
 NUMERICALLY INTEGRATED DENSITY    198.0000236205
 TTTTTTTTTTTTTTTTTTTTTTTTTTTTTT NUMDFT      TELAPSE       60.57 TCPU     1555.95
 CYC   3 ETOT(AU) -1.289114537604E+03 DETOT -9.32E-02 tst  6.88E-04 PX  6.69E-02
 TTTTTTTTTTTTTTTTTTTTTTTTTTTTTT DIIS        TELAPSE       60.63 TCPU     1558.01
 DIIS TEST: 0.14292E-01 AT SCF   CYCLE   3 - DIIS ACTIVE - HISTORY:     3 CYCLES
 TTTTTTTTTTTTTTTTTTTTTTTTTTTTTT FDIK        TELAPSE       61.16 TCPU     1574.87
 INSULATING STATE
 TOP OF VALENCE BANDS -    BAND     99; K   17; EIG -2.3647161E-01 AU
 TOP OF VALENCE BANDS -    BAND     99; K    1; EIG -2.4711037E-01 AU
 BOTTOM OF VIRTUAL BANDS - BAND    100; K    1; EIG -9.2133275E-02 AU
 INDIRECT ENERGY BAND GAP:   3.9276 eV
 TTTTTTTTTTTTTTTTTTTTTTTTTTTTTT PDIG        TELAPSE       61.47 TCPU     1581.04
 CHARGE NORMALIZATION FACTOR   1.00000000
 TOTAL ATOMIC CHARGES:
   4.4598294   4.4889947   4.4894219   4.4904322   4.4891241   4.4600001
   0.8701563   0.8705274   0.8763102   0.8764744   0.8663730   0.8661197
   0.8676209   0.8674288   0.8695687   0.8703185   0.8764189   0.8765503
   5.9397354   6.1614215   6.1595816   6.1780244   6.1787254   5.9376491
   5.9710835   6.1707996   6.1715101   6.1727014   6.1721590   5.9702120
   5.9404766   6.1583649   6.1604907   6.1799123   6.1771642   5.9390351
   8.4823128   8.4810449   8.5016739   8.4797977   8.4996991   8.4847550
 TTTTTTTTTTTTTTTTTTTTTTTTTTTTTT MOQGAD      TELAPSE       61.53 TCPU     1581.09
 TTTTTTTTTTTTTTTTTTTTTTTTTTTTTT SHELLXN     TELAPSE       72.24 TCPU     1922.93
 TTTTTTTTTTTTTTTTTTTTTTTTTTTTTT MONMO3      TELAPSE       72.41 TCPU     1928.27
 NUMERICALLY INTEGRATED DENSITY    198.0000231100
 TTTTTTTTTTTTTTTTTTTTTTTTTTTTTT NUMDFT      TELAPSE       73.08 TCPU     1949.51
 CYC   4 ETOT(AU) -1.289117552466E+03 DETOT -3.01E-03 tst  3.42E-05 PX  1.47E-02
 TTTTTTTTTTTTTTTTTTTTTTTTTTTTTT DIIS        TELAPSE       73.14 TCPU     1951.52
 DIIS TEST: 0.43013E-02 AT SCF   CYCLE   4 - DIIS ACTIVE - HISTORY:     4 CYCLES
 TTTTTTTTTTTTTTTTTTTTTTTTTTTTTT FDIK        TELAPSE       73.66 TCPU     1968.22
 INSULATING STATE
 TOP OF VALENCE BANDS -    BAND     99; K   17; EIG -2.3498251E-01 AU
 TOP OF VALENCE BANDS -    BAND     99; K    1; EIG -2.4477297E-01 AU
 BOTTOM OF VIRTUAL BANDS - BAND    100; K    1; EIG -9.1936066E-02 AU
 INDIRECT ENERGY BAND GAP:   3.8925 eV
 TTTTTTTTTTTTTTTTTTTTTTTTTTTTTT PDIG        TELAPSE       73.97 TCPU     1974.39
 CHARGE NORMALIZATION FACTOR   1.00000000
 TOTAL ATOMIC CHARGES:
   4.4582583   4.4927478   4.4933645   4.4940900   4.4929254   4.4583051
   0.8722803   0.8723448   0.8799157   0.8800231   0.8702765   0.8699752
   0.8715132   0.8711700   0.8713847   0.8723725   0.8801523   0.8798509
   5.9216081   6.1658775   6.1659684   6.1731513   6.1736733   5.9220220
   5.9499240   6.1700008   6.1710214   6.1728686   6.1723315   5.9501892
   5.9222913   6.1644800   6.1655048   6.1741393   6.1740471   5.9224351
   8.4965432   8.4956687   8.5019383   8.4949890   8.4996433   8.4987337
 TTTTTTTTTTTTTTTTTTTTTTTTTTTTTT MOQGAD      TELAPSE       74.03 TCPU     1974.44
 TTTTTTTTTTTTTTTTTTTTTTTTTTTTTT SHELLXN     TELAPSE       84.74 TCPU     2316.29
 TTTTTTTTTTTTTTTTTTTTTTTTTTTTTT MONMO3      TELAPSE       84.91 TCPU     2321.64
 NUMERICALLY INTEGRATED DENSITY    198.0000230781
 TTTTTTTTTTTTTTTTTTTTTTTTTTTTTT NUMDFT      TELAPSE       85.57 TCPU     2342.87
 CYC   5 ETOT(AU) -1.289118533314E+03 DETOT -9.81E-04 tst  5.37E-06 PX  6.98E-03
 TTTTTTTTTTTTTTTTTTTTTTTTTTTTTT DIIS        TELAPSE       85.65 TCPU     2345.16
 DIIS TEST: 0.83035E-04 AT SCF   CYCLE   5 - DIIS ACTIVE - HISTORY:     5 CYCLES
 TTTTTTTTTTTTTTTTTTTTTTTTTTTTTT FDIK        TELAPSE       86.17 TCPU     2361.83
 INSULATING STATE
 TOP OF VALENCE BANDS -    BAND     99; K   17; EIG -2.3464167E-01 AU
 TOP OF VALENCE BANDS -    BAND     99; K    1; EIG -2.4446732E-01 AU
 BOTTOM OF VIRTUAL BANDS - BAND    100; K    1; EIG -9.1364591E-02 AU
 INDIRECT ENERGY BAND GAP:   3.8988 eV
 TTTTTTTTTTTTTTTTTTTTTTTTTTTTTT PDIG        TELAPSE       86.48 TCPU     2368.00
 CHARGE NORMALIZATION FACTOR   1.00000000
 TOTAL ATOMIC CHARGES:
   4.4597799   4.4916782   4.4921678   4.4930828   4.4918644   4.4599229
   0.8733412   0.8735996   0.8808509   0.8810504   0.8712775   0.8710603
   0.8725651   0.8722709   0.8726204   0.8734661   0.8809997   0.8810034
   5.9213699   6.1655837   6.1642276   6.1729812   6.1735209   5.9203164
   5.9513504   6.1692121   6.1693819   6.1712473   6.1710466   5.9509780
   5.9222730   6.1632215   6.1647827   6.1749231   6.1727312   5.9205265
   8.4946423   8.4937798   8.5058112   8.4925671   8.5038705   8.4970537
 TTTTTTTTTTTTTTTTTTTTTTTTTTTTTT MOQGAD      TELAPSE       86.53 TCPU     2368.05
 TTTTTTTTTTTTTTTTTTTTTTTTTTTTTT SHELLXN     TELAPSE       97.30 TCPU     2710.25
 TTTTTTTTTTTTTTTTTTTTTTTTTTTTTT MONMO3      TELAPSE       97.56 TCPU     2718.45
 NUMERICALLY INTEGRATED DENSITY    198.0000231265
 TTTTTTTTTTTTTTTTTTTTTTTTTTTTTT NUMDFT      TELAPSE       98.23 TCPU     2739.73
 CYC   6 ETOT(AU) -1.289118550318E+03 DETOT -1.70E-05 tst  2.73E-07 PX  1.27E-03
 TTTTTTTTTTTTTTTTTTTTTTTTTTTTTT DIIS        TELAPSE       98.31 TCPU     2742.11
 DIIS TEST: 0.32553E-04 AT SCF   CYCLE   6 - DIIS ACTIVE - HISTORY:     6 CYCLES
 TTTTTTTTTTTTTTTTTTTTTTTTTTTTTT FDIK        TELAPSE       98.83 TCPU     2758.74
 INSULATING STATE
 TOP OF VALENCE BANDS -    BAND     99; K   17; EIG -2.3470335E-01 AU
 TOP OF VALENCE BANDS -    BAND     99; K    1; EIG -2.4449823E-01 AU
 BOTTOM OF VIRTUAL BANDS - BAND    100; K    1; EIG -9.1418804E-02 AU
 INDIRECT ENERGY BAND GAP:   3.8990 eV
 TTTTTTTTTTTTTTTTTTTTTTTTTTTTTT PDIG        TELAPSE       99.14 TCPU     2764.91
 CHARGE NORMALIZATION FACTOR   1.00000000
 TOTAL ATOMIC CHARGES:
   4.4591849   4.4921320   4.4927151   4.4935130   4.4922910   4.4592324
   0.8733435   0.8734825   0.8807685   0.8809028   0.8712090   0.8709098
   0.8724547   0.8721486   0.8725118   0.8734530   0.8810001   0.8807672
   5.9215265   6.1651324   6.1648354   6.1727310   6.1731626   5.9213920
   5.9507277   6.1689934   6.1700360   6.1718112   6.1711258   5.9508540
   5.9220360   6.1634063   6.1647180   6.1738291   6.1733028   5.9220017
   8.4955341   8.4945316   8.5035053   8.4937905   8.5012767   8.4977201
 TTTTTTTTTTTTTTTTTTTTTTTTTTTTTT MOQGAD      TELAPSE       99.19 TCPU     2764.96
 TTTTTTTTTTTTTTTTTTTTTTTTTTTTTT SHELLXN     TELAPSE      109.91 TCPU     3107.00
 TTTTTTTTTTTTTTTTTTTTTTTTTTTTTT MONMO3      TELAPSE      110.08 TCPU     3112.37
 NUMERICALLY INTEGRATED DENSITY    198.0000231223
 TTTTTTTTTTTTTTTTTTTTTTTTTTTTTT NUMDFT      TELAPSE      110.75 TCPU     3133.62
 CYC   7 ETOT(AU) -1.289118556849E+03 DETOT -6.53E-06 tst  5.87E-08 PX  9.69E-04
 TTTTTTTTTTTTTTTTTTTTTTTTTTTTTT DIIS        TELAPSE      110.83 TCPU     3136.33
 DIIS TEST: 0.12916E-05 AT SCF   CYCLE   7 - DIIS ACTIVE - HISTORY:     7 CYCLES
 TTTTTTTTTTTTTTTTTTTTTTTTTTTTTT FDIK        TELAPSE      111.34 TCPU     3152.72
 INSULATING STATE
 TOP OF VALENCE BANDS -    BAND     99; K   17; EIG -2.3470535E-01 AU
 TOP OF VALENCE BANDS -    BAND     99; K    1; EIG -2.4451769E-01 AU
 BOTTOM OF VIRTUAL BANDS - BAND    100; K    1; EIG -9.1451661E-02 AU
 INDIRECT ENERGY BAND GAP:   3.8981 eV
 TTTTTTTTTTTTTTTTTTTTTTTTTTTTTT PDIG        TELAPSE      111.66 TCPU     3158.89
 CHARGE NORMALIZATION FACTOR   1.00000000
 TOTAL ATOMIC CHARGES:
   4.4591912   4.4922093   4.4927613   4.4935956   4.4923932   4.4592909
   0.8732923   0.8734560   0.8807443   0.8808945   0.8711491   0.8709037
   0.8724338   0.8721010   0.8724834   0.8734012   0.8809368   0.8807930
   5.9215381   6.1652430   6.1645691   6.1727035   6.1733204   5.9212621
   5.9507415   6.1693328   6.1697803   6.1716342   6.1713803   5.9506208
   5.9224570   6.1633727   6.1646017   6.1742507   6.1730113   5.9214673
   8.4954145   8.4945976   8.5037036   8.4936010   8.5016019   8.4977642
 TTTTTTTTTTTTTTTTTTTTTTTTTTTTTT MOQGAD      TELAPSE      111.71 TCPU     3158.94
 TTTTTTTTTTTTTTTTTTTTTTTTTTTTTT SHELLXN     TELAPSE      122.43 TCPU     3500.88
 TTTTTTTTTTTTTTTTTTTTTTTTTTTTTT MONMO3      TELAPSE      122.59 TCPU     3506.22
 NUMERICALLY INTEGRATED DENSITY    198.0000231207
 TTTTTTTTTTTTTTTTTTTTTTTTTTTTTT NUMDFT      TELAPSE      123.26 TCPU     3527.59
 CYC   8 ETOT(AU) -1.289118556851E+03 DETOT -2.17E-09 tst  8.53E-09 PX  1.33E-04
 TTTTTTTTTTTTTTTTTTTTTTTTTTTTTT DIIS        TELAPSE      123.35 TCPU     3530.35
 DIIS TEST: 0.33729E-06 AT SCF   CYCLE   8 - DIIS ACTIVE - HISTORY:     8 CYCLES
 TTTTTTTTTTTTTTTTTTTTTTTTTTTTTT FDIK        TELAPSE      123.86 TCPU     3546.80
 INSULATING STATE
 TOP OF VALENCE BANDS -    BAND     99; K   17; EIG -2.3470791E-01 AU
 TOP OF VALENCE BANDS -    BAND     99; K    1; EIG -2.4451741E-01 AU
 BOTTOM OF VIRTUAL BANDS - BAND    100; K    1; EIG -9.1450586E-02 AU
 INDIRECT ENERGY BAND GAP:   3.8982 eV
 TTTTTTTTTTTTTTTTTTTTTTTTTTTTTT PDIG        TELAPSE      124.18 TCPU     3552.97
 CHARGE NORMALIZATION FACTOR   1.00000000
 TOTAL ATOMIC CHARGES:
   4.4592288   4.4921958   4.4927560   4.4935715   4.4923605   4.4593025
   0.8732842   0.8734437   0.8807421   0.8808919   0.8711650   0.8708861
   0.8724217   0.8721121   0.8724711   0.8733934   0.8809522   0.8807738
   5.9215237   6.1652053   6.1646863   6.1727864   6.1732438   5.9212081
   5.9507196   6.1691263   6.1699451   6.1717444   6.1712194   5.9507518
   5.9221572   6.1633587   6.1646977   6.1740877   6.1731768   5.9216961
   8.4954423   8.4945006   8.5038012   8.4936417   8.5016382   8.4976894
 TTTTTTTTTTTTTTTTTTTTTTTTTTTTTT MOQGAD      TELAPSE      124.23 TCPU     3553.02
 TTTTTTTTTTTTTTTTTTTTTTTTTTTTTT SHELLXN     TELAPSE      134.94 TCPU     3894.78
 +++ ENERGIES IN A.U. +++
 ::: EXT EL-POLE                                  -1.5290951187031E+03
 ::: EXT EL-SPHEROPOLE                             1.6864902770271E+01
 ::: BIELET ZONE E-E                               2.3399272719581E+03
 ::: TOTAL E-E                                     8.2769705602528E+02
 ::: TOTAL E-N + N-E                              -3.4797995609477E+03
 ::: TOTAL N-N                                     2.1678255037469E+02
 ::: KINETIC ENERGY                                1.2799187939405E+03
 ::: PSEUDO TOTAL   ENERGY                        -1.1554011606073E+03
 ::: VIRIAL COEFFICIENT                            1.0511298866914E+00
 TTTTTTTTTTTTTTTTTTTTTTTTTTTTTT MONMO3      TELAPSE      135.11 TCPU     3900.21
 NUMERICALLY INTEGRATED DENSITY    198.0000231206
 EXCHANGE ENERGY: -0.126015816938E+03  CORRELATION ENERGY: -0.770157939232E+01
 TTTTTTTTTTTTTTTTTTTTTTTTTTTTTT NUMDFT      TELAPSE      135.78 TCPU     3921.66
 CYC   9 ETOT(AU) -1.289118556938E+03 DETOT -8.67E-08 tst  2.34E-09 PX  1.33E-04

 == SCF ENDED - CONVERGENCE ON ENERGY      E(AU) -1.2891185569376E+03 CYCLES   9


 ENERGY EXPRESSION=HARTREE+FOCK EXCH*0.00000+(HSESOL     EXCH)*1.00000+PBESOL     CORR


 TOTAL ENERGY(DFT)(AU)(  9) -1.2891185569376E+03 DE-8.7E-08 tester 2.3E-09
 TTTTTTTTTTTTTTTTTTTTTTTTTTTTTT EDFT        TELAPSE      135.78 TCPU     3921.68
 
 INFORMATION **** DFTD3 ENERGY **** CALCULATE DFTD3 ENERGY

           DFT-D V3(BJ)
 DF                                         hsesol3c  
 parameters
 s6       :    1.0000
 s8       :    0.0000
 a1       :    0.5196
 a2       :    4.9385
 k1 k3    :   16.0000   -4.0000
 Cutoff   :   50.2022
 CN-Cutoff:   21.1671
 ABC-Cutoff:   21.1671
 
 Edisp /kcal,au:   -29.7870 -0.04746863

 E6    /kcal :   -31.7658
 E8    /kcal :     0.0000
 E6(ABC) "   :   1.978755
 
 INFORMATION **** DFTD3 ENERGY **** NORMAL TERMINATION OF DFTD3 MODULE

 GCP ENERGY CALCULATION
  level        hsesol3c            basis:hsesol3c
  Nbf            474
  Atoms           42

  Parameters: 
  sigma     1.0000
  eta       1.4281
  alpha     0.2936
  beta      1.9467

  dmp_scal      4.0000
  dmp_exp       6.0000
 cutoffs: 
   distance [bohr] 60.0
   noise    [a.u.] 2.2E-16
 SR-damping   T
 ** gCP correction **
  Egcp:        0.0837757959 / (a.u.) ||      52.5701 / (kcal/mol)
 INFORMATION **** GCP **** NORMAL TERMINATION OF GCP MODULE

 *******************************************************************************

 DFT-D3-GCP DISPERSION AND COUNTERPOISE CORRECTION

 D3 DISPERSION ENERGY (AU)      -4.7468633412934E-02
 GCP ENERGY (AU)                 8.3775795919682E-02
 TOTAL ENERGY + DISP + GCP (AU) -1.2890822497751E+03

 *******************************************************************************

 EIGENVECTORS IN FORTRAN UNIT 10
 TTTTTTTTTTTTTTTTTTTTTTTTTTTTTT END         TELAPSE      137.24 TCPU     3929.10
 EEEEEEEEEE TERMINATION  DATE 02 12 2025 TIME 08:01:35.7
