 Default number of threads is:           32

         
 *******************************************************************************
 *                                                                             *
 *                               CRYSTAL23                                     *
 *                      public : 1.0.1 - October 2022                          *
 *                       HTTP://WWW.CRYSTAL.UNITO.IT                           *
 *                                                                             *
 *                              MAIN AUTHORS                                   *
 *                                                                             *
 *  R. DOVESI(1,11), V.R. SAUNDERS(2), C. ROETTI(1,11), R. ORLANDO(1,11),      *
 *  C.M. ZICOVICH-WILSON(1,3), F. PASCALE(4), B. CIVALLERI(1,11),              *
 *  K. DOLL(5), N.M. HARRISON(6), I.J. BUSH(7), Ph. D'ARCO(8),                 *
 *  M. LLUNELL(9), M. CAUSA'(10), Y. NOEL(8), L. MASCHIO(1,11), A. ERBA(1,11)  *
 *  M. RE'RAT(14), S. CASASSA(1,11), B.G. SEARLE(2), J.K. DESMARAIS(1)         *
 *                                                                             *
 *        CONTRIBUTIONS TO THE CODE HAVE ALSO BEEN GIVEN BY                    *
 *                                                                             *
 *  M. FERRABONE(1,11), M. DE LA PIERRE(1,11), M. FERRERO(1,11),               *
 *  J. BAIMA(1,11), E. ALBANESE(1,11), M.F. PEINTINGER(12), R. BAST(13),       *
 *  B. KIRTMAN(15), V. LACIVITA(1,11), R. DEMICHELIS(1,16)                     *
 *  G. BRANDEBURG(17), S. SALUSTRO(1,11), G. SANSONE(1,11)                     *
 *  M.T. RUGGIERO(18), L.E. DAGA(1), L. DONA'(1), A. COSSARD(1)                *
 *                                                                             *
 * (1) THEORETICAL CHEMISTRY GROUP - UNIVERSITA' DI TORINO - TORINO (ITALY)    *
 * (2) SCIENTIFIC COMPUTING DEPARTMENT - STFC DARESBURY (UK)                   *
 * (3) UNIVERSIDAD AUTONOMA DEL ESTADO DE MORELOS - CUERNAVACA (MEXICO)        *
 * (4) UNIVERSITE' DE LORRAINE - NANCY (FRANCE)                                *
 * (5) UNIVERSITAET STUTTGART- STUTTGART (GERMANY)                             *
 * (6) IMPERIAL COLLEGE - LONDON (UK)                                          *
 * (7) SCIENTIFIC COMPUTING DEPARTMENT - STFC RAL (UK)                         *
 * (8) UPMC - SORBONNE UNIVERSITES - PARIS (FRANCE)                            *
 * (9) UNIVERSIDAD DE BARCELONA - BARCELONA (SPAIN)                            *
 *(10) UNIVERSITA' DI NAPOLI "FEDERICO II" - NAPOLI (ITALY)                    *
 *(11) NIS - NANOSTRUCTURED INTERFACES AND SURFACES - TORINO (ITALY)           *
 *(12) MPI FUER CHEMISCHE ENERGIEKONVERSION - MUELHEIM AN DER RUHR (GERMANY)   *
 *(13) UNIVERSITY OF TROMSO - TROMSO (NORWAY)                                  *
 *(14) UNIVERSITE' DE PAU ET DES PAYS DE L'ADOUR - PAU (FRANCE)                *
 *(15) UNIVERSITY OF CALIFORNIA SANTA BARBARA - SANTA BARBARA (USA)            *
 *(16) CURTIN UNIVERSITY - PERTH (AUSTRALIA)                                   *
 *(17) UNIVERSITY COLLEGE LONDON - LONDON (UK)                                 *
 *(18) UNIVERSITY OF VERMONT - BURLINGTON (USA)                                *
 *                                                                             *
 *******************************************************************************
 EEEEEEEEEE STARTING  DATE 02 12 2025 TIME 07:57:23.3
 COF-5_z33_inc_L000                                                              

 CRYSTAL CALCULATION
 (INPUT ACCORDING TO THE INTERNATIONAL TABLES FOR X-RAY CRYSTALLOGRAPHY)
 CRYSTAL FAMILY                       :  TRICLINIC   
 CRYSTAL CLASS  (GROTH - 1921)        :  TRICLINIC PEDIAL                     

 SPACE GROUP (NONCENTROSYMMETRIC)     :  P 1             

 LATTICE PARAMETERS  (ANGSTROMS AND DEGREES) - CONVENTIONAL CELL
        A           B           C        ALPHA        BETA       GAMMA
    15.02070    15.04439     3.30000    90.00330    89.99929   120.05310


 NUMBER OF IRREDUCIBLE ATOMS IN THE CONVENTIONAL CELL:   42

 INPUT COORDINATES

 ATOM AT. N.              COORDINATES
   1   5     6.156164300000E-01  2.280750700000E-01  5.006701200000E-01
   2   5     7.743958300000E-01  3.871017900000E-01  5.006801100000E-01
   3   5     6.151641200000E-01  3.867891800000E-01  4.992500900000E-01
   4   5     2.287899500000E-01  6.143590000000E-01  5.054652800000E-01
   5   5     3.873645400000E-01  6.138581800000E-01  5.095093100000E-01
   6   5     3.876370900000E-01  7.731966900000E-01  5.035434700000E-01
   7   1     9.044214300000E-01  3.095486000000E-01  5.045686500000E-01
   8   1     9.886935000000E-02  6.914399800000E-01  4.929779300000E-01
   9   1     9.044870700000E-01  5.941405000000E-01  4.928396300000E-01
  10   1     9.886081000000E-02  4.067623600000E-01  5.041372100000E-01
  11   1     5.944002700000E-01  9.032291200000E-01  5.042592800000E-01
  12   1     4.082606200000E-01  9.863600000000E-02  4.946102100000E-01
  13   1     3.099203300000E-01  9.049241600000E-01  4.959171000000E-01
  14   1     6.925018400000E-01  9.691914000000E-02  5.023978900000E-01
  15   1     5.939977500000E-01  6.905649700000E-01  4.978146400000E-01
  16   1     4.066874900000E-01  3.089518100000E-01  5.060980500000E-01
  17   1     3.093234400000E-01  4.048732800000E-01  5.057331600000E-01
  18   1     6.917891600000E-01  5.947057300000E-01  4.987481200000E-01
  19   6     8.936883400000E-01  4.465308800000E-01  5.004301100000E-01
  20   6     9.482125500000E-01  3.933544000000E-01  5.021962600000E-01
  21   6     5.522963000000E-02  6.076907100000E-01  4.958031500000E-01
  22   6     9.482511500000E-01  5.541658000000E-01  4.961403200000E-01
  23   6     5.524319000000E-02  4.469193500000E-01  5.015525300000E-01
  24   6     1.097444900000E-01  5.545914500000E-01  4.993691900000E-01
  25   6     4.466001600000E-01  8.925727600000E-01  5.019116200000E-01
  26   6     5.544734200000E-01  9.470548000000E-01  5.023018100000E-01
  27   6     4.480139400000E-01  5.459988000000E-02  4.970252700000E-01
  28   6     3.938956300000E-01  9.476446600000E-01  4.981439800000E-01
  29   6     6.085567200000E-01  5.392133000000E-02  5.008643600000E-01
  30   6     5.558772400000E-01  1.089145700000E-01  4.992400500000E-01
  31   6     4.462008000000E-01  5.535192700000E-01  5.000112900000E-01
  32   6     5.540499900000E-01  6.067742600000E-01  4.994597900000E-01
  33   6     4.472124200000E-01  3.927448200000E-01  5.039834700000E-01
  34   6     3.933109600000E-01  4.457904200000E-01  5.033755100000E-01
  35   6     6.078636300000E-01  5.537097300000E-01  5.003981800000E-01
  36   6     5.551090200000E-01  4.459864200000E-01  5.016400700000E-01
  37   8     5.624997000000E-01  2.808905100000E-01  4.996399700000E-01
  38   8     7.216591500000E-01  2.811877200000E-01  5.026301100000E-01
  39   8     7.212675800000E-01  4.399315100000E-01  4.981102500000E-01
  40   8     2.816285800000E-01  7.202206700000E-01  5.027767900000E-01
  41   8     2.813888000000E-01  5.611590400000E-01  5.102647800000E-01
  42   8     4.404370800000E-01  7.199310200000E-01  5.052486000000E-01

 *******************************************************************************

 << INFORMATION >>: FROM NOW ON, ALL COORDINATES REFER TO THE PRIMITIVE CELL

 *******************************************************************************

 LATTICE PARAMETERS  (ANGSTROMS AND DEGREES) - PRIMITIVE CELL
       A          B          C        ALPHA      BETA     GAMMA        VOLUME
   15.02070   15.04439    3.30000    90.00330  89.99929 120.05310    645.470835

 COORDINATES OF THE EQUIVALENT ATOMS (FRACTIONAL UNITS)

 N. ATOM EQUIV AT. N.          X                  Y                  Z

   1   1   1    5 B    -3.84383570000E-01  2.28075070000E-01 -4.99329880000E-01

   2   2   1    5 B    -2.25604170000E-01  3.87101790000E-01 -4.99319890000E-01

   3   3   1    5 B    -3.84835880000E-01  3.86789180000E-01  4.99250090000E-01

   4   4   1    5 B     2.28789950000E-01 -3.85641000000E-01 -4.94534720000E-01

   5   5   1    5 B     3.87364540000E-01 -3.86141820000E-01 -4.90490690000E-01

   6   6   1    5 B     3.87637090000E-01 -2.26803310000E-01 -4.96456530000E-01

   7   7   1    1 H    -9.55785700000E-02  3.09548600000E-01 -4.95431350000E-01

   8   8   1    1 H     9.88693500000E-02 -3.08560020000E-01  4.92977930000E-01

   9   9   1    1 H    -9.55129300000E-02 -4.05859500000E-01  4.92839630000E-01

  10  10   1    1 H     9.88608100000E-02  4.06762360000E-01 -4.95862790000E-01

  11  11   1    1 H    -4.05599730000E-01 -9.67708800000E-02 -4.95740720000E-01

  12  12   1    1 H     4.08260620000E-01  9.86360000000E-02  4.94610210000E-01

  13  13   1    1 H     3.09920330000E-01 -9.50758400000E-02  4.95917100000E-01

  14  14   1    1 H    -3.07498160000E-01  9.69191400000E-02 -4.97602110000E-01

  15  15   1    1 H    -4.06002250000E-01 -3.09435030000E-01  4.97814640000E-01

  16  16   1    1 H     4.06687490000E-01  3.08951810000E-01 -4.93901950000E-01

  17  17   1    1 H     3.09323440000E-01  4.04873280000E-01 -4.94266840000E-01

  18  18   1    1 H    -3.08210840000E-01 -4.05294270000E-01  4.98748120000E-01

  19  19   1    6 C    -1.06311660000E-01  4.46530880000E-01 -4.99569890000E-01

  20  20   1    6 C    -5.17874500000E-02  3.93354400000E-01 -4.97803740000E-01

  21  21   1    6 C     5.52296300000E-02 -3.92309290000E-01  4.95803150000E-01

  22  22   1    6 C    -5.17488500000E-02 -4.45834200000E-01  4.96140320000E-01

  23  23   1    6 C     5.52431900000E-02  4.46919350000E-01 -4.98447470000E-01

  24  24   1    6 C     1.09744490000E-01 -4.45408550000E-01  4.99369190000E-01

  25  25   1    6 C     4.46600160000E-01 -1.07427240000E-01 -4.98088380000E-01

  26  26   1    6 C    -4.45526580000E-01 -5.29452000000E-02 -4.97698190000E-01

  27  27   1    6 C     4.48013940000E-01  5.45998800000E-02  4.97025270000E-01

  28  28   1    6 C     3.93895630000E-01 -5.23553400000E-02  4.98143980000E-01

  29  29   1    6 C    -3.91443280000E-01  5.39213300000E-02 -4.99135640000E-01

  30  30   1    6 C    -4.44122760000E-01  1.08914570000E-01  4.99240050000E-01

  31  31   1    6 C     4.46200800000E-01 -4.46480730000E-01 -4.99988710000E-01

  32  32   1    6 C    -4.45950010000E-01 -3.93225740000E-01  4.99459790000E-01

  33  33   1    6 C     4.47212420000E-01  3.92744820000E-01 -4.96016530000E-01

  34  34   1    6 C     3.93310960000E-01  4.45790420000E-01 -4.96624490000E-01

  35  35   1    6 C    -3.92136370000E-01 -4.46290270000E-01 -4.99601820000E-01

  36  36   1    6 C    -4.44890980000E-01  4.45986420000E-01 -4.98359930000E-01

  37  37   1    8 O    -4.37500300000E-01  2.80890510000E-01  4.99639970000E-01

  38  38   1    8 O    -2.78340850000E-01  2.81187720000E-01 -4.97369890000E-01

  39  39   1    8 O    -2.78732420000E-01  4.39931510000E-01  4.98110250000E-01

  40  40   1    8 O     2.81628580000E-01 -2.79779330000E-01 -4.97223210000E-01

  41  41   1    8 O     2.81388800000E-01 -4.38840960000E-01 -4.89735220000E-01

  42  42   1    8 O     4.40437080000E-01 -2.80068980000E-01 -4.94751400000E-01

 NUMBER OF SYMMETRY OPERATORS         :    1
 *******************************************************************************
 * GEOMETRY EDITING - INPUT COORDINATES ARE GIVEN IN ANGSTROM         
 *******************************************************************************

 GCALCO - MAX INDICES DIRECT LATTICE VECTOR     9     9    38
 NO.OF VECTORS CREATED 6999 STARS 3500 RMAX   194.14799 BOHR

 GEOMETRY FOR WAVE FUNCTION - DIMENSIONALITY OF THE SYSTEM    3
 (NON PERIODIC DIRECTION: LATTICE PARAMETER FORMALLY SET TO 500)
 *******************************************************************************
 LATTICE PARAMETERS (ANGSTROMS AND DEGREES) - BOHR = 0.5291772083 ANGSTROM
 PRIMITIVE CELL - CENTRING CODE 1/0 VOLUME=   645.470835 - DENSITY  1.004 g/cm^3
         A              B              C           ALPHA      BETA       GAMMA 
    15.02070100    15.04438700     3.30000000    90.003305  89.999286 120.053104
 *******************************************************************************
 ATOMS IN THE ASYMMETRIC UNIT   42 - ATOMS IN THE UNIT CELL:   42
     ATOM                 X/A                 Y/B                 Z/C    
 *******************************************************************************
      1 T   5 B    -3.843835700000E-01  2.280750700000E-01 -4.993298800000E-01
      2 T   5 B    -2.256041700000E-01  3.871017900000E-01 -4.993198900000E-01
      3 T   5 B    -3.848358800000E-01  3.867891800000E-01  4.992500900000E-01
      4 T   5 B     2.287899500000E-01 -3.856410000000E-01 -4.945347200000E-01
      5 T   5 B     3.873645400000E-01 -3.861418200000E-01 -4.904906900000E-01
      6 T   5 B     3.876370900000E-01 -2.268033100000E-01 -4.964565300000E-01
      7 T   1 H    -9.557857000000E-02  3.095486000000E-01 -4.954313500000E-01
      8 T   1 H     9.886935000000E-02 -3.085600200000E-01  4.929779300000E-01
      9 T   1 H    -9.551293000000E-02 -4.058595000000E-01  4.928396300000E-01
     10 T   1 H     9.886081000000E-02  4.067623600000E-01 -4.958627900000E-01
     11 T   1 H    -4.055997300000E-01 -9.677088000000E-02 -4.957407200000E-01
     12 T   1 H     4.082606200000E-01  9.863600000000E-02  4.946102100000E-01
     13 T   1 H     3.099203300000E-01 -9.507584000000E-02  4.959171000000E-01
     14 T   1 H    -3.074981600000E-01  9.691914000000E-02 -4.976021100000E-01
     15 T   1 H    -4.060022500000E-01 -3.094350300000E-01  4.978146400000E-01
     16 T   1 H     4.066874900000E-01  3.089518100000E-01 -4.939019500000E-01
     17 T   1 H     3.093234400000E-01  4.048732800000E-01 -4.942668400000E-01
     18 T   1 H    -3.082108400000E-01 -4.052942700000E-01  4.987481200000E-01
     19 T   6 C    -1.063116600000E-01  4.465308800000E-01 -4.995698900000E-01
     20 T   6 C    -5.178745000000E-02  3.933544000000E-01 -4.978037400000E-01
     21 T   6 C     5.522963000000E-02 -3.923092900000E-01  4.958031500000E-01
     22 T   6 C    -5.174885000000E-02 -4.458342000000E-01  4.961403200000E-01
     23 T   6 C     5.524319000000E-02  4.469193500000E-01 -4.984474700000E-01
     24 T   6 C     1.097444900000E-01 -4.454085500000E-01  4.993691900000E-01
     25 T   6 C     4.466001600000E-01 -1.074272400000E-01 -4.980883800000E-01
     26 T   6 C    -4.455265800000E-01 -5.294520000000E-02 -4.976981900000E-01
     27 T   6 C     4.480139400000E-01  5.459988000000E-02  4.970252700000E-01
     28 T   6 C     3.938956300000E-01 -5.235534000000E-02  4.981439800000E-01
     29 T   6 C    -3.914432800000E-01  5.392133000000E-02 -4.991356400000E-01
     30 T   6 C    -4.441227600000E-01  1.089145700000E-01  4.992400500000E-01
     31 T   6 C     4.462008000000E-01 -4.464807300000E-01 -4.999887100000E-01
     32 T   6 C    -4.459500100000E-01 -3.932257400000E-01  4.994597900000E-01
     33 T   6 C     4.472124200000E-01  3.927448200000E-01 -4.960165300000E-01
     34 T   6 C     3.933109600000E-01  4.457904200000E-01 -4.966244900000E-01
     35 T   6 C    -3.921363700000E-01 -4.462902700000E-01 -4.996018200000E-01
     36 T   6 C    -4.448909800000E-01  4.459864200000E-01 -4.983599300000E-01
     37 T   8 O    -4.375003000000E-01  2.808905100000E-01  4.996399700000E-01
     38 T   8 O    -2.783408500000E-01  2.811877200000E-01 -4.973698900000E-01
     39 T   8 O    -2.787324200000E-01  4.399315100000E-01  4.981102500000E-01
     40 T   8 O     2.816285800000E-01 -2.797793300000E-01 -4.972232100000E-01
     41 T   8 O     2.813888000000E-01 -4.388409600000E-01 -4.897352200000E-01
     42 T   8 O     4.404370800000E-01 -2.800689800000E-01 -4.947514000000E-01

 T = ATOM BELONGING TO THE ASYMMETRIC UNIT

 ****    1 SYMMOPS - TRANSLATORS IN FRACTIONAL UNITS
 **** MATRICES AND TRANSLATORS IN THE CRYSTALLOGRAPHIC REFERENCE FRAME
   V INV                    ROTATION MATRICES                   TRANSLATORS
   1   1  1.00 -0.00  0.00  0.00  1.00  0.00  0.00  0.00  1.00  0.00  0.00  0.00

 DIRECT LATTICE VECTORS CARTESIAN COMPONENTS (ANGSTROM)
          X                    Y                    Z
   0.130013421718E+02  -0.752240388864E+01   0.000000000000E+00
   0.000000000000E+00   0.150443870000E+02   0.000000000000E+00
  -0.626257784214E-04  -0.190354334763E-03   0.329999999392E+01


 CARTESIAN COORDINATES - PRIMITIVE CELL
 *******************************************************************************
 *      ATOM          X(ANGSTROM)         Y(ANGSTROM)         Z(ANGSTROM)
 *******************************************************************************
    1     5 B    -4.997471047856E+00  6.322833129437E+00 -1.647788600962E+00
    2     5 B    -2.933125739252E+00  7.520889870560E+00 -1.647755633962E+00
    3     5 B    -5.003414221781E+00 -6.330585002885E+00  1.647525293962E+00
    4     5 B     2.974607396035E+00  7.521698280198E+00 -1.631964572991E+00
    5     5 B    -7.965052524661E+00 -1.200682243311E+00 -1.618619274016E+00
    6     5 B    -7.961508635236E+00  1.194418869576E+00 -1.638306545979E+00
    7     1 H    -1.242618666085E+00  5.376043847852E+00 -1.634923451986E+00
    8     1 H     1.285403376524E+00 -5.385925377001E+00  1.626827166001E+00
    9     1 H    -1.241827149224E+00 -5.387514363739E+00  1.626370776001E+00
   10     1 H     1.285354271982E+00  5.375913808927E+00 -1.636347203983E+00
   11     1 H    -5.273309828361E+00  1.595320783529E+00 -1.635944372984E+00
   12     1 H     5.307905040531E+00 -1.587277270533E+00  1.632213689991E+00
   13     1 H     4.029349199125E+00 -3.761798026841E+00  1.636526426983E+00
   14     1 H    -3.997857632631E+00  3.771309125120E+00 -1.642086959972E+00
   15     1 H    -5.278605350789E+00 -1.601242199654E+00  1.642788308971E+00
   16     1 H     5.287514145464E+00  1.588817054130E+00 -1.629876431995E+00
   17     1 H     4.021650839036E+00  3.764308548211E+00 -1.631080568993E+00
   18     1 H    -4.007185826379E+00 -3.779012364291E+00  1.645868792965E+00
   19     6 C    -1.382162982556E+00  7.517597706057E+00 -1.648580633960E+00
   20     6 C    -6.732751823069E-01  6.307436696115E+00 -1.642752338971E+00
   21     6 C     7.180282675923E-01 -6.317606744214E+00  1.636150391983E+00
   22     6 C    -6.728355770195E-01 -6.318120934623E+00  1.637263052981E+00
   23     6 C     7.182668315111E-01  6.308160953548E+00 -1.644876647967E+00
   24     6 C     1.426794392573E+00  7.517850965268E+00  1.647918323962E+00
   25     6 C    -7.194909484472E+00  2.546814948770E+00 -1.643691650969E+00
   26     6 C    -5.792412344464E+00  2.554997538301E+00 -1.642404023972E+00
   27     6 C     5.824751405070E+00 -2.548814690463E+00  1.640183387976E+00
   28     6 C     5.121140668942E+00 -3.750790839174E+00  1.643875130969E+00
   29     6 C    -5.089256765363E+00  3.755902820362E+00 -1.647147608963E+00
   30     6 C    -5.774223234329E+00  4.979328685369E+00  1.647492161962E+00
   31     6 C    -7.200101581472E+00 -2.551032459537E+00 -1.649962739958E+00
   32     6 C    -5.797979950574E+00 -2.561319195893E+00  1.648217303961E+00
   33     6 C     5.814392759308E+00  2.544587035965E+00 -1.636854545982E+00
   34     6 C     5.113601472364E+00  3.748094239047E+00 -1.638860813978E+00
   35     6 C    -5.098267836414E+00 -3.764260280276E+00 -1.648686002960E+00
   36     6 C    -5.784148649937E+00 -4.988050197829E+00 -1.644587765968E+00
   37     8 O     7.313219780878E+00 -5.619502206740E-03  1.648811897960E+00
   38     8 O    -3.618773483056E+00  6.324183848250E+00 -1.641320633974E+00
   39     8 O    -3.623926761329E+00 -6.329244087412E+00  1.643763821969E+00
   40     8 O     3.661580672921E+00 -6.327537791872E+00 -1.640836589975E+00
   41     8 O     3.658462742154E+00  6.325666786190E+00 -1.616126223020E+00
   42     8 O    -7.275038005365E+00 -4.113658393726E-03 -1.632679616990E+00

 *******************************************************************************
 STARTING BASIS SET HANDLING 
 *******************************************************************************

 Loading internal basis set: SOLDEF2MSVP         

 Please cite in your publication:
 L. Dona', J. G. Brandenburg and B. Civalleri, J. Chem. Phys., 151, 121101 (2019
 )                                                                              
                                                                                
                    

 *******************************************************************************
 LOCAL ATOMIC FUNCTIONS BASIS SET
 *******************************************************************************
   ATOM   X(AU)   Y(AU)   Z(AU)  N. TYPE  EXPONENT  S COEF   P COEF   D/F/G COEF
 *******************************************************************************
   1 B   -9.444  11.948  -3.114
                                  1 S  
                                         2.410E+03 1.755E-03 0.000E+00 0.000E+00
                                         3.619E+02 1.344E-02 0.000E+00 0.000E+00
                                         8.231E+01 6.637E-02 0.000E+00 0.000E+00
                                         2.311E+01 2.303E-01 0.000E+00 0.000E+00
                                         7.252E+00 5.150E-01 0.000E+00 0.000E+00
                                  2 S  
                                         2.367E+00 1.000E+00 0.000E+00 0.000E+00
                                  3 S  
                                         5.533E-01 1.000E+00 0.000E+00 0.000E+00
                                  4 S  
                                         1.716E-01 1.000E+00 0.000E+00 0.000E+00
                           5-     7 P  
                                         6.002E+00 0.000E+00-3.555E-02 0.000E+00
                                         1.240E+00 0.000E+00-1.983E-01 0.000E+00
                                         3.367E-01 0.000E+00-5.048E-01 0.000E+00
                           8-    10 P  
                                         1.256E-01 0.000E+00 1.000E+00 0.000E+00
                          11-    15 D  
                                         8.880E-01 0.000E+00 0.000E+00 1.000E+00
   2 B   -5.543  14.212  -3.114
   3 B   -9.455 -11.963   3.113
   4 B    5.621  14.214  -3.084
   5 B  -15.052  -2.269  -3.059
   6 B  -15.045   2.257  -3.096
   7 H   -2.348  10.159  -3.090
                                 91 S  
                                         1.874E+01 1.968E-02 0.000E+00 0.000E+00
                                         2.826E+00 1.380E-01 0.000E+00 0.000E+00
                                         6.401E-01 4.783E-01 0.000E+00 0.000E+00
                                 92 S  
                                         1.756E-01 1.000E+00 0.000E+00 0.000E+00
   8 H    2.429 -10.178   3.074
   9 H   -2.347 -10.181   3.073
  10 H    2.429  10.159  -3.092
  11 H   -9.965   3.015  -3.091
  12 H   10.030  -3.000   3.084
  13 H    7.614  -7.109   3.093
  14 H   -7.555   7.127  -3.103
  15 H   -9.975  -3.026   3.104
  16 H    9.992   3.002  -3.080
  17 H    7.600   7.114  -3.082
  18 H   -7.572  -7.141   3.110
  19 C   -2.612  14.206  -3.115
                                115 S  
                                         3.624E+03 1.634E-03 0.000E+00 0.000E+00
                                         5.440E+02 1.252E-02 0.000E+00 0.000E+00
                                         1.237E+02 6.211E-02 0.000E+00 0.000E+00
                                         3.476E+01 2.182E-01 0.000E+00 0.000E+00
                                         1.093E+01 4.980E-01 0.000E+00 0.000E+00
                                116 S  
                                         3.574E+00 1.000E+00 0.000E+00 0.000E+00
                                117 S  
                                         7.742E-01 1.000E+00 0.000E+00 0.000E+00
                                118 S  
                                         2.330E-01 1.000E+00 0.000E+00 0.000E+00
                         119-   121 P  
                                         9.443E+00 0.000E+00 3.790E-02 0.000E+00
                                         2.002E+00 0.000E+00 2.082E-01 0.000E+00
                                         5.463E-01 0.000E+00 5.047E-01 0.000E+00
                         122-   124 P  
                                         1.820E-01 0.000E+00 1.000E+00 0.000E+00
                         125-   129 D  
                                         8.880E-01 0.000E+00 0.000E+00 1.000E+00
  20 C   -1.272  11.919  -3.104
  21 C    1.357 -11.939   3.092
  22 C   -1.271 -11.940   3.094
  23 C    1.357  11.921  -3.108
  24 C    2.696  14.207   3.114
  25 C  -13.596   4.813  -3.106
  26 C  -10.946   4.828  -3.104
  27 C   11.007  -4.817   3.099
  28 C    9.678  -7.088   3.106
  29 C   -9.617   7.098  -3.113
  30 C  -10.912   9.410   3.113
  31 C  -13.606  -4.821  -3.118
  32 C  -10.957  -4.840   3.115
  33 C   10.988   4.809  -3.093
  34 C    9.663   7.083  -3.097
  35 C   -9.634  -7.113  -3.116
  36 C  -10.930  -9.426  -3.108
  37 O   13.820  -0.011   3.116
                                385 S  
                                         6.773E+03 1.727E-03 0.000E+00 0.000E+00
                                         1.017E+03 1.325E-02 0.000E+00 0.000E+00
                                         2.313E+02 6.603E-02 0.000E+00 0.000E+00
                                         6.501E+01 2.353E-01 0.000E+00 0.000E+00
                                         2.050E+01 5.498E-01 0.000E+00 0.000E+00
                                386 S  
                                         6.716E+00 1.000E+00 0.000E+00 0.000E+00
                                387 S  
                                         1.147E+00 1.000E+00 0.000E+00 0.000E+00
                                388 S  
                                         3.342E-01 1.000E+00 0.000E+00 0.000E+00
                         389-   391 P  
                                         1.769E+01 0.000E+00 4.359E-02 0.000E+00
                                         3.854E+00 0.000E+00 2.318E-01 0.000E+00
                                         1.047E+00 0.000E+00 5.146E-01 0.000E+00
                         392-   394 P  
                                         2.759E-01 0.000E+00 1.000E+00 0.000E+00
                         395-   399 D  
                                         8.000E-01 0.000E+00 0.000E+00 1.000E+00
  38 O   -6.838  11.951  -3.102
  39 O   -6.848 -11.961   3.106
  40 O    6.919 -11.957  -3.101
  41 O    6.913  11.954  -3.054
  42 O  -13.748  -0.008  -3.085

 *******************************************************************************
 FINISHED BASIS SET HANDLING 
 *******************************************************************************

 INFORMATION **** SET_MPP **** PCRYSTAL CALCULATION
 INFORMATION **** READM2 **** NEW DEFAULT: FOCK/KS MATRIX MIXING SET TO 30 %
 INFORMATION **** READM2 **** NEW DEFAULT: FULL DIRECT SCF MODE
 INFORMATION **** READM2 **** NEW DEFAULT: COULOMB BIPOLAR BUFFER SET TO 32 Mb
 INFORMATION **** READM2 **** NEW DEFAULT: EXCHANGE BIPOLAR BUFFER SET TO 32 Mb

 *******************************************************************************
 NEW DEFAULT: DFT INTEGRATION GRID INCREASED TO XLGRID
 NEW DEFAULT: DIIS ACCELERATOR ACTIVE
 USE KEYWORD NODIIS TO TURN IT OFF
 *******************************************************************************

 WARNING **** RDDFTP **** HSEsol-HJS ACTIVE
 RANGE SEPARATION - OMEGA:   0.110000000000000     
 WARNING **** RDDFTP **** HSEsol-3c has to be combined with sol-def2-mSVP basis set
 *******************************************************************************
 N. OF ATOMS PER CELL        42  COULOMB OVERLAP TOL         (T1) 10**   -6
 NUMBER OF SHELLS           234  COULOMB PENETRATION TOL     (T2) 10**   -6
 NUMBER OF AO               474  EXCHANGE OVERLAP TOL        (T3) 10**   -6
 N. OF ELECTRONS PER CELL   198  EXCHANGE PSEUDO OVP (F(G))  (T4) 10**   -6
 CORE ELECTRONS PER CELL     60  EXCHANGE PSEUDO OVP (P(G))  (T5) 10**  -12
 N. OF SYMMETRY OPERATORS     1  POLE ORDER IN MONO ZONE                  4
 *******************************************************************************
 TYPE OF CALCULATION :  RESTRICTED CLOSED SHELL
 KOHN-SHAM HAMILTONIAN

 (EXCHANGE)[CORRELATION] FUNCTIONAL:(HSEsol GGA)[PBEsol]

 RANGE-SEPARATED HYBRID FUNCTIONAL 
 OMEGA (SHORT-RANGE)[LONG-RANGE]:(    0.1100)[    0.0000]

 HYBRID EXCHANGE - PERCENTAGE OF FOCK EXCHANGE    25.0000

 CAPPA:IS1  2;IS2  2;IS3  8; K PTS MONK NET  20; SYMMOPS:K SPACE   2;G SPACE   1

 *******************************************************************************
 MAX NUMBER OF SCF CYCLES      50  CONVERGENCE ON DELTAP        10**-16
 WEIGHT OF F(I) IN F(I+1)      30% CONVERGENCE ON ENERGY        10**- 6
 SHRINK. FACT.(MONKH.)    2  2  8  NUMBER OF K POINTS IN THE IBZ     20
 SHRINKING FACTOR(GILAT NET)    8  NUMBER OF K POINTS(GILAT NET)   1028
 *******************************************************************************
 *** K POINTS COORDINATES (OBLIQUE COORDINATES IN UNITS OF IS =  2)
   1-R(  0  0  0)   2-R(  1  0  0)   3-R(  0  1  0)   4-R(  1  1  0)
   5-C(  0  0  1)   6-C(  1  0  1)   7-C(  0  1  1)   8-C(  1  1  1)
   9-C(  0  0  2)  10-C(  1  0  2)  11-C(  0  1  2)  12-C(  1  1  2)
  13-C(  0  0  3)  14-C(  1  0  3)  15-C(  0  1  3)  16-C(  1  1  3)
  17-R(  0  0  4)  18-R(  1  0  4)  19-R(  0  1  4)  20-R(  1  1  4)

 DIRECT LATTICE VECTORS COMPON. (A.U.)     RECIP. LATTICE VECTORS COMPON. (A.U.) 
        X            Y            Z              X            Y            Z
   24.5689761  -14.2152832    0.0000000      0.2557366    0.0000000    0.0000049
    0.0000000   28.4297713    0.0000000      0.1278719    0.2210072    0.0000152
   -0.0001183   -0.0003597    6.2360962      0.0000000    0.0000000    1.0075511

 DISK SPACE FOR EIGENVECTORS (FTN 10)     7189632 REALS

 SYMMETRY ADAPTION OF THE BLOCH FUNCTIONS DISABLED
 TTTTTTTTTTTTTTTTTTTTTTTTTTTTTT gordsh1     TELAPSE        0.04 TCPU        0.04

 MATRIX SIZE: P(G)  414552, F(G)   84333, P(G) IRR  209787, F(G) IRR   85173
 MAX G-VECTOR INDEX FOR 1- AND 2-ELECTRON INTEGRALS 123

 TTTTTTTTTTTTTTTTTTTTTTTTTTTTTT INPUT       TELAPSE        0.29 TCPU        0.29

 NEIGHBORS OF THE NON-EQUIVALENT ATOMS

 N = NUMBER OF NEIGHBORS AT DISTANCE R
    ATOM  N     R/ANG      R/AU   NEIGHBORS (ATOM LABELS AND CELL INDICES)
   1 B    1     1.3787     2.6054   38 O    0 0 0
   1 B    1     1.3795     2.6068   37 O   -1 0-1
   1 B    1     1.5517     2.9323   30 C    0 0-1
   1 B    1     2.3868     4.5104    2 B    0 0 0
   1 B    1     2.3912     4.5187    3 B    0 1-1
   1 B    1     2.5629     4.8432   27 C   -1 0-1

   2 B    1     1.3792     2.6064   38 O    0 0 0
   2 B    1     1.3798     2.6075   39 O    0 1-1
   2 B    1     1.5510     2.9309   19 C    0 0 0
   2 B    1     2.3868     4.5104    1 B    0 0 0
   2 B    1     2.3894     4.5154    3 B    0 1-1
   2 B    1     2.5618     4.8411   22 C    0 1-1

   3 B    1     1.3790     2.6060   37 O   -1-1 0
   3 B    1     1.3795     2.6069   39 O    0 0 0
   3 B    1     1.5529     2.9346   36 C    0 0 1
   3 B    1     2.3894     4.5154    2 B    0-1 1
   3 B    1     2.3912     4.5187    1 B    0-1 1
   3 B    1     2.5679     4.8526   35 C    0 0 1

   4 B    1     1.3778     2.6037   41 O    0 0 0
   4 B    1     1.3785     2.6051   40 O    0 1 0
   4 B    1     1.5479     2.9251   24 C    0 0-1
   4 B    1     2.3857     4.5084    5 B    1 1 0
   4 B    1     2.3859     4.5087    6 B    1 1 0
   4 B    1     2.5584     4.8347   21 C    0 1-1

   5 B    1     1.3778     2.6037   41 O   -1-1 0
   5 B    1     1.3813     2.6104   42 O    0 0 0
   5 B    1     1.5523     2.9334   31 C    0 0 0
   5 B    1     2.3857     4.5084    4 B   -1-1 0
   5 B    1     2.3952     4.5262    6 B    0 0 0
   5 B    1     2.5590     4.8358   32 C    0 0-1

   6 B    1     1.3783     2.6045   40 O   -1 0 0
   6 B    1     1.3812     2.6101   42 O    0 0 0
   6 B    1     1.5546     2.9377   25 C    0 0 0
   6 B    1     2.3859     4.5087    4 B   -1-1 0
   6 B    1     2.3952     4.5262    5 B    0 0 0
   6 B    1     2.5605     4.8386   26 C    0 0 0

   7 H    1     1.0917     2.0629   20 C    0 0 0
   7 H    1     2.1461     4.0556   19 C    0 0 0
   7 H    1     2.1712     4.1029   23 C    0 0 0
   7 H    1     2.5280     4.7772   10 H    0 0 0
   7 H    1     2.5583     4.8346   38 O    0 0 0
   7 H    1     2.7310     5.1608    2 B    0 0 0

   8 H    1     1.0909     2.0615   21 C    0 0 0
   8 H    1     2.1454     4.0542   24 C    0-1 0
   8 H    1     2.1688     4.0985   22 C    0 0 0
   8 H    1     2.5272     4.7758    9 H    0 0 0
   8 H    1     2.5562     4.8304   40 O    0 0 1
   8 H    1     2.7242     5.1481    4 B    0-1 1

   9 H    1     1.0908     2.0614   22 C    0 0 0
   9 H    1     2.1442     4.0520   19 C    0-1 1
   9 H    1     2.1694     4.0995   21 C    0 0 0
   9 H    1     2.5272     4.7758    8 H    0 0 0
   9 H    1     2.5616     4.8406   39 O    0 0 0
   9 H    1     2.7248     5.1492    2 B    0-1 1

  10 H    1     1.0912     2.0621   23 C    0 0 0
  10 H    1     2.1469     4.0570   24 C    0 0-1
  10 H    1     2.1689     4.0986   20 C    0 0 0
  10 H    1     2.5280     4.7772    7 H    0 0 0
  10 H    1     2.5562     4.8305   41 O    0 0 0
  10 H    1     2.7309     5.1607    4 B    0 0 0

  11 H    1     1.0911     2.0619   26 C    0 0 0
  11 H    1     2.1443     4.0521   25 C    0 0 0
  11 H    1     2.1684     4.0978   29 C    0 0 0
  11 H    1     2.5222     4.7664   14 H    0 0 0
  11 H    1     2.5622     4.8419   42 O    0 0 0
  11 H    1     2.7179     5.1361    6 B    0 0 0

  12 H    1     1.0917     2.0630   27 C    0 0 0
  12 H    1     2.1441     4.0518   30 C    1 0 0
  12 H    1     2.1716     4.1037   28 C    0 0 0
  12 H    1     2.5226     4.7669   13 H    0 0 0
  12 H    1     2.5541     4.8265   37 O    0 0 0
  12 H    1     2.7237     5.1470    1 B    1 0 1

  13 H    1     1.0919     2.0633   28 C    0 0 0
  13 H    1     2.1522     4.0671   25 C    1 0 1
  13 H    1     2.1668     4.0946   27 C    0 0 0
  13 H    1     2.5226     4.7669   12 H    0 0 0
  13 H    1     2.5923     4.8987   40 O    0 0 1
  13 H    1     2.7582     5.2123    6 B    1 0 1

  14 H    1     1.0915     2.0627   29 C    0 0 0
  14 H    1     2.1483     4.0597   30 C    0 0-1
  14 H    1     2.1679     4.0968   26 C    0 0 0
  14 H    1     2.5222     4.7664   11 H    0 0 0
  14 H    1     2.5809     4.8771   38 O    0 0 0
  14 H    1     2.7404     5.1785    1 B    0 0 0

  15 H    1     1.0916     2.0628   32 C    0 0 0
  15 H    1     2.1436     4.0508   31 C    0 0 1
  15 H    1     2.1707     4.1021   35 C    0 0 1
  15 H    1     2.5217     4.7654   18 H    0 0 0
  15 H    1     2.5567     4.8315   42 O    0 0 1
  15 H    1     2.7165     5.1334    5 B    0 0 1

  16 H    1     1.0914     2.0624   33 C    0 0 0
  16 H    1     2.1487     4.0605   36 C    1 1 0
  16 H    1     2.1663     4.0937   34 C    0 0 0
  16 H    1     2.5170     4.7564   17 H    0 0 0
  16 H    1     2.5779     4.8716   37 O    0 0-1
  16 H    1     2.7395     5.1769    3 B    1 1-1

  17 H    1     1.0921     2.0638   34 C    0 0 0
  17 H    1     2.1502     4.0633   31 C    1 1 0
  17 H    1     2.1683     4.0976   33 C    0 0 0
  17 H    1     2.5170     4.7564   16 H    0 0 0
  17 H    1     2.5870     4.8888   41 O    0 0 0
  17 H    1     2.7510     5.1986    5 B    1 1 0

  18 H    1     1.0913     2.0622   35 C    0 0 1
  18 H    1     2.1495     4.0619   36 C    0 0 1
  18 H    1     2.1656     4.0923   32 C    0 0 0
  18 H    1     2.5217     4.7654   15 H    0 0 0
  18 H    1     2.5789     4.8734   39 O    0 0 0
  18 H    1     2.7392     5.1763    3 B    0 0 0

  19 C    1     1.4017     2.6488   22 C    0 1-1
  19 C    1     1.4025     2.6504   20 C    0 0 0
  19 C    1     1.5510     2.9309    2 B    0 0 0
  19 C    1     2.1442     4.0520    9 H    0 1-1
  19 C    1     2.1461     4.0556    7 H    0 0 0
  19 C    1     2.4236     4.5800   21 C    0 1-1

  20 C    1     1.0917     2.0629    7 H    0 0 0
  20 C    1     1.3915     2.6296   23 C    0 0 0
  20 C    1     1.4025     2.6504   19 C    0 0 0
  20 C    1     2.1689     4.0986   10 H    0 0 0
  20 C    1     2.4191     4.5714   22 C    0 1-1
  20 C    1     2.4241     4.5809   24 C    0 0-1

  21 C    1     1.0909     2.0615    8 H    0 0 0
  21 C    1     1.3909     2.6284   22 C    0 0 0
  21 C    1     1.4014     2.6483   24 C    0-1 0
  21 C    1     2.1694     4.0995    9 H    0 0 0
  21 C    1     2.4189     4.5710   23 C    0-1 1
  21 C    1     2.4236     4.5800   19 C    0-1 1

  22 C    1     1.0908     2.0614    9 H    0 0 0
  22 C    1     1.3909     2.6284   21 C    0 0 0
  22 C    1     1.4017     2.6488   19 C    0-1 1
  22 C    1     2.1688     4.0985    8 H    0 0 0
  22 C    1     2.4191     4.5714   20 C    0-1 1
  22 C    1     2.4226     4.5780   24 C    0-1 0

  23 C    1     1.0912     2.0621   10 H    0 0 0
  23 C    1     1.3915     2.6296   20 C    0 0 0
  23 C    1     1.4021     2.6496   24 C    0 0-1
  23 C    1     2.1712     4.1029    7 H    0 0 0
  23 C    1     2.4189     4.5710   21 C    0 1-1
  23 C    1     2.4237     4.5802   19 C    0 0 0

  24 C    1     1.4014     2.6483   21 C    0 1 0
  24 C    1     1.4021     2.6496   23 C    0 0 1
  24 C    1     1.5479     2.9251    4 B    0 0 1
  24 C    1     2.1454     4.0542    8 H    0 1 0
  24 C    1     2.1469     4.0570   10 H    0 0 1
  24 C    1     2.4226     4.5780   22 C    0 1 0

  25 C    1     1.4025     2.6504   26 C    0 0 0
  25 C    1     1.4037     2.6526   28 C   -1 0-1
  25 C    1     1.5546     2.9377    6 B    0 0 0
  25 C    1     2.1443     4.0521   11 H    0 0 0
  25 C    1     2.1522     4.0671   13 H   -1 0-1
  25 C    1     2.4271     4.5865   27 C   -1 0-1

  26 C    1     1.0911     2.0619   11 H    0 0 0
  26 C    1     1.3916     2.6298   29 C    0 0 0
  26 C    1     1.4025     2.6504   25 C    0 0 0
  26 C    1     2.1679     4.0968   14 H    0 0 0
  26 C    1     2.4165     4.5665   28 C   -1 0-1
  26 C    1     2.4246     4.5819   30 C    0 0-1

  27 C    1     1.0917     2.0630   12 H    0 0 0
  27 C    1     1.3928     2.6320   28 C    0 0 0
  27 C    1     1.4024     2.6501   30 C    1 0 0
  27 C    1     2.1668     4.0946   13 H    0 0 0
  27 C    1     2.4166     4.5668   29 C    1 0 1
  27 C    1     2.4271     4.5865   25 C    1 0 1

  28 C    1     1.0919     2.0633   13 H    0 0 0
  28 C    1     1.3928     2.6320   27 C    0 0 0
  28 C    1     1.4037     2.6526   25 C    1 0 1
  28 C    1     2.1716     4.1037   12 H    0 0 0
  28 C    1     2.4165     4.5665   26 C    1 0 1
  28 C    1     2.4277     4.5877   30 C    1 0 0

  29 C    1     1.0915     2.0627   14 H    0 0 0
  29 C    1     1.3916     2.6298   26 C    0 0 0
  29 C    1     1.4023     2.6499   30 C    0 0-1
  29 C    1     2.1684     4.0978   11 H    0 0 0
  29 C    1     2.4166     4.5668   27 C   -1 0-1
  29 C    1     2.4281     4.5884   25 C    0 0 0

  30 C    1     1.4023     2.6499   29 C    0 0 1
  30 C    1     1.4024     2.6501   27 C   -1 0 0
  30 C    1     1.5517     2.9323    1 B    0 0 1
  30 C    1     2.1441     4.0518   12 H   -1 0 0
  30 C    1     2.1483     4.0597   14 H    0 0 1
  30 C    1     2.4246     4.5819   26 C    0 0 1

  31 C    1     1.4022     2.6498   32 C    0 0-1
  31 C    1     1.4030     2.6512   34 C   -1-1 0
  31 C    1     1.5523     2.9334    5 B    0 0 0
  31 C    1     2.1436     4.0508   15 H    0 0-1
  31 C    1     2.1502     4.0633   17 H   -1-1 0
  31 C    1     2.4264     4.5853   33 C   -1-1 0

  32 C    1     1.0916     2.0628   15 H    0 0 0
  32 C    1     1.3918     2.6301   35 C    0 0 1
  32 C    1     1.4022     2.6498   31 C    0 0 1
  32 C    1     2.1656     4.0923   18 H    0 0 0
  32 C    1     2.4163     4.5661   34 C   -1-1 1
  32 C    1     2.4270     4.5863   36 C    0 0 1

  33 C    1     1.0914     2.0624   16 H    0 0 0
  33 C    1     1.3927     2.6318   34 C    0 0 0
  33 C    1     1.4029     2.6510   36 C    1 1 0
  33 C    1     2.1683     4.0976   17 H    0 0 0
  33 C    1     2.4155     4.5646   35 C    1 1 0
  33 C    1     2.4264     4.5853   31 C    1 1 0

  34 C    1     1.0921     2.0638   17 H    0 0 0
  34 C    1     1.3927     2.6318   33 C    0 0 0
  34 C    1     1.4030     2.6512   31 C    1 1 0
  34 C    1     2.1663     4.0937   16 H    0 0 0
  34 C    1     2.4163     4.5661   32 C    1 1-1
  34 C    1     2.4289     4.5899   36 C    1 1 0

  35 C    1     1.0913     2.0622   18 H    0 0-1
  35 C    1     1.3918     2.6301   32 C    0 0-1
  35 C    1     1.4029     2.6511   36 C    0 0 0
  35 C    1     2.1707     4.1021   15 H    0 0-1
  35 C    1     2.4155     4.5646   33 C   -1-1 0
  35 C    1     2.4269     4.5861   31 C    0 0 0

  36 C    1     1.4029     2.6510   33 C   -1-1 0
  36 C    1     1.4029     2.6511   35 C    0 0 0
  36 C    1     1.5529     2.9346    3 B    0 0-1
  36 C    1     2.1487     4.0605   16 H   -1-1 0
  36 C    1     2.1495     4.0619   18 H    0 0-1
  36 C    1     2.4270     4.5863   32 C    0 0-1

  37 O    1     1.3790     2.6060    3 B    1 1 0
  37 O    1     1.3795     2.6068    1 B    1 0 1
  37 O    1     2.3868     4.5105   39 O    1 1 0
  37 O    1     2.3885     4.5136   38 O    1 0 1
  37 O    1     2.5389     4.7979   30 C    1 0 0
  37 O    1     2.5412     4.8021   36 C    1 1 1

  38 O    1     1.3787     2.6054    1 B    0 0 0
  38 O    1     1.3792     2.6064    2 B    0 0 0
  38 O    1     2.3885     4.5136   37 O   -1 0-1
  38 O    1     2.3912     4.5187   39 O    0 1-1
  38 O    1     2.5351     4.7906   19 C    0 0 0
  38 O    1     2.5405     4.8008   30 C    0 0-1

  39 O    1     1.3795     2.6069    3 B    0 0 0
  39 O    1     1.3798     2.6075    2 B    0-1 1
  39 O    1     2.3868     4.5105   37 O   -1-1 0
  39 O    1     2.3912     4.5187   38 O    0-1 1
  39 O    1     2.5416     4.8030   19 C    0-1 1
  39 O    1     2.5427     4.8050   36 C    0 0 1

  40 O    1     1.3783     2.6045    6 B    1 0 0
  40 O    1     1.3785     2.6051    4 B    0-1 0
  40 O    1     2.3876     4.5119   42 O    1 0 0
  40 O    1     2.3913     4.5189   41 O    0-1 0
  40 O    1     2.5354     4.7912   25 C    1 0 0
  40 O    1     2.5360     4.7923   24 C    0-1-1

  41 O    1     1.3778     2.6037    4 B    0 0 0
  41 O    1     1.3778     2.6037    5 B    1 1 0
  41 O    1     2.3870     4.5107   42 O    1 1 0
  41 O    1     2.3913     4.5189   40 O    0 1 0
  41 O    1     2.5304     4.7818   24 C    0 0-1
  41 O    1     2.5353     4.7911   31 C    1 1 0

  42 O    1     1.3812     2.6101    6 B    0 0 0
  42 O    1     1.3813     2.6104    5 B    0 0 0
  42 O    1     2.3870     4.5107   41 O   -1-1 0
  42 O    1     2.3876     4.5119   40 O   -1 0 0
  42 O    1     2.5481     4.8152   31 C    0 0 0
  42 O    1     2.5522     4.8230   25 C    0 0 0


 SYMMETRY ALLOWED INTERNAL DEGREE(S) OF FREEDOM: 123
 TTTTTTTTTTTTTTTTTTTTTTTTTTTTTT SYMM        TELAPSE        0.29 TCPU        0.29
 TTTTTTTTTTTTTTTTTTTTTTTTTTTTTT INT_SCREEN  TELAPSE        0.32 TCPU        0.32

 DFT PARAMETERS

     ATOM       ELECTRONS   NET CHARGE   R(ANGSTROM)
   1   5  B       5.0000      0.0000     0.89000000
   7   1  H       1.0000      0.0000     1.11000000
  19   6  C       6.0000      0.0000     0.77000000
  37   8  O       8.0000      0.0000     0.74000000

 SIZE OF GRID=    1235167
 TTTTTTTTTTTTTTTTTTTTTTTTTTTTTT MAKE_GRID2  TELAPSE       12.91 TCPU       12.89
 BECKE WEIGHT FUNCTION
 RADSAFE =     2.00
 TOLERANCES - DENSITY:10**- 6; POTENTIAL:10**- 9; GRID WGT:10**-14

 RADIAL INTEGRATION  - INTERVALS (POINTS,UPPER LIMIT):            1( 75,  4.0*R)

 ANGULAR INTEGRATION - INTERVALS (ACCURACY LEVEL [N. POINTS] UPPER LIMIT):
  1(  4[  86]   0.2)  2(  8[ 194]   0.5)  3( 12[ 350]   0.9)  4( 16[ 974]   3.5)
  5( 12[ 350]9999.0)
 TTTTTTTTTTTTTTTTTTTTTTTTTTTTTT INT_CALC    TELAPSE       13.03 TCPU       13.01
 EEEEEEEEEE INT_CALC TERMINATION  DATE 02 12 2025 TIME 07:57:36.3

 *******************************************************************************
 COF-5_z33_inc_L000                                                              
 CRYSTAL - SCF - TYPE OF CALCULATION :  RESTRICTED CLOSED SHELL
 *******************************************************************************

 CAPPA:IS1  2;IS2  2;IS3  8; K PTS MONK NET  20; SYMMOPS:K SPACE   2;G SPACE   1

 TTTTTTTTTTTTTTTTTTTTTTTTTTTTTT SDIK        TELAPSE       14.08 TCPU       20.70

 AAAAAAAAAAAAAAAAAAAAAAAAAAAAAAAAAAAAAAAAAAAAAAAAAAAAAAAAAAAAAAAAAAAAAAAAAAAAAAA
         ATOMIC WAVEFUNCTION(S)


 NUCLEAR CHARGE  5.0  SYMMETRY SPECIES            S    P
 N. ELECTRONS    5.0  NUMBER OF PRIMITIVE GTOS    8    4
                      NUMBER OF CONTRACTED GTOS   4    2
                      NUMBER OF CLOSED SHELLS     2    0
                      OPEN SHELL OCCUPATION       0    1

  ZNUC  SCFIT    TOTAL HF ENERGY   KINETIC ENERGY   VIRIAL THEOREM ACCURACY
   5.0    11    -2.451164084E+01  2.462155050E+01 -1.995536038E+00  1.5E-06

 NUCLEAR CHARGE  1.0  SYMMETRY SPECIES            S
 N. ELECTRONS    1.0  NUMBER OF PRIMITIVE GTOS    4
                      NUMBER OF CONTRACTED GTOS   2
                      NUMBER OF CLOSED SHELLS     0
                      OPEN SHELL OCCUPATION       1

  ZNUC  SCFIT    TOTAL HF ENERGY   KINETIC ENERGY   VIRIAL THEOREM ACCURACY
   1.0     1    -4.977266687E-01  5.190767460E-01 -1.958869132E+00  0.0E+00

 NUCLEAR CHARGE  6.0  SYMMETRY SPECIES            S    P
 N. ELECTRONS    6.0  NUMBER OF PRIMITIVE GTOS    8    4
                      NUMBER OF CONTRACTED GTOS   4    2
                      NUMBER OF CLOSED SHELLS     2    0
                      OPEN SHELL OCCUPATION       0    2

  ZNUC  SCFIT    TOTAL HF ENERGY   KINETIC ENERGY   VIRIAL THEOREM ACCURACY
   6.0     9    -3.766704647E+01  3.775180683E+01 -1.997754800E+00  1.1E-06

 NUCLEAR CHARGE  8.0  SYMMETRY SPECIES            S    P
 N. ELECTRONS    8.0  NUMBER OF PRIMITIVE GTOS    8    4
                      NUMBER OF CONTRACTED GTOS   4    2
                      NUMBER OF CLOSED SHELLS     2    0
                      OPEN SHELL OCCUPATION       0    4

  ZNUC  SCFIT    TOTAL HF ENERGY   KINETIC ENERGY   VIRIAL THEOREM ACCURACY
   8.0    12    -7.477373220E+01  7.477365593E+01 -2.000001020E+00  3.8E-06

 AAAAAAAAAAAAAAAAAAAAAAAAAAAAAAAAAAAAAAAAAAAAAAAAAAAAAAAAAAAAAAAAAAAAAAAAAAAAAAA

 CHARGE NORMALIZATION FACTOR   1.00000000
 TOTAL ATOMIC CHARGES:
   5.0000000   5.0000000   5.0000000   5.0000000   5.0000000   5.0000000
   1.0000000   1.0000000   1.0000000   1.0000000   1.0000000   1.0000000
   1.0000000   1.0000000   1.0000000   1.0000000   1.0000000   1.0000000
   6.0000000   6.0000000   6.0000000   6.0000000   6.0000000   6.0000000
   6.0000000   6.0000000   6.0000000   6.0000000   6.0000000   6.0000000
   6.0000000   6.0000000   6.0000000   6.0000000   6.0000000   6.0000000
   8.0000000   8.0000000   8.0000000   8.0000000   8.0000000   8.0000000
 TTTTTTTTTTTTTTTTTTTTTTTTTTTTTT MOQGAD      TELAPSE       14.20 TCPU       22.56
 TTTTTTTTTTTTTTTTTTTTTTTTTTTTTT SHELLXN     TELAPSE       27.45 TCPU      419.07
 TTTTTTTTTTTTTTTTTTTTTTTTTTTTTT MONMO3      TELAPSE       27.64 TCPU      425.35
 NUMERICALLY INTEGRATED DENSITY    197.9998718042
 TTTTTTTTTTTTTTTTTTTTTTTTTTTTTT NUMDFT      TELAPSE       28.29 TCPU      445.98
 CYC   0 ETOT(AU) -1.296014579615E+03 DETOT -1.30E+03 tst  0.00E+00 PX  1.00E+00
 TTTTTTTTTTTTTTTTTTTTTTTTTTTTTT DIIS        TELAPSE       28.32 TCPU      447.06
 TTTTTTTTTTTTTTTTTTTTTTTTTTTTTT FDIK        TELAPSE       28.81 TCPU      462.67
 INSULATING STATE
 TOP OF VALENCE BANDS -    BAND     99; K    1; EIG -2.8092268E-01 AU
 BOTTOM OF VIRTUAL BANDS - BAND    100; K   17; EIG -1.9191823E-01 AU
 INDIRECT ENERGY BAND GAP:   2.4219 eV
 BOTTOM OF VIRTUAL BANDS - BAND    100; K    1; EIG -1.1580006E-01 AU
 TTTTTTTTTTTTTTTTTTTTTTTTTTTTTT PDIG        TELAPSE       29.09 TCPU      468.80
 CHARGE NORMALIZATION FACTOR   1.00000000
 TOTAL ATOMIC CHARGES:
   4.1053905   4.1046047   4.1057735   4.1071304   4.1050470   4.1046568
   0.7865461   0.7865198   0.7866466   0.7866999   0.7864750   0.7863899
   0.7873755   0.7869315   0.7862570   0.7868535   0.7868631   0.7871025
   6.0624427   6.2745172   6.2745512   6.2755863   6.2742481   6.0649113
   6.0583309   6.2757666   6.2739170   6.2766983   6.2764561   6.0621240
   6.0609510   6.2744941   6.2754976   6.2752163   6.2768469   6.0586805
   8.7096217   8.7088640   8.7093718   8.7085141   8.7082155   8.7109134
 TTTTTTTTTTTTTTTTTTTTTTTTTTTTTT MOQGAD      TELAPSE       29.15 TCPU      468.86
 TTTTTTTTTTTTTTTTTTTTTTTTTTTTTT SHELLXN     TELAPSE       41.98 TCPU      878.33
 TTTTTTTTTTTTTTTTTTTTTTTTTTTTTT MONMO3      TELAPSE       42.18 TCPU      884.58
 NUMERICALLY INTEGRATED DENSITY    197.9998942772
 TTTTTTTTTTTTTTTTTTTTTTTTTTTTTT NUMDFT      TELAPSE       42.83 TCPU      905.60
 CYC   1 ETOT(AU) -1.288783894934E+03 DETOT  7.23E+00 tst  0.00E+00 PX  1.00E+00
 TTTTTTTTTTTTTTTTTTTTTTTTTTTTTT DIIS        TELAPSE       42.88 TCPU      907.08
 DIIS TEST: 0.11342E+01 AT SCF   CYCLE   1 - MIX   30 %
 TTTTTTTTTTTTTTTTTTTTTTTTTTTTTT FDIK        TELAPSE       43.37 TCPU      922.59
 INSULATING STATE
 TOP OF VALENCE BANDS -    BAND     99; K    1; EIG -1.7392002E-01 AU
 BOTTOM OF VIRTUAL BANDS - BAND    100; K   17; EIG -1.1667087E-01 AU
 INDIRECT ENERGY BAND GAP:   1.5578 eV
 BOTTOM OF VIRTUAL BANDS - BAND    100; K    1; EIG -2.8795345E-02 AU
 TTTTTTTTTTTTTTTTTTTTTTTTTTTTTT PDIG        TELAPSE       43.65 TCPU      928.73
 CHARGE NORMALIZATION FACTOR   1.00000000
 TOTAL ATOMIC CHARGES:
   4.6859180   4.6859464   4.6865192   4.6854935   4.6858526   4.6867757
   0.9284083   0.9287998   0.9289059   0.9287664   0.9284175   0.9279312
   0.9290005   0.9292539   0.9280015   0.9284562   0.9285818   0.9288506
   5.8666510   6.1211904   6.1190255   6.1190990   6.1205389   5.8619316
   5.8704834   6.1157102   6.1173636   6.1220600   6.1187960   5.8646499
   5.8671591   6.1157697   6.1185876   6.1205117   6.1183463   5.8690363
   8.3525643   8.3512109   8.3529009   8.3500802   8.3493804   8.3570744
 TTTTTTTTTTTTTTTTTTTTTTTTTTTTTT MOQGAD      TELAPSE       43.71 TCPU      928.79
 TTTTTTTTTTTTTTTTTTTTTTTTTTTTTT SHELLXN     TELAPSE       56.53 TCPU     1338.14
 TTTTTTTTTTTTTTTTTTTTTTTTTTTTTT MONMO3      TELAPSE       56.73 TCPU     1344.39
 NUMERICALLY INTEGRATED DENSITY    197.9998686791
 TTTTTTTTTTTTTTTTTTTTTTTTTTTTTT NUMDFT      TELAPSE       57.39 TCPU     1365.40
 CYC   2 ETOT(AU) -1.288975008700E+03 DETOT -1.91E-01 tst  4.40E-03 PX  1.55E-01
 TTTTTTTTTTTTTTTTTTTTTTTTTTTTTT DIIS        TELAPSE       57.43 TCPU     1366.86
 DIIS TEST: 0.52296E+00 AT SCF   CYCLE   2 - DIIS ACTIVE - HISTORY:     2 CYCLES
 TTTTTTTTTTTTTTTTTTTTTTTTTTTTTT FDIK        TELAPSE       57.92 TCPU     1382.25
 INSULATING STATE
 TOP OF VALENCE BANDS -    BAND     99; K    1; EIG -1.9477830E-01 AU
 BOTTOM OF VIRTUAL BANDS - BAND    100; K   17; EIG -1.1000358E-01 AU
 INDIRECT ENERGY BAND GAP:   2.3068 eV
 BOTTOM OF VIRTUAL BANDS - BAND    100; K    1; EIG -1.9755356E-02 AU
 TTTTTTTTTTTTTTTTTTTTTTTTTTTTTT PDIG        TELAPSE       58.20 TCPU     1388.39
 CHARGE NORMALIZATION FACTOR   1.00000000
 TOTAL ATOMIC CHARGES:
   4.4536748   4.4523732   4.4532930   4.4546522   4.4530310   4.4523796
   0.8958615   0.8955045   0.8957084   0.8959293   0.8950589   0.8948418
   0.8968313   0.8959969   0.8944991   0.8958373   0.8962569   0.8958238
   5.8993583   6.1690344   6.1705259   6.1694647   6.1703563   5.9037067
   5.8980680   6.1683611   6.1694710   6.1717266   6.1726178   5.9019258
   5.9008391   6.1688319   6.1698660   6.1716452   6.1713374   5.8991133
   8.5145834   8.5140917   8.5145003   8.5135086   8.5133137   8.5161997
 TTTTTTTTTTTTTTTTTTTTTTTTTTTTTT MOQGAD      TELAPSE       58.26 TCPU     1388.45
 TTTTTTTTTTTTTTTTTTTTTTTTTTTTTT SHELLXN     TELAPSE       71.08 TCPU     1797.75
 TTTTTTTTTTTTTTTTTTTTTTTTTTTTTT MONMO3      TELAPSE       71.28 TCPU     1804.00
 NUMERICALLY INTEGRATED DENSITY    197.9998736378
 TTTTTTTTTTTTTTTTTTTTTTTTTTTTTT NUMDFT      TELAPSE       71.94 TCPU     1825.00
 CYC   3 ETOT(AU) -1.289085319535E+03 DETOT -1.10E-01 tst  7.23E-04 PX  5.53E-02
 TTTTTTTTTTTTTTTTTTTTTTTTTTTTTT DIIS        TELAPSE       71.99 TCPU     1826.84
 DIIS TEST: 0.10265E-01 AT SCF   CYCLE   3 - DIIS ACTIVE - HISTORY:     3 CYCLES
 TTTTTTTTTTTTTTTTTTTTTTTTTTTTTT FDIK        TELAPSE       72.48 TCPU     1842.30
 INSULATING STATE
 TOP OF VALENCE BANDS -    BAND     99; K    1; EIG -2.0184790E-01 AU
 BOTTOM OF VIRTUAL BANDS - BAND    100; K   17; EIG -1.2156720E-01 AU
 INDIRECT ENERGY BAND GAP:   2.1845 eV
 BOTTOM OF VIRTUAL BANDS - BAND    100; K    1; EIG -3.2663438E-02 AU
 TTTTTTTTTTTTTTTTTTTTTTTTTTTTTT PDIG        TELAPSE       72.76 TCPU     1848.43
 CHARGE NORMALIZATION FACTOR   1.00000000
 TOTAL ATOMIC CHARGES:
   4.4650492   4.4653413   4.4657418   4.4654949   4.4647641   4.4654519
   0.8816336   0.8822404   0.8819941   0.8822101   0.8814139   0.8813822
   0.8826139   0.8827954   0.8812115   0.8819190   0.8823201   0.8823240
   5.9621238   6.1595042   6.1561575   6.1589848   6.1567731   5.9552952
   5.9623798   6.1573153   6.1556048   6.1599306   6.1565352   5.9564624
   5.9589089   6.1560921   6.1573581   6.1570008   6.1581076   5.9605044
   8.4967661   8.4955471   8.4973363   8.4948050   8.4938053   8.5008003
 TTTTTTTTTTTTTTTTTTTTTTTTTTTTTT MOQGAD      TELAPSE       72.81 TCPU     1848.49
 TTTTTTTTTTTTTTTTTTTTTTTTTTTTTT SHELLXN     TELAPSE       85.65 TCPU     2257.90
 TTTTTTTTTTTTTTTTTTTTTTTTTTTTTT MONMO3      TELAPSE       85.84 TCPU     2264.15
 NUMERICALLY INTEGRATED DENSITY    197.9998740318
 TTTTTTTTTTTTTTTTTTTTTTTTTTTTTT NUMDFT      TELAPSE       86.50 TCPU     2285.18
 CYC   4 ETOT(AU) -1.289087285624E+03 DETOT -1.97E-03 tst  5.11E-05 PX  1.36E-02
 TTTTTTTTTTTTTTTTTTTTTTTTTTTTTT DIIS        TELAPSE       86.56 TCPU     2287.00
 DIIS TEST: 0.36817E-02 AT SCF   CYCLE   4 - DIIS ACTIVE - HISTORY:     4 CYCLES
 TTTTTTTTTTTTTTTTTTTTTTTTTTTTTT FDIK        TELAPSE       87.04 TCPU     2302.46
 INSULATING STATE
 TOP OF VALENCE BANDS -    BAND     99; K    1; EIG -2.0195302E-01 AU
 BOTTOM OF VIRTUAL BANDS - BAND    100; K   17; EIG -1.1944940E-01 AU
 INDIRECT ENERGY BAND GAP:   2.2450 eV
 BOTTOM OF VIRTUAL BANDS - BAND    100; K    1; EIG -3.0237083E-02 AU
 TTTTTTTTTTTTTTTTTTTTTTTTTTTTTT PDIG        TELAPSE       87.33 TCPU     2308.60
 CHARGE NORMALIZATION FACTOR   1.00000000
 TOTAL ATOMIC CHARGES:
   4.4659253   4.4646538   4.4656639   4.4666781   4.4654243   4.4650676
   0.8837941   0.8834688   0.8837979   0.8837786   0.8832516   0.8828352
   0.8846937   0.8839756   0.8826806   0.8837628   0.8840219   0.8839021
   5.9248449   6.1685153   6.1698881   6.1678860   6.1706355   5.9303089
   5.9253200   6.1667778   6.1690197   6.1707082   6.1710820   5.9287732
   5.9283630   6.1672169   6.1693687   6.1713872   6.1689603   5.9260497
   8.5018114   8.5008206   8.5011438   8.5000877   8.5001772   8.5034779
 TTTTTTTTTTTTTTTTTTTTTTTTTTTTTT MOQGAD      TELAPSE       87.38 TCPU     2308.66
 TTTTTTTTTTTTTTTTTTTTTTTTTTTTTT SHELLXN     TELAPSE      100.22 TCPU     2718.11
 TTTTTTTTTTTTTTTTTTTTTTTTTTTTTT MONMO3      TELAPSE      100.41 TCPU     2724.36
 NUMERICALLY INTEGRATED DENSITY    197.9998742637
 TTTTTTTTTTTTTTTTTTTTTTTTTTTTTT NUMDFT      TELAPSE      101.07 TCPU     2745.37
 CYC   5 ETOT(AU) -1.289088090439E+03 DETOT -8.05E-04 tst  1.37E-05 PX  8.18E-03
 TTTTTTTTTTTTTTTTTTTTTTTTTTTTTT DIIS        TELAPSE      101.13 TCPU     2747.42
 DIIS TEST: 0.19364E-03 AT SCF   CYCLE   5 - DIIS ACTIVE - HISTORY:     5 CYCLES
 TTTTTTTTTTTTTTTTTTTTTTTTTTTTTT FDIK        TELAPSE      101.62 TCPU     2762.98
 INSULATING STATE
 TOP OF VALENCE BANDS -    BAND     99; K    1; EIG -2.0126815E-01 AU
 BOTTOM OF VIRTUAL BANDS - BAND    100; K   17; EIG -1.1901681E-01 AU
 INDIRECT ENERGY BAND GAP:   2.2382 eV
 BOTTOM OF VIRTUAL BANDS - BAND    100; K    1; EIG -2.9769662E-02 AU
 TTTTTTTTTTTTTTTTTTTTTTTTTTTTTT PDIG        TELAPSE      101.90 TCPU     2769.11
 CHARGE NORMALIZATION FACTOR   1.00000000
 TOTAL ATOMIC CHARGES:
   4.4647703   4.4649494   4.4653579   4.4650564   4.4642516   4.4647276
   0.8849627   0.8853792   0.8851345   0.8855193   0.8845701   0.8846070
   0.8859319   0.8858872   0.8842979   0.8852510   0.8856781   0.8854007
   5.9352397   6.1673773   6.1647784   6.1683616   6.1639403   5.9274512
   5.9332643   6.1661156   6.1635785   6.1683722   6.1663122   5.9289819
   5.9299253   6.1653274   6.1650808   6.1646819   6.1685804   5.9326402
   8.5011397   8.5006404   8.5025453   8.5000332   8.4986777   8.5052217
 TTTTTTTTTTTTTTTTTTTTTTTTTTTTTT MOQGAD      TELAPSE      101.96 TCPU     2769.17
 TTTTTTTTTTTTTTTTTTTTTTTTTTTTTT SHELLXN     TELAPSE      114.79 TCPU     3178.66
 TTTTTTTTTTTTTTTTTTTTTTTTTTTTTT MONMO3      TELAPSE      114.99 TCPU     3184.92
 NUMERICALLY INTEGRATED DENSITY    197.9998741522
 TTTTTTTTTTTTTTTTTTTTTTTTTTTTTT NUMDFT      TELAPSE      115.64 TCPU     3205.93
 CYC   6 ETOT(AU) -1.289088104674E+03 DETOT -1.42E-05 tst  1.74E-06 PX  2.22E-03
 TTTTTTTTTTTTTTTTTTTTTTTTTTTTTT DIIS        TELAPSE      115.71 TCPU     3208.14
 DIIS TEST: 0.11982E-03 AT SCF   CYCLE   6 - DIIS ACTIVE - HISTORY:     6 CYCLES
 TTTTTTTTTTTTTTTTTTTTTTTTTTTTTT FDIK        TELAPSE      116.20 TCPU     3223.70
 INSULATING STATE
 TOP OF VALENCE BANDS -    BAND     99; K    1; EIG -2.0135875E-01 AU
 BOTTOM OF VIRTUAL BANDS - BAND    100; K   17; EIG -1.1908798E-01 AU
 INDIRECT ENERGY BAND GAP:   2.2387 eV
 BOTTOM OF VIRTUAL BANDS - BAND    100; K    1; EIG -2.9846757E-02 AU
 TTTTTTTTTTTTTTTTTTTTTTTTTTTTTT PDIG        TELAPSE      116.48 TCPU     3229.84
 CHARGE NORMALIZATION FACTOR   1.00000000
 TOTAL ATOMIC CHARGES:
   4.4651711   4.4644407   4.4652242   4.4659609   4.4648359   4.4647865
   0.8850033   0.8850444   0.8851408   0.8852199   0.8845630   0.8843151
   0.8859397   0.8855744   0.8841467   0.8850988   0.8854230   0.8853446
   5.9309116   6.1663141   6.1658969   6.1655335   6.1668307   5.9324444
   5.9315887   6.1644833   6.1652024   6.1681403   6.1668033   5.9312298
   5.9322843   6.1641969   6.1661989   6.1675588   6.1659700   5.9308768
   8.5015251   8.5004448   8.5012183   8.4997299   8.4994759   8.5039085
 TTTTTTTTTTTTTTTTTTTTTTTTTTTTTT MOQGAD      TELAPSE      116.54 TCPU     3229.90
 TTTTTTTTTTTTTTTTTTTTTTTTTTTTTT SHELLXN     TELAPSE      129.40 TCPU     3639.75
 TTTTTTTTTTTTTTTTTTTTTTTTTTTTTT MONMO3      TELAPSE      129.59 TCPU     3646.01
 NUMERICALLY INTEGRATED DENSITY    197.9998741433
 TTTTTTTTTTTTTTTTTTTTTTTTTTTTTT NUMDFT      TELAPSE      130.25 TCPU     3667.01
 CYC   7 ETOT(AU) -1.289088132663E+03 DETOT -2.80E-05 tst  9.27E-07 PX  1.16E-03
 TTTTTTTTTTTTTTTTTTTTTTTTTTTTTT DIIS        TELAPSE      130.32 TCPU     3669.39
 DIIS TEST: 0.81476E-05 AT SCF   CYCLE   7 - DIIS ACTIVE - HISTORY:     7 CYCLES
 TTTTTTTTTTTTTTTTTTTTTTTTTTTTTT FDIK        TELAPSE      130.82 TCPU     3685.12
 INSULATING STATE
 TOP OF VALENCE BANDS -    BAND     99; K    1; EIG -2.0145031E-01 AU
 BOTTOM OF VIRTUAL BANDS - BAND    100; K   17; EIG -1.1915777E-01 AU
 INDIRECT ENERGY BAND GAP:   2.2393 eV
 BOTTOM OF VIRTUAL BANDS - BAND    100; K    1; EIG -2.9915498E-02 AU
 TTTTTTTTTTTTTTTTTTTTTTTTTTTTTT PDIG        TELAPSE      131.10 TCPU     3691.26
 CHARGE NORMALIZATION FACTOR   1.00000000
 TOTAL ATOMIC CHARGES:
   4.4654866   4.4647858   4.4655603   4.4660093   4.4649166   4.4648918
   0.8848684   0.8848393   0.8849395   0.8850817   0.8843881   0.8841449
   0.8858092   0.8853528   0.8839329   0.8849637   0.8853014   0.8851128
   5.9314320   6.1665191   6.1662410   6.1665152   6.1663720   5.9313467
   5.9307616   6.1648481   6.1653551   6.1680347   6.1675658   5.9314036
   5.9312675   6.1648156   6.1661192   6.1670129   6.1671658   5.9312388
   8.5012152   8.5003581   8.5013270   8.4996542   8.4991775   8.5038687
 TTTTTTTTTTTTTTTTTTTTTTTTTTTTTT MOQGAD      TELAPSE      131.15 TCPU     3691.32
 TTTTTTTTTTTTTTTTTTTTTTTTTTTTTT SHELLXN     TELAPSE      143.99 TCPU     4100.63
 TTTTTTTTTTTTTTTTTTTTTTTTTTTTTT MONMO3      TELAPSE      144.19 TCPU     4106.88
 NUMERICALLY INTEGRATED DENSITY    197.9998741392
 TTTTTTTTTTTTTTTTTTTTTTTTTTTTTT NUMDFT      TELAPSE      144.85 TCPU     4127.94
 CYC   8 ETOT(AU) -1.289088134511E+03 DETOT -1.85E-06 tst  4.29E-08 PX  2.79E-04
 TTTTTTTTTTTTTTTTTTTTTTTTTTTTTT DIIS        TELAPSE      144.92 TCPU     4130.39
 DIIS TEST: 0.13059E-05 AT SCF   CYCLE   8 - DIIS ACTIVE - HISTORY:     8 CYCLES
 TTTTTTTTTTTTTTTTTTTTTTTTTTTTTT FDIK        TELAPSE      145.42 TCPU     4146.12
 INSULATING STATE
 TOP OF VALENCE BANDS -    BAND     99; K    1; EIG -2.0144626E-01 AU
 BOTTOM OF VIRTUAL BANDS - BAND    100; K   17; EIG -1.1916710E-01 AU
 INDIRECT ENERGY BAND GAP:   2.2389 eV
 BOTTOM OF VIRTUAL BANDS - BAND    100; K    1; EIG -2.9922050E-02 AU
 TTTTTTTTTTTTTTTTTTTTTTTTTTTTTT PDIG        TELAPSE      145.70 TCPU     4152.26
 CHARGE NORMALIZATION FACTOR   1.00000000
 TOTAL ATOMIC CHARGES:
   4.4653817   4.4647700   4.4655069   4.4660360   4.4649696   4.4649965
   0.8848281   0.8848741   0.8849388   0.8850766   0.8843700   0.8841590
   0.8857635   0.8853946   0.8839513   0.8849426   0.8852788   0.8851327
   5.9313454   6.1666198   6.1661277   6.1664018   6.1664817   5.9313622
   5.9313519   6.1650310   6.1651770   6.1683285   6.1672215   5.9307633
   5.9315165   6.1648085   6.1661264   6.1671954   6.1669337   5.9309380
   8.5012693   8.5003825   8.5013689   8.4996948   8.4992118   8.5039716
 TTTTTTTTTTTTTTTTTTTTTTTTTTTTTT MOQGAD      TELAPSE      145.76 TCPU     4152.31
 TTTTTTTTTTTTTTTTTTTTTTTTTTTTTT SHELLXN     TELAPSE      158.60 TCPU     4561.75
 TTTTTTTTTTTTTTTTTTTTTTTTTTTTTT MONMO3      TELAPSE      158.79 TCPU     4568.02
 NUMERICALLY INTEGRATED DENSITY    197.9998741409
 TTTTTTTTTTTTTTTTTTTTTTTTTTTTTT NUMDFT      TELAPSE      159.46 TCPU     4589.17
 CYC   9 ETOT(AU) -1.289088134776E+03 DETOT -2.65E-07 tst  1.69E-08 PX  1.58E-04
 TTTTTTTTTTTTTTTTTTTTTTTTTTTTTT DIIS        TELAPSE      159.54 TCPU     4591.99
 DIIS TEST: 0.17927E-06 AT SCF   CYCLE   9 - DIIS ACTIVE - HISTORY:     9 CYCLES
 TTTTTTTTTTTTTTTTTTTTTTTTTTTTTT FDIK        TELAPSE      160.04 TCPU     4607.87
 INSULATING STATE
 TOP OF VALENCE BANDS -    BAND     99; K    1; EIG -2.0143829E-01 AU
 BOTTOM OF VIRTUAL BANDS - BAND    100; K   17; EIG -1.1916580E-01 AU
 INDIRECT ENERGY BAND GAP:   2.2387 eV
 BOTTOM OF VIRTUAL BANDS - BAND    100; K    1; EIG -2.9919360E-02 AU
 TTTTTTTTTTTTTTTTTTTTTTTTTTTTTT PDIG        TELAPSE      160.33 TCPU     4614.01
 CHARGE NORMALIZATION FACTOR   1.00000000
 TOTAL ATOMIC CHARGES:
   4.4653835   4.4647563   4.4654984   4.4659958   4.4649203   4.4649365
   0.8848360   0.8848861   0.8849508   0.8850845   0.8843855   0.8841647
   0.8857762   0.8854038   0.8839672   0.8849483   0.8852875   0.8851461
   5.9314296   6.1666490   6.1660448   6.1663525   6.1664808   5.9313335
   5.9312079   6.1649054   6.1652560   6.1682490   6.1672265   5.9309744
   5.9314449   6.1646740   6.1662102   6.1671897   6.1668661   5.9310780
   8.5013406   8.5004162   8.5013749   8.4997148   8.4992642   8.5039891
 TTTTTTTTTTTTTTTTTTTTTTTTTTTTTT MOQGAD      TELAPSE      160.38 TCPU     4614.07
 TTTTTTTTTTTTTTTTTTTTTTTTTTTTTT SHELLXN     TELAPSE      173.23 TCPU     5023.77
 +++ ENERGIES IN A.U. +++
 ::: EXT EL-POLE                                  -1.5514065518343E+03
 ::: EXT EL-SPHEROPOLE                             1.7305512644598E+01
 ::: BIELET ZONE E-E                               2.5357586495979E+03
 ::: TOTAL E-E                                     1.0016576104082E+03
 ::: TOTAL E-N + N-E                              -3.8262645762215E+03
 ::: TOTAL N-N                                     3.8919511285300E+02
 ::: KINETIC ENERGY                                1.2800736325829E+03
 ::: PSEUDO TOTAL   ENERGY                        -1.1553382203773E+03
 ::: VIRIAL COEFFICIENT                            1.0512173791279E+00
 TTTTTTTTTTTTTTTTTTTTTTTTTTTTTT MONMO3      TELAPSE      173.43 TCPU     5030.02
 NUMERICALLY INTEGRATED DENSITY    197.9998741401
 EXCHANGE ENERGY: -0.126031684421E+03  CORRELATION ENERGY: -0.771822999183E+01
 TTTTTTTTTTTTTTTTTTTTTTTTTTTTTT NUMDFT      TELAPSE      174.09 TCPU     5051.07
 CYC  10 ETOT(AU) -1.289088134790E+03 DETOT -1.41E-08 tst  1.69E-09 PX  1.58E-04

 == SCF ENDED - CONVERGENCE ON ENERGY      E(AU) -1.2890881347905E+03 CYCLES  10


 ENERGY EXPRESSION=HARTREE+FOCK EXCH*0.00000+(HSESOL     EXCH)*1.00000+PBESOL     CORR


 TOTAL ENERGY(DFT)(AU)( 10) -1.2890881347905E+03 DE-1.4E-08 tester 1.7E-09
 TTTTTTTTTTTTTTTTTTTTTTTTTTTTTT EDFT        TELAPSE      174.09 TCPU     5051.07
 
 INFORMATION **** DFTD3 ENERGY **** CALCULATE DFTD3 ENERGY

           DFT-D V3(BJ)
 DF                                         hsesol3c  
 parameters
 s6       :    1.0000
 s8       :    0.0000
 a1       :    0.5196
 a2       :    4.9385
 k1 k3    :   16.0000   -4.0000
 Cutoff   :   50.2022
 CN-Cutoff:   21.1671
 ABC-Cutoff:   21.1671
 
 Edisp /kcal,au:   -32.7790 -0.05223658

 E6    /kcal :   -35.1722
 E8    /kcal :     0.0000
 E6(ABC) "   :   2.393296
 
 INFORMATION **** DFTD3 ENERGY **** NORMAL TERMINATION OF DFTD3 MODULE

 GCP ENERGY CALCULATION
  level        hsesol3c            basis:hsesol3c
  Nbf            474
  Atoms           42

  Parameters: 
  sigma     1.0000
  eta       1.4281
  alpha     0.2936
  beta      1.9467

  dmp_scal      4.0000
  dmp_exp       6.0000
 cutoffs: 
   distance [bohr] 60.0
   noise    [a.u.] 2.2E-16
 SR-damping   T
 ** gCP correction **
  Egcp:        0.0849415759 / (a.u.) ||      53.3016 / (kcal/mol)
 INFORMATION **** GCP **** NORMAL TERMINATION OF GCP MODULE

 *******************************************************************************

 DFT-D3-GCP DISPERSION AND COUNTERPOISE CORRECTION

 D3 DISPERSION ENERGY (AU)      -5.2236578759436E-02
 GCP ENERGY (AU)                 8.4941575911551E-02
 TOTAL ENERGY + DISP + GCP (AU) -1.2890554297933E+03

 *******************************************************************************

 EIGENVECTORS IN FORTRAN UNIT  8
 TTTTTTTTTTTTTTTTTTTTTTTTTTTTTT END         TELAPSE      175.56 TCPU     5058.47
 EEEEEEEEEE TERMINATION  DATE 02 12 2025 TIME 08:00:18.8
