 Default number of threads is:           32

         
 *******************************************************************************
 *                                                                             *
 *                               CRYSTAL23                                     *
 *                      public : 1.0.1 - October 2022                          *
 *                       HTTP://WWW.CRYSTAL.UNITO.IT                           *
 *                                                                             *
 *                              MAIN AUTHORS                                   *
 *                                                                             *
 *  R. DOVESI(1,11), V.R. SAUNDERS(2), C. ROETTI(1,11), R. ORLANDO(1,11),      *
 *  C.M. ZICOVICH-WILSON(1,3), F. PASCALE(4), B. CIVALLERI(1,11),              *
 *  K. DOLL(5), N.M. HARRISON(6), I.J. BUSH(7), Ph. D'ARCO(8),                 *
 *  M. LLUNELL(9), M. CAUSA'(10), Y. NOEL(8), L. MASCHIO(1,11), A. ERBA(1,11)  *
 *  M. RE'RAT(14), S. CASASSA(1,11), B.G. SEARLE(2), J.K. DESMARAIS(1)         *
 *                                                                             *
 *        CONTRIBUTIONS TO THE CODE HAVE ALSO BEEN GIVEN BY                    *
 *                                                                             *
 *  M. FERRABONE(1,11), M. DE LA PIERRE(1,11), M. FERRERO(1,11),               *
 *  J. BAIMA(1,11), E. ALBANESE(1,11), M.F. PEINTINGER(12), R. BAST(13),       *
 *  B. KIRTMAN(15), V. LACIVITA(1,11), R. DEMICHELIS(1,16)                     *
 *  G. BRANDEBURG(17), S. SALUSTRO(1,11), G. SANSONE(1,11)                     *
 *  M.T. RUGGIERO(18), L.E. DAGA(1), L. DONA'(1), A. COSSARD(1)                *
 *                                                                             *
 * (1) THEORETICAL CHEMISTRY GROUP - UNIVERSITA' DI TORINO - TORINO (ITALY)    *
 * (2) SCIENTIFIC COMPUTING DEPARTMENT - STFC DARESBURY (UK)                   *
 * (3) UNIVERSIDAD AUTONOMA DEL ESTADO DE MORELOS - CUERNAVACA (MEXICO)        *
 * (4) UNIVERSITE' DE LORRAINE - NANCY (FRANCE)                                *
 * (5) UNIVERSITAET STUTTGART- STUTTGART (GERMANY)                             *
 * (6) IMPERIAL COLLEGE - LONDON (UK)                                          *
 * (7) SCIENTIFIC COMPUTING DEPARTMENT - STFC RAL (UK)                         *
 * (8) UPMC - SORBONNE UNIVERSITES - PARIS (FRANCE)                            *
 * (9) UNIVERSIDAD DE BARCELONA - BARCELONA (SPAIN)                            *
 *(10) UNIVERSITA' DI NAPOLI "FEDERICO II" - NAPOLI (ITALY)                    *
 *(11) NIS - NANOSTRUCTURED INTERFACES AND SURFACES - TORINO (ITALY)           *
 *(12) MPI FUER CHEMISCHE ENERGIEKONVERSION - MUELHEIM AN DER RUHR (GERMANY)   *
 *(13) UNIVERSITY OF TROMSO - TROMSO (NORWAY)                                  *
 *(14) UNIVERSITE' DE PAU ET DES PAYS DE L'ADOUR - PAU (FRANCE)                *
 *(15) UNIVERSITY OF CALIFORNIA SANTA BARBARA - SANTA BARBARA (USA)            *
 *(16) CURTIN UNIVERSITY - PERTH (AUSTRALIA)                                   *
 *(17) UNIVERSITY COLLEGE LONDON - LONDON (UK)                                 *
 *(18) UNIVERSITY OF VERMONT - BURLINGTON (USA)                                *
 *                                                                             *
 *******************************************************************************
 EEEEEEEEEE STARTING  DATE 02 12 2025 TIME 08:01:57.5
 COF-5_z37_inc_L075                                                              

 CRYSTAL CALCULATION
 (INPUT ACCORDING TO THE INTERNATIONAL TABLES FOR X-RAY CRYSTALLOGRAPHY)
 CRYSTAL FAMILY                       :  TRICLINIC   
 CRYSTAL CLASS  (GROTH - 1921)        :  TRICLINIC PEDIAL                     

 SPACE GROUP (NONCENTROSYMMETRIC)     :  P 1             

 LATTICE PARAMETERS  (ANGSTROMS AND DEGREES) - CONVENTIONAL CELL
        A           B           C        ALPHA        BETA       GAMMA
    15.02070    15.04439     8.36301    39.08466    89.99968   120.05310


 NUMBER OF IRREDUCIBLE ATOMS IN THE CONVENTIONAL CELL:   42

 INPUT COORDINATES

 ATOM AT. N.              COORDINATES
   1   5     4.709929200000E-01 -6.025380000000E-02  5.006098100000E-01
   2   5     6.297694400000E-01  9.876717000000E-02  5.006198000000E-01
   3   5     4.709508000000E-01  9.927809000000E-02  4.991899500000E-01
   4   5     8.278131000000E-02  3.232686700000E-01  5.054043900000E-01
   5   5     2.401877500000E-01  3.204389500000E-01  5.094479300000E-01
   6   5     2.421835900000E-01  4.832131000000E-01  5.034828100000E-01
   7   1     7.586717900000E-01  1.897462000000E-02  5.045078700000E-01
   8   1    -4.353219000000E-02  4.075409300000E-01  4.929185500000E-01
   9   1     7.621254800000E-01  3.103211000000E-01  4.927802600000E-01
  10   1    -4.676420000000E-02  1.164368400000E-01  5.040764800000E-01
  11   1     4.487400000000E-01  6.128333000000E-01  5.041985400000E-01
  12   1     2.653875800000E-01 -1.862030500000E-01  4.945506300000E-01
  13   1     1.666697800000E-01  6.193324900000E-01  4.958573600000E-01
  14   1     5.473792500000E-01 -1.924047300000E-01  5.023373700000E-01
  15   1     4.501990800000E-01  4.038805300000E-01  4.977546700000E-01
  16   1     2.604960700000E-01  1.749707000000E-02  5.060370900000E-01
  17   1     1.632374200000E-01  1.136286800000E-01  5.056722400000E-01
  18   1     5.477208400000E-01  3.074837100000E-01  4.986880400000E-01
  19   6     7.491341600000E-01  1.583402300000E-01  5.003698300000E-01
  20   6     8.031482000000E-01  1.041466500000E-01  5.021357700000E-01
  21   6    -8.798800000000E-02  3.221646600000E-01  4.957434300000E-01
  22   6     8.049361200000E-01  2.684455800000E-01  4.960805600000E-01
  23   6    -8.963521000000E-02  1.580823100000E-01  5.014921100000E-01
  24   6    -3.450323000000E-02  2.670117700000E-01  4.993090400000E-01
  25   6     3.016180300000E-01  6.035289300000E-01  5.018511600000E-01
  26   6     4.093785800000E-01  6.577862600000E-01  5.022413000000E-01
  27   6     3.044432800000E-01 -2.316299700000E-01  4.969654000000E-01
  28   6     2.500018200000E-01  6.607705600000E-01  4.980839700000E-01
  29   6     4.638771100000E-01 -2.345194000000E-01  5.008040300000E-01
  30   6     4.116668200000E-01 -1.785907400000E-01  4.991799100000E-01
  31   6     3.017676000000E-01  2.655698100000E-01  4.999510600000E-01
  32   6     4.097761000000E-01  3.191424000000E-01  4.993996300000E-01
  33   6     3.016318200000E-01  1.025078400000E-01  5.039227600000E-01
  34   6     2.479059700000E-01  1.559035500000E-01  5.033148700000E-01
  35   6     4.633186800000E-01  2.655374700000E-01  5.003379000000E-01
  36   6     4.102053300000E-01  1.570989700000E-01  5.015796400000E-01
  37   8     4.181737600000E-01 -6.845110000000E-03  4.995797800000E-01
  38   8     5.764694800000E-01 -8.269880000000E-03  5.025695600000E-01
  39   8     5.773835200000E-01  1.530768300000E-01  4.980502500000E-01
  40   8     1.363965400000E-01  4.306786000000E-01  5.027162300000E-01
  41   8     1.339937800000E-01  2.673047400000E-01  5.102033100000E-01
  42   8     2.944910300000E-01  4.289654700000E-01  5.051877400000E-01

 *******************************************************************************

 << INFORMATION >>: FROM NOW ON, ALL COORDINATES REFER TO THE PRIMITIVE CELL

 *******************************************************************************

 LATTICE PARAMETERS  (ANGSTROMS AND DEGREES) - PRIMITIVE CELL
       A          B          C        ALPHA      BETA     GAMMA        VOLUME
   15.02070   15.04439    8.36301    39.08466  89.99968 120.05310    723.796939

 COORDINATES OF THE EQUIVALENT ATOMS (FRACTIONAL UNITS)

 N. ATOM EQUIV AT. N.          X                  Y                  Z

   1   1   1    5 B     4.70992920000E-01 -6.02538000000E-02 -4.99390190000E-01

   2   2   1    5 B    -3.70230560000E-01  9.87671700000E-02 -4.99380200000E-01

   3   3   1    5 B     4.70950800000E-01  9.92780900000E-02  4.99189950000E-01

   4   4   1    5 B     8.27813100000E-02  3.23268670000E-01 -4.94595610000E-01

   5   5   1    5 B     2.40187750000E-01  3.20438950000E-01 -4.90552070000E-01

   6   6   1    5 B     2.42183590000E-01  4.83213100000E-01 -4.96517190000E-01

   7   7   1    1 H    -2.41328210000E-01  1.89746200000E-02 -4.95492130000E-01

   8   8   1    1 H    -4.35321900000E-02  4.07540930000E-01  4.92918550000E-01

   9   9   1    1 H    -2.37874520000E-01  3.10321100000E-01  4.92780260000E-01

  10  10   1    1 H    -4.67642000000E-02  1.16436840000E-01 -4.95923520000E-01

  11  11   1    1 H     4.48740000000E-01 -3.87166700000E-01 -4.95801460000E-01

  12  12   1    1 H     2.65387580000E-01 -1.86203050000E-01  4.94550630000E-01

  13  13   1    1 H     1.66669780000E-01 -3.80667510000E-01  4.95857360000E-01

  14  14   1    1 H    -4.52620750000E-01 -1.92404730000E-01 -4.97662630000E-01

  15  15   1    1 H     4.50199080000E-01  4.03880530000E-01  4.97754670000E-01

  16  16   1    1 H     2.60496070000E-01  1.74970700000E-02 -4.93962910000E-01

  17  17   1    1 H     1.63237420000E-01  1.13628680000E-01 -4.94327760000E-01

  18  18   1    1 H    -4.52279160000E-01  3.07483710000E-01  4.98688040000E-01

  19  19   1    6 C    -2.50865840000E-01  1.58340230000E-01 -4.99630170000E-01

  20  20   1    6 C    -1.96851800000E-01  1.04146650000E-01 -4.97864230000E-01

  21  21   1    6 C    -8.79880000000E-02  3.22164660000E-01  4.95743430000E-01

  22  22   1    6 C    -1.95063880000E-01  2.68445580000E-01  4.96080560000E-01

  23  23   1    6 C    -8.96352100000E-02  1.58082310000E-01 -4.98507890000E-01

  24  24   1    6 C    -3.45032300000E-02  2.67011770000E-01  4.99309040000E-01

  25  25   1    6 C     3.01618030000E-01 -3.96471070000E-01 -4.98148840000E-01

  26  26   1    6 C     4.09378580000E-01 -3.42213740000E-01 -4.97758700000E-01

  27  27   1    6 C     3.04443280000E-01 -2.31629970000E-01  4.96965400000E-01

  28  28   1    6 C     2.50001820000E-01 -3.39229440000E-01  4.98083970000E-01

  29  29   1    6 C     4.63877110000E-01 -2.34519400000E-01 -4.99195970000E-01

  30  30   1    6 C     4.11666820000E-01 -1.78590740000E-01  4.99179910000E-01

  31  31   1    6 C     3.01767600000E-01  2.65569810000E-01  4.99951060000E-01

  32  32   1    6 C     4.09776100000E-01  3.19142400000E-01  4.99399630000E-01

  33  33   1    6 C     3.01631820000E-01  1.02507840000E-01 -4.96077240000E-01

  34  34   1    6 C     2.47905970000E-01  1.55903550000E-01 -4.96685130000E-01

  35  35   1    6 C     4.63318680000E-01  2.65537470000E-01 -4.99662100000E-01

  36  36   1    6 C     4.10205330000E-01  1.57098970000E-01 -4.98420360000E-01

  37  37   1    8 O     4.18173760000E-01 -6.84511000000E-03  4.99579780000E-01

  38  38   1    8 O    -4.23530520000E-01 -8.26988000000E-03 -4.97430440000E-01

  39  39   1    8 O    -4.22616480000E-01  1.53076830000E-01  4.98050250000E-01

  40  40   1    8 O     1.36396540000E-01  4.30678600000E-01 -4.97283770000E-01

  41  41   1    8 O     1.33993780000E-01  2.67304740000E-01 -4.89796690000E-01

  42  42   1    8 O     2.94491030000E-01  4.28965470000E-01 -4.94812260000E-01

 NUMBER OF SYMMETRY OPERATORS         :    1
 *******************************************************************************
 * GEOMETRY EDITING - INPUT COORDINATES ARE GIVEN IN ANGSTROM         
 *******************************************************************************

 GCALCO - MAX INDICES DIRECT LATTICE VECTOR     9    15    23
 NO.OF VECTORS CREATED 6999 STARS 3500 RMAX   211.84684 BOHR

 GEOMETRY FOR WAVE FUNCTION - DIMENSIONALITY OF THE SYSTEM    3
 (NON PERIODIC DIRECTION: LATTICE PARAMETER FORMALLY SET TO 500)
 *******************************************************************************
 LATTICE PARAMETERS (ANGSTROMS AND DEGREES) - BOHR = 0.5291772083 ANGSTROM
 PRIMITIVE CELL - CENTRING CODE 1/0 VOLUME=   723.796939 - DENSITY  0.895 g/cm^3
         A              B              C           ALPHA      BETA       GAMMA 
    15.02070100    15.04438700     8.36301400    39.084661  89.999684 120.053104
 *******************************************************************************
 ATOMS IN THE ASYMMETRIC UNIT   42 - ATOMS IN THE UNIT CELL:   42
     ATOM                 X/A                 Y/B                 Z/C    
 *******************************************************************************
      1 T   5 B     4.709929200000E-01 -6.025380000000E-02 -4.993901900000E-01
      2 T   5 B    -3.702305600000E-01  9.876717000000E-02 -4.993802000000E-01
      3 T   5 B     4.709508000000E-01  9.927809000000E-02  4.991899500000E-01
      4 T   5 B     8.278131000000E-02  3.232686700000E-01 -4.945956100000E-01
      5 T   5 B     2.401877500000E-01  3.204389500000E-01 -4.905520700000E-01
      6 T   5 B     2.421835900000E-01  4.832131000000E-01 -4.965171900000E-01
      7 T   1 H    -2.413282100000E-01  1.897462000000E-02 -4.954921300000E-01
      8 T   1 H    -4.353219000000E-02  4.075409300000E-01  4.929185500000E-01
      9 T   1 H    -2.378745200000E-01  3.103211000000E-01  4.927802600000E-01
     10 T   1 H    -4.676420000000E-02  1.164368400000E-01 -4.959235200000E-01
     11 T   1 H     4.487400000000E-01 -3.871667000000E-01 -4.958014600000E-01
     12 T   1 H     2.653875800000E-01 -1.862030500000E-01  4.945506300000E-01
     13 T   1 H     1.666697800000E-01 -3.806675100000E-01  4.958573600000E-01
     14 T   1 H    -4.526207500000E-01 -1.924047300000E-01 -4.976626300000E-01
     15 T   1 H     4.501990800000E-01  4.038805300000E-01  4.977546700000E-01
     16 T   1 H     2.604960700000E-01  1.749707000000E-02 -4.939629100000E-01
     17 T   1 H     1.632374200000E-01  1.136286800000E-01 -4.943277600000E-01
     18 T   1 H    -4.522791600000E-01  3.074837100000E-01  4.986880400000E-01
     19 T   6 C    -2.508658400000E-01  1.583402300000E-01 -4.996301700000E-01
     20 T   6 C    -1.968518000000E-01  1.041466500000E-01 -4.978642300000E-01
     21 T   6 C    -8.798800000000E-02  3.221646600000E-01  4.957434300000E-01
     22 T   6 C    -1.950638800000E-01  2.684455800000E-01  4.960805600000E-01
     23 T   6 C    -8.963521000000E-02  1.580823100000E-01 -4.985078900000E-01
     24 T   6 C    -3.450323000000E-02  2.670117700000E-01  4.993090400000E-01
     25 T   6 C     3.016180300000E-01 -3.964710700000E-01 -4.981488400000E-01
     26 T   6 C     4.093785800000E-01 -3.422137400000E-01 -4.977587000000E-01
     27 T   6 C     3.044432800000E-01 -2.316299700000E-01  4.969654000000E-01
     28 T   6 C     2.500018200000E-01 -3.392294400000E-01  4.980839700000E-01
     29 T   6 C     4.638771100000E-01 -2.345194000000E-01 -4.991959700000E-01
     30 T   6 C     4.116668200000E-01 -1.785907400000E-01  4.991799100000E-01
     31 T   6 C     3.017676000000E-01  2.655698100000E-01  4.999510600000E-01
     32 T   6 C     4.097761000000E-01  3.191424000000E-01  4.993996300000E-01
     33 T   6 C     3.016318200000E-01  1.025078400000E-01 -4.960772400000E-01
     34 T   6 C     2.479059700000E-01  1.559035500000E-01 -4.966851300000E-01
     35 T   6 C     4.633186800000E-01  2.655374700000E-01 -4.996621000000E-01
     36 T   6 C     4.102053300000E-01  1.570989700000E-01 -4.984203600000E-01
     37 T   8 O     4.181737600000E-01 -6.845110000000E-03  4.995797800000E-01
     38 T   8 O    -4.235305200000E-01 -8.269880000000E-03 -4.974304400000E-01
     39 T   8 O    -4.226164800000E-01  1.530768300000E-01  4.980502500000E-01
     40 T   8 O     1.363965400000E-01  4.306786000000E-01 -4.972837700000E-01
     41 T   8 O     1.339937800000E-01  2.673047400000E-01 -4.897966900000E-01
     42 T   8 O     2.944910300000E-01  4.289654700000E-01 -4.948122600000E-01

 T = ATOM BELONGING TO THE ASYMMETRIC UNIT

 ****    1 SYMMOPS - TRANSLATORS IN FRACTIONAL UNITS
 **** MATRICES AND TRANSLATORS IN THE CRYSTALLOGRAPHIC REFERENCE FRAME
   V INV                    ROTATION MATRICES                   TRANSLATORS
   1   1  1.00 -0.00  0.00  0.00  1.00  0.00 -0.00 -0.00  1.00  0.00  0.00  0.00

 DIRECT LATTICE VECTORS CARTESIAN COMPONENTS (ANGSTROM)
          X                    Y                    Z
   0.130013421718E+02  -0.752240388864E+01   0.000000000000E+00
   0.000000000000E+00   0.150443870000E+02   0.000000000000E+00
   0.375594824793E+01   0.649149876268E+01   0.370044588356E+01


 CARTESIAN COORDINATES - PRIMITIVE CELL
 *******************************************************************************
 *      ATOM          X(ANGSTROM)         Y(ANGSTROM)         Z(ANGSTROM)
 *******************************************************************************
    1     5 B     4.919081563063E-01  8.616169784834E-01 -5.548412256430E+00
    2     5 B     2.556253543593E+00  2.059673730878E+00 -5.548375288976E+00
    3     5 B    -1.247469808884E+00  1.609024713966E-01  5.547671279147E+00
    4     5 B    -7.814073780766E-01  1.029997737861E+00 -1.830224289050E+00
    5     5 B     1.280274935383E+00 -1.703998463675E-01 -1.815261388102E+00
    6     5 B     1.283818852130E+00  2.224701376152E+00 -1.837334991851E+00
    7     1 H    -4.998633431449E+00 -1.115656757014E+00 -1.833541812793E+00
    8     1 H    -2.470548581363E+00  3.166951579342E+00 -1.876427464280E+00
    9     1 H    -1.241830874304E+00 -5.387525615012E+00  1.823506684615E+00
   10     1 H    -2.470660441641E+00 -1.115786834519E+00 -1.835138148143E+00
   11     1 H     3.972017661153E+00  2.625603246571E+00 -1.834686471718E+00
   12     1 H     5.307901307981E+00 -1.587288505840E+00  1.830057842994E+00
   13     1 H     2.733971740586E-01  4.791078936266E+00 -1.865552556913E+00
   14     1 H    -3.997924080073E+00  3.771107286934E+00  1.858872252973E+00
   15     1 H     3.966784817252E+00 -5.707692532286E-01 -1.858531663934E+00
   16     1 H     1.531499414115E+00 -4.902883576575E+00 -1.827883016939E+00
   17     1 H     2.656360685815E-01 -2.727392009161E+00 -1.829233124620E+00
   18     1 H    -4.007189646220E+00 -3.779023764003E+00  1.845368104797E+00
   19     6 C    -5.138177686675E+00  1.025897237778E+00 -1.848854405877E+00
   20     6 C    -4.429289891306E+00 -1.842637798697E-01 -1.842319640474E+00
   21     6 C    -3.037923675610E+00  2.235270195887E+00 -1.865974148713E+00
   22     6 C    -4.428787587001E+00  2.234756062153E+00 -1.864726617392E+00
   23     6 C    -3.037747871874E+00 -1.835396493658E-01 -1.844701469471E+00
   24     6 C    -2.329157633229E+00  1.026340885631E+00 -1.852779801866E+00
   25     6 C     2.050417950399E+00  3.577097568367E+00 -1.843372824376E+00
   26     6 C     3.452915079217E+00  3.585280051439E+00 -1.841929132419E+00
   27     6 C     2.068799330658E+00  6.004062293692E+00 -1.861452314856E+00
   28     6 C     1.365188571899E+00  4.802086072195E+00 -1.857313107105E+00
   29     6 C     4.001225559357E-01 -1.705313372999E+00 -5.547693555831E+00
   30     6 C    -2.018278827889E+00 -3.573570875322E+00  5.547634126670E+00
   31     6 C     2.045225883882E+00 -1.520749845841E+00 -1.850404041600E+00
   32     6 C     3.447410207299E+00 -1.530846236858E+00 -1.852444578473E+00
   33     6 C     2.058378061298E+00 -3.947113549868E+00 -1.835706980684E+00
   34     6 C     1.357586698598E+00 -2.743606398710E+00 -1.837956444732E+00
   35     6 C     4.147059704202E+00 -2.733977682342E+00 -1.848972561114E+00
   36     6 C     3.461178778140E+00 -3.957767617789E+00 -1.844377569443E+00
   37     8 O    -1.932177983432E+00 -1.036115227192E+00  5.549113823966E+00
   38     8 O     1.870605723547E+00  8.629676183361E-01 -5.541160307610E+00
   39     8 O     1.320177478907E-01  1.622432681224E-01  5.543453880973E+00
   40     8 O    -9.443401707038E-02  2.225148690467E+00 -1.840171679656E+00
   41     8 O    -9.755203697891E-02 -1.660339833330E-01 -1.812466145290E+00
   42     8 O     1.970289406546E+00  1.026168897524E+00 -1.831025990650E+00

 *******************************************************************************
 STARTING BASIS SET HANDLING 
 *******************************************************************************

 Loading internal basis set: SOLDEF2MSVP         

 Please cite in your publication:
 L. Dona', J. G. Brandenburg and B. Civalleri, J. Chem. Phys., 151, 121101 (2019
 )                                                                              
                                                                                
                    

 *******************************************************************************
 LOCAL ATOMIC FUNCTIONS BASIS SET
 *******************************************************************************
   ATOM   X(AU)   Y(AU)   Z(AU)  N. TYPE  EXPONENT  S COEF   P COEF   D/F/G COEF
 *******************************************************************************
   1 B    0.930   1.628 -10.485
                                  1 S  
                                         2.410E+03 1.755E-03 0.000E+00 0.000E+00
                                         3.619E+02 1.344E-02 0.000E+00 0.000E+00
                                         8.231E+01 6.637E-02 0.000E+00 0.000E+00
                                         2.311E+01 2.303E-01 0.000E+00 0.000E+00
                                         7.252E+00 5.150E-01 0.000E+00 0.000E+00
                                  2 S  
                                         2.367E+00 1.000E+00 0.000E+00 0.000E+00
                                  3 S  
                                         5.533E-01 1.000E+00 0.000E+00 0.000E+00
                                  4 S  
                                         1.716E-01 1.000E+00 0.000E+00 0.000E+00
                           5-     7 P  
                                         6.002E+00 0.000E+00-3.555E-02 0.000E+00
                                         1.240E+00 0.000E+00-1.983E-01 0.000E+00
                                         3.367E-01 0.000E+00-5.048E-01 0.000E+00
                           8-    10 P  
                                         1.256E-01 0.000E+00 1.000E+00 0.000E+00
                          11-    15 D  
                                         8.880E-01 0.000E+00 0.000E+00 1.000E+00
   2 B    4.831   3.892 -10.485
   3 B   -2.357   0.304  10.484
   4 B   -1.477   1.946  -3.459
   5 B    2.419  -0.322  -3.430
   6 B    2.426   4.204  -3.472
   7 H   -9.446  -2.108  -3.465
                                 91 S  
                                         1.874E+01 1.968E-02 0.000E+00 0.000E+00
                                         2.826E+00 1.380E-01 0.000E+00 0.000E+00
                                         6.401E-01 4.783E-01 0.000E+00 0.000E+00
                                 92 S  
                                         1.756E-01 1.000E+00 0.000E+00 0.000E+00
   8 H   -4.669   5.985  -3.546
   9 H   -2.347 -10.181   3.446
  10 H   -4.669  -2.109  -3.468
  11 H    7.506   4.962  -3.467
  12 H   10.030  -3.000   3.458
  13 H    0.517   9.054  -3.525
  14 H   -7.555   7.126   3.513
  15 H    7.496  -1.079  -3.512
  16 H    2.894  -9.265  -3.454
  17 H    0.502  -5.154  -3.457
  18 H   -7.572  -7.141   3.487
  19 C   -9.710   1.939  -3.494
                                115 S  
                                         3.624E+03 1.634E-03 0.000E+00 0.000E+00
                                         5.440E+02 1.252E-02 0.000E+00 0.000E+00
                                         1.237E+02 6.211E-02 0.000E+00 0.000E+00
                                         3.476E+01 2.182E-01 0.000E+00 0.000E+00
                                         1.093E+01 4.980E-01 0.000E+00 0.000E+00
                                116 S  
                                         3.574E+00 1.000E+00 0.000E+00 0.000E+00
                                117 S  
                                         7.742E-01 1.000E+00 0.000E+00 0.000E+00
                                118 S  
                                         2.330E-01 1.000E+00 0.000E+00 0.000E+00
                         119-   121 P  
                                         9.443E+00 0.000E+00 3.790E-02 0.000E+00
                                         2.002E+00 0.000E+00 2.082E-01 0.000E+00
                                         5.463E-01 0.000E+00 5.047E-01 0.000E+00
                         122-   124 P  
                                         1.820E-01 0.000E+00 1.000E+00 0.000E+00
                         125-   129 D  
                                         8.880E-01 0.000E+00 0.000E+00 1.000E+00
  20 C   -8.370  -0.348  -3.481
  21 C   -5.741   4.224  -3.526
  22 C   -8.369   4.223  -3.524
  23 C   -5.741  -0.347  -3.486
  24 C   -4.401   1.940  -3.501
  25 C    3.875   6.760  -3.483
  26 C    6.525   6.775  -3.481
  27 C    3.909  11.346  -3.518
  28 C    2.580   9.075  -3.510
  29 C    0.756  -3.223 -10.484
  30 C   -3.814  -6.753  10.484
  31 C    3.865  -2.874  -3.497
  32 C    6.515  -2.893  -3.501
  33 C    3.890  -7.459  -3.469
  34 C    2.565  -5.185  -3.473
  35 C    7.837  -5.166  -3.494
  36 C    6.541  -7.479  -3.485
  37 O   -3.651  -1.958  10.486
                                385 S  
                                         6.773E+03 1.727E-03 0.000E+00 0.000E+00
                                         1.017E+03 1.325E-02 0.000E+00 0.000E+00
                                         2.313E+02 6.603E-02 0.000E+00 0.000E+00
                                         6.501E+01 2.353E-01 0.000E+00 0.000E+00
                                         2.050E+01 5.498E-01 0.000E+00 0.000E+00
                                386 S  
                                         6.716E+00 1.000E+00 0.000E+00 0.000E+00
                                387 S  
                                         1.147E+00 1.000E+00 0.000E+00 0.000E+00
                                388 S  
                                         3.342E-01 1.000E+00 0.000E+00 0.000E+00
                         389-   391 P  
                                         1.769E+01 0.000E+00 4.359E-02 0.000E+00
                                         3.854E+00 0.000E+00 2.318E-01 0.000E+00
                                         1.047E+00 0.000E+00 5.146E-01 0.000E+00
                         392-   394 P  
                                         2.759E-01 0.000E+00 1.000E+00 0.000E+00
                         395-   399 D  
                                         8.000E-01 0.000E+00 0.000E+00 1.000E+00
  38 O    3.535   1.631 -10.471
  39 O    0.249   0.307  10.476
  40 O   -0.178   4.205  -3.477
  41 O   -0.184  -0.314  -3.425
  42 O    3.723   1.939  -3.460

 *******************************************************************************
 FINISHED BASIS SET HANDLING 
 *******************************************************************************

 INFORMATION **** SET_MPP **** PCRYSTAL CALCULATION
 INFORMATION **** READM2 **** NEW DEFAULT: FOCK/KS MATRIX MIXING SET TO 30 %
 INFORMATION **** READM2 **** NEW DEFAULT: FULL DIRECT SCF MODE
 INFORMATION **** READM2 **** NEW DEFAULT: COULOMB BIPOLAR BUFFER SET TO 32 Mb
 INFORMATION **** READM2 **** NEW DEFAULT: EXCHANGE BIPOLAR BUFFER SET TO 32 Mb

 *******************************************************************************
 NEW DEFAULT: DFT INTEGRATION GRID INCREASED TO XLGRID
 NEW DEFAULT: DIIS ACCELERATOR ACTIVE
 USE KEYWORD NODIIS TO TURN IT OFF
 *******************************************************************************

 WARNING **** RDDFTP **** HSEsol-HJS ACTIVE
 RANGE SEPARATION - OMEGA:   0.110000000000000     
 WARNING **** RDDFTP **** HSEsol-3c has to be combined with sol-def2-mSVP basis set
 *******************************************************************************
 N. OF ATOMS PER CELL        42  COULOMB OVERLAP TOL         (T1) 10**   -6
 NUMBER OF SHELLS           234  COULOMB PENETRATION TOL     (T2) 10**   -6
 NUMBER OF AO               474  EXCHANGE OVERLAP TOL        (T3) 10**   -6
 N. OF ELECTRONS PER CELL   198  EXCHANGE PSEUDO OVP (F(G))  (T4) 10**   -6
 CORE ELECTRONS PER CELL     60  EXCHANGE PSEUDO OVP (P(G))  (T5) 10**  -12
 N. OF SYMMETRY OPERATORS     1  POLE ORDER IN MONO ZONE                  4
 *******************************************************************************
 TYPE OF CALCULATION :  RESTRICTED CLOSED SHELL
 KOHN-SHAM HAMILTONIAN

 (EXCHANGE)[CORRELATION] FUNCTIONAL:(HSEsol GGA)[PBEsol]

 RANGE-SEPARATED HYBRID FUNCTIONAL 
 OMEGA (SHORT-RANGE)[LONG-RANGE]:(    0.1100)[    0.0000]

 HYBRID EXCHANGE - PERCENTAGE OF FOCK EXCHANGE    25.0000

 CAPPA:IS1  2;IS2  2;IS3  8; K PTS MONK NET  20; SYMMOPS:K SPACE   2;G SPACE   1

 *******************************************************************************
 MAX NUMBER OF SCF CYCLES      50  CONVERGENCE ON DELTAP        10**-16
 WEIGHT OF F(I) IN F(I+1)      30% CONVERGENCE ON ENERGY        10**- 6
 SHRINK. FACT.(MONKH.)    2  2  8  NUMBER OF K POINTS IN THE IBZ     20
 SHRINKING FACTOR(GILAT NET)    8  NUMBER OF K POINTS(GILAT NET)   1028
 *******************************************************************************
 *** K POINTS COORDINATES (OBLIQUE COORDINATES IN UNITS OF IS =  2)
   1-R(  0  0  0)   2-R(  1  0  0)   3-R(  0  1  0)   4-R(  1  1  0)
   5-C(  0  0  1)   6-C(  1  0  1)   7-C(  0  1  1)   8-C(  1  1  1)
   9-C(  0  0  2)  10-C(  1  0  2)  11-C(  0  1  2)  12-C(  1  1  2)
  13-C(  0  0  3)  14-C(  1  0  3)  15-C(  0  1  3)  16-C(  1  1  3)
  17-R(  0  0  4)  18-R(  1  0  4)  19-R(  0  1  4)  20-R(  1  1  4)

 DIRECT LATTICE VECTORS COMPON. (A.U.)     RECIP. LATTICE VECTORS COMPON. (A.U.) 
        X            Y            Z              X            Y            Z
   24.5689761  -14.2152832    0.0000000      0.2557366    0.0000000   -0.2595723
    0.0000000   28.4297713    0.0000000      0.1278719    0.2210072   -0.5174912
    7.0977136   12.2671549    6.9928293      0.0000000    0.0000000    0.8985183

 DISK SPACE FOR EIGENVECTORS (FTN 10)     7189632 REALS

 SYMMETRY ADAPTION OF THE BLOCH FUNCTIONS DISABLED
 TTTTTTTTTTTTTTTTTTTTTTTTTTTTTT gordsh1     TELAPSE        0.04 TCPU        0.04

 MATRIX SIZE: P(G)  314860, F(G)   61077, P(G) IRR  158597, F(G) IRR   61557
 MAX G-VECTOR INDEX FOR 1- AND 2-ELECTRON INTEGRALS  53

 TTTTTTTTTTTTTTTTTTTTTTTTTTTTTT INPUT       TELAPSE        0.40 TCPU        0.40

 NEIGHBORS OF THE NON-EQUIVALENT ATOMS

 N = NUMBER OF NEIGHBORS AT DISTANCE R
    ATOM  N     R/ANG      R/AU   NEIGHBORS (ATOM LABELS AND CELL INDICES)
   1 B    1     1.3787     2.6054   38 O    0 0 0
   1 B    1     1.3795     2.6068   37 O    1 2-3
   1 B    1     1.5517     2.9323   30 C    1 2-3
   1 B    1     2.3868     4.5104    2 B    0 0 0
   1 B    1     2.3912     4.5187    3 B    1 2-3
   1 B    1     2.5629     4.8432   27 C    0 0-1

   2 B    1     1.3792     2.6064   38 O    0 0 0
   2 B    1     1.3798     2.6075   39 O    1 2-3
   2 B    1     1.5510     2.9309   19 C    1 1-1
   2 B    1     2.3868     4.5104    1 B    0 0 0
   2 B    1     2.3894     4.5154    3 B    1 2-3
   2 B    1     2.5618     4.8411   22 C    1 1-1

   3 B    1     1.3790     2.6060   37 O    0 0 0
   3 B    1     1.3795     2.6069   39 O    0 0 0
   3 B    1     1.5529     2.9346   36 C   -1-1 2
   3 B    1     2.3894     4.5154    2 B   -1-2 3
   3 B    1     2.3912     4.5187    1 B   -1-2 3
   3 B    1     2.5679     4.8526   35 C   -1-1 2

   4 B    1     1.3778     2.6038   41 O    0 0 0
   4 B    1     1.3786     2.6051   40 O    0 0 0
   4 B    1     1.5479     2.9251   24 C    0 0 0
   4 B    1     2.3857     4.5084    5 B    0 0 0
   4 B    1     2.3859     4.5087    6 B    0 0 0
   4 B    1     2.5585     4.8348   21 C    0 0 0

   5 B    1     1.3778     2.6037   41 O    0 0 0
   5 B    1     1.3814     2.6104   42 O    0 0 0
   5 B    1     1.5524     2.9335   31 C    0 0 0
   5 B    1     2.3857     4.5084    4 B    0 0 0
   5 B    1     2.3952     4.5263    6 B    0 0 0
   5 B    1     2.5590     4.8359   32 C    0 0 0

   6 B    1     1.3783     2.6045   40 O    0 0 0
   6 B    1     1.3812     2.6101   42 O    0 0 0
   6 B    1     1.5546     2.9377   25 C    0 0 0
   6 B    1     2.3859     4.5087    4 B    0 0 0
   6 B    1     2.3952     4.5263    5 B    0 0 0
   6 B    1     2.5605     4.8386   26 C    0 0 0

   7 H    1     1.0917     2.0629   20 C    0 0 0
   7 H    1     2.1462     4.0556   19 C    0 0 0
   7 H    1     2.1712     4.1029   23 C    0 0 0
   7 H    1     2.5280     4.7772   10 H    0 0 0
   7 H    1     2.5583     4.8346   38 O   -1-1 1
   7 H    1     2.7310     5.1609    2 B   -1-1 1

   8 H    1     1.0909     2.0615   21 C    0 0 0
   8 H    1     2.1454     4.0542   24 C    0 0 0
   8 H    1     2.1688     4.0985   22 C    0 0 0
   8 H    1     2.5272     4.7758    9 H    0 1-1
   8 H    1     2.5562     4.8305   40 O    0 0 0
   8 H    1     2.7243     5.1482    4 B    0 0 0

   9 H    1     1.0908     2.0614   22 C    0-1 1
   9 H    1     2.1443     4.0520   19 C    0-1 1
   9 H    1     2.1694     4.0995   21 C    0-1 1
   9 H    1     2.5272     4.7758    8 H    0-1 1
   9 H    1     2.5616     4.8407   39 O    0 0-1
   9 H    1     2.7248     5.1492    2 B   -1-2 2

  10 H    1     1.0912     2.0621   23 C    0 0 0
  10 H    1     2.1469     4.0570   24 C    0 0 0
  10 H    1     2.1689     4.0986   20 C    0 0 0
  10 H    1     2.5280     4.7772    7 H    0 0 0
  10 H    1     2.5562     4.8305   41 O    0 0 0
  10 H    1     2.7309     5.1607    4 B    0 0 0

  11 H    1     1.0911     2.0619   26 C    0 0 0
  11 H    1     2.1443     4.0521   25 C    0 0 0
  11 H    1     2.1684     4.0978   29 C    0 0 1
  11 H    1     2.5223     4.7664   14 H    1 1-1
  11 H    1     2.5622     4.8419   42 O    0 0 0
  11 H    1     2.7179     5.1361    6 B    0 0 0

  12 H    1     1.0917     2.0630   27 C    0-1 1
  12 H    1     2.1441     4.0518   30 C    1 1-1
  12 H    1     2.1716     4.1037   28 C    0-1 1
  12 H    1     2.5226     4.7669   13 H    0-1 1
  12 H    1     2.5541     4.8265   37 O    1 1-1
  12 H    1     2.7237     5.1471    1 B    0-1 2

  13 H    1     1.0919     2.0634   28 C    0 0 0
  13 H    1     2.1522     4.0671   25 C    0 0 0
  13 H    1     2.1668     4.0946   27 C    0 0 0
  13 H    1     2.5226     4.7669   12 H    0 1-1
  13 H    1     2.5923     4.8987   40 O    0 0 0
  13 H    1     2.7583     5.2124    6 B    0 0 0

  14 H    1     1.0915     2.0627   29 C   -1-1 2
  14 H    1     2.1483     4.0597   30 C    0 1-1
  14 H    1     2.1679     4.0968   26 C   -1-1 1
  14 H    1     2.5223     4.7664   11 H   -1-1 1
  14 H    1     2.5809     4.8771   38 O   -1-1 2
  14 H    1     2.7404     5.1785    1 B   -1-1 2

  15 H    1     1.0916     2.0628   32 C    0 0 0
  15 H    1     2.1436     4.0508   31 C    0 0 0
  15 H    1     2.1707     4.1021   35 C    0 0 0
  15 H    1     2.5217     4.7654   18 H    1 1-1
  15 H    1     2.5567     4.8316   42 O    0 0 0
  15 H    1     2.7165     5.1335    5 B    0 0 0

  16 H    1     1.0914     2.0625   33 C    0 0 0
  16 H    1     2.1488     4.0606   36 C    0 0 0
  16 H    1     2.1663     4.0937   34 C    0 0 0
  16 H    1     2.5170     4.7564   17 H    0 0 0
  16 H    1     2.5780     4.8717   37 O    1 1-2
  16 H    1     2.7395     5.1770    3 B    1 1-2

  17 H    1     1.0921     2.0638   34 C    0 0 0
  17 H    1     2.1502     4.0633   31 C    0 0 0
  17 H    1     2.1683     4.0976   33 C    0 0 0
  17 H    1     2.5170     4.7564   16 H    0 0 0
  17 H    1     2.5870     4.8888   41 O    0 0 0
  17 H    1     2.7510     5.1986    5 B    0 0 0

  18 H    1     1.0913     2.0622   35 C   -1-1 1
  18 H    1     2.1495     4.0619   36 C   -1-1 1
  18 H    1     2.1656     4.0923   32 C   -1-1 1
  18 H    1     2.5217     4.7654   15 H   -1-1 1
  18 H    1     2.5789     4.8734   39 O    0 0-1
  18 H    1     2.7392     5.1763    3 B    0 0-1

  19 C    1     1.4017     2.6489   22 C    0 0 0
  19 C    1     1.4025     2.6504   20 C    0 0 0
  19 C    1     1.5510     2.9309    2 B   -1-1 1
  19 C    1     2.1443     4.0520    9 H    0 1-1
  19 C    1     2.1462     4.0556    7 H    0 0 0
  19 C    1     2.4236     4.5800   21 C    0 0 0

  20 C    1     1.0917     2.0629    7 H    0 0 0
  20 C    1     1.3915     2.6296   23 C    0 0 0
  20 C    1     1.4025     2.6504   19 C    0 0 0
  20 C    1     2.1689     4.0986   10 H    0 0 0
  20 C    1     2.4191     4.5715   22 C    0 0 0
  20 C    1     2.4241     4.5809   24 C    0 0 0

  21 C    1     1.0909     2.0615    8 H    0 0 0
  21 C    1     1.3909     2.6284   22 C    0 0 0
  21 C    1     1.4014     2.6483   24 C    0 0 0
  21 C    1     2.1694     4.0995    9 H    0 1-1
  21 C    1     2.4189     4.5711   23 C    0 0 0
  21 C    1     2.4236     4.5800   19 C    0 0 0

  22 C    1     1.0908     2.0614    9 H    0 1-1
  22 C    1     1.3909     2.6284   21 C    0 0 0
  22 C    1     1.4017     2.6489   19 C    0 0 0
  22 C    1     2.1688     4.0985    8 H    0 0 0
  22 C    1     2.4191     4.5715   20 C    0 0 0
  22 C    1     2.4226     4.5780   24 C    0 0 0

  23 C    1     1.0912     2.0621   10 H    0 0 0
  23 C    1     1.3915     2.6296   20 C    0 0 0
  23 C    1     1.4021     2.6496   24 C    0 0 0
  23 C    1     2.1712     4.1029    7 H    0 0 0
  23 C    1     2.4189     4.5711   21 C    0 0 0
  23 C    1     2.4237     4.5802   19 C    0 0 0

  24 C    1     1.4014     2.6483   21 C    0 0 0
  24 C    1     1.4021     2.6496   23 C    0 0 0
  24 C    1     1.5479     2.9251    4 B    0 0 0
  24 C    1     2.1454     4.0542    8 H    0 0 0
  24 C    1     2.1469     4.0570   10 H    0 0 0
  24 C    1     2.4226     4.5780   22 C    0 0 0

  25 C    1     1.4025     2.6504   26 C    0 0 0
  25 C    1     1.4037     2.6526   28 C    0 0 0
  25 C    1     1.5546     2.9377    6 B    0 0 0
  25 C    1     2.1443     4.0521   11 H    0 0 0
  25 C    1     2.1522     4.0671   13 H    0 0 0
  25 C    1     2.4271     4.5866   27 C    0 0 0

  26 C    1     1.0911     2.0619   11 H    0 0 0
  26 C    1     1.3916     2.6298   29 C    0 0 1
  26 C    1     1.4025     2.6504   25 C    0 0 0
  26 C    1     2.1679     4.0968   14 H    1 1-1
  26 C    1     2.4165     4.5665   28 C    0 0 0
  26 C    1     2.4246     4.5819   30 C    1 2-2

  27 C    1     1.0917     2.0630   12 H    0 1-1
  27 C    1     1.3928     2.6320   28 C    0 0 0
  27 C    1     1.4024     2.6502   30 C    1 2-2
  27 C    1     2.1668     4.0946   13 H    0 0 0
  27 C    1     2.4166     4.5668   29 C    0 0 1
  27 C    1     2.4271     4.5866   25 C    0 0 0

  28 C    1     1.0919     2.0634   13 H    0 0 0
  28 C    1     1.3928     2.6320   27 C    0 0 0
  28 C    1     1.4037     2.6526   25 C    0 0 0
  28 C    1     2.1716     4.1037   12 H    0 1-1
  28 C    1     2.4165     4.5665   26 C    0 0 0
  28 C    1     2.4277     4.5877   30 C    1 2-2

  29 C    1     1.0915     2.0627   14 H    1 1-2
  29 C    1     1.3916     2.6298   26 C    0 0-1
  29 C    1     1.4023     2.6499   30 C    1 2-3
  29 C    1     2.1684     4.0978   11 H    0 0-1
  29 C    1     2.4166     4.5668   27 C    0 0-1
  29 C    1     2.4281     4.5884   25 C    0 0-1

  30 C    1     1.4023     2.6499   29 C   -1-2 3
  30 C    1     1.4024     2.6502   27 C   -1-2 2
  30 C    1     1.5517     2.9323    1 B   -1-2 3
  30 C    1     2.1441     4.0518   12 H   -1-1 1
  30 C    1     2.1483     4.0597   14 H    0-1 1
  30 C    1     2.4246     4.5819   26 C   -1-2 2

  31 C    1     1.4022     2.6498   32 C    0 0 0
  31 C    1     1.4030     2.6513   34 C    0 0 0
  31 C    1     1.5524     2.9335    5 B    0 0 0
  31 C    1     2.1436     4.0508   15 H    0 0 0
  31 C    1     2.1502     4.0633   17 H    0 0 0
  31 C    1     2.4264     4.5853   33 C    0 0 0

  32 C    1     1.0916     2.0628   15 H    0 0 0
  32 C    1     1.3918     2.6301   35 C    0 0 0
  32 C    1     1.4022     2.6498   31 C    0 0 0
  32 C    1     2.1656     4.0923   18 H    1 1-1
  32 C    1     2.4163     4.5661   34 C    0 0 0
  32 C    1     2.4270     4.5863   36 C    0 0 0

  33 C    1     1.0914     2.0625   16 H    0 0 0
  33 C    1     1.3927     2.6318   34 C    0 0 0
  33 C    1     1.4029     2.6510   36 C    0 0 0
  33 C    1     2.1683     4.0976   17 H    0 0 0
  33 C    1     2.4155     4.5646   35 C    0 0 0
  33 C    1     2.4264     4.5853   31 C    0 0 0

  34 C    1     1.0921     2.0638   17 H    0 0 0
  34 C    1     1.3927     2.6318   33 C    0 0 0
  34 C    1     1.4030     2.6513   31 C    0 0 0
  34 C    1     2.1663     4.0937   16 H    0 0 0
  34 C    1     2.4163     4.5661   32 C    0 0 0
  34 C    1     2.4289     4.5899   36 C    0 0 0

  35 C    1     1.0913     2.0622   18 H    1 1-1
  35 C    1     1.3918     2.6301   32 C    0 0 0
  35 C    1     1.4029     2.6511   36 C    0 0 0
  35 C    1     2.1707     4.1021   15 H    0 0 0
  35 C    1     2.4155     4.5646   33 C    0 0 0
  35 C    1     2.4269     4.5861   31 C    0 0 0

  36 C    1     1.4029     2.6510   33 C    0 0 0
  36 C    1     1.4029     2.6511   35 C    0 0 0
  36 C    1     1.5529     2.9346    3 B    1 1-2
  36 C    1     2.1488     4.0606   16 H    0 0 0
  36 C    1     2.1495     4.0619   18 H    1 1-1
  36 C    1     2.4270     4.5863   32 C    0 0 0

  37 O    1     1.3790     2.6060    3 B    0 0 0
  37 O    1     1.3795     2.6068    1 B   -1-2 3
  37 O    1     2.3868     4.5105   39 O    0 0 0
  37 O    1     2.3885     4.5136   38 O   -1-2 3
  37 O    1     2.5389     4.7979   30 C    0 0 0
  37 O    1     2.5412     4.8022   36 C   -1-1 2

  38 O    1     1.3787     2.6054    1 B    0 0 0
  38 O    1     1.3792     2.6064    2 B    0 0 0
  38 O    1     2.3885     4.5136   37 O    1 2-3
  38 O    1     2.3912     4.5187   39 O    1 2-3
  38 O    1     2.5351     4.7906   19 C    1 1-1
  38 O    1     2.5405     4.8008   30 C    1 2-3

  39 O    1     1.3795     2.6069    3 B    0 0 0
  39 O    1     1.3798     2.6075    2 B   -1-2 3
  39 O    1     2.3868     4.5105   37 O    0 0 0
  39 O    1     2.3912     4.5187   38 O   -1-2 3
  39 O    1     2.5416     4.8030   19 C    0-1 2
  39 O    1     2.5427     4.8050   36 C   -1-1 2

  40 O    1     1.3783     2.6045    6 B    0 0 0
  40 O    1     1.3786     2.6051    4 B    0 0 0
  40 O    1     2.3876     4.5119   42 O    0 0 0
  40 O    1     2.3913     4.5190   41 O    0 0 0
  40 O    1     2.5354     4.7912   25 C    0 0 0
  40 O    1     2.5360     4.7923   24 C    0 0 0

  41 O    1     1.3778     2.6037    5 B    0 0 0
  41 O    1     1.3778     2.6038    4 B    0 0 0
  41 O    1     2.3870     4.5107   42 O    0 0 0
  41 O    1     2.3913     4.5190   40 O    0 0 0
  41 O    1     2.5305     4.7820   24 C    0 0 0
  41 O    1     2.5354     4.7912   31 C    0 0 0

  42 O    1     1.3812     2.6101    6 B    0 0 0
  42 O    1     1.3814     2.6104    5 B    0 0 0
  42 O    1     2.3870     4.5107   41 O    0 0 0
  42 O    1     2.3876     4.5119   40 O    0 0 0
  42 O    1     2.5481     4.8152   31 C    0 0 0
  42 O    1     2.5522     4.8230   25 C    0 0 0


 SYMMETRY ALLOWED INTERNAL DEGREE(S) OF FREEDOM: 123
 TTTTTTTTTTTTTTTTTTTTTTTTTTTTTT SYMM        TELAPSE        0.41 TCPU        0.40
 TTTTTTTTTTTTTTTTTTTTTTTTTTTTTT INT_SCREEN  TELAPSE        0.44 TCPU        0.44

 DFT PARAMETERS

     ATOM       ELECTRONS   NET CHARGE   R(ANGSTROM)
   1   5  B       5.0000      0.0000     0.89000000
   7   1  H       1.0000      0.0000     1.11000000
  19   6  C       6.0000      0.0000     0.77000000
  37   8  O       8.0000      0.0000     0.74000000

 SIZE OF GRID=    1308220
 TTTTTTTTTTTTTTTTTTTTTTTTTTTTTT MAKE_GRID2  TELAPSE        8.92 TCPU        8.90
 BECKE WEIGHT FUNCTION
 RADSAFE =     2.00
 TOLERANCES - DENSITY:10**- 6; POTENTIAL:10**- 9; GRID WGT:10**-14

 RADIAL INTEGRATION  - INTERVALS (POINTS,UPPER LIMIT):            1( 75,  4.0*R)

 ANGULAR INTEGRATION - INTERVALS (ACCURACY LEVEL [N. POINTS] UPPER LIMIT):
  1(  4[  86]   0.2)  2(  8[ 194]   0.5)  3( 12[ 350]   0.9)  4( 16[ 974]   3.5)
  5( 12[ 350]9999.0)
 TTTTTTTTTTTTTTTTTTTTTTTTTTTTTT INT_CALC    TELAPSE        9.00 TCPU        8.98
 EEEEEEEEEE INT_CALC TERMINATION  DATE 02 12 2025 TIME 08:02:06.5

 *******************************************************************************
 COF-5_z37_inc_L075                                                              
 CRYSTAL - SCF - TYPE OF CALCULATION :  RESTRICTED CLOSED SHELL
 *******************************************************************************

 CAPPA:IS1  2;IS2  2;IS3  8; K PTS MONK NET  20; SYMMOPS:K SPACE   2;G SPACE   1

 TTTTTTTTTTTTTTTTTTTTTTTTTTTTTT SDIK        TELAPSE        9.59 TCPU       16.46

 AAAAAAAAAAAAAAAAAAAAAAAAAAAAAAAAAAAAAAAAAAAAAAAAAAAAAAAAAAAAAAAAAAAAAAAAAAAAAAA
         ATOMIC WAVEFUNCTION(S)


 NUCLEAR CHARGE  5.0  SYMMETRY SPECIES            S    P
 N. ELECTRONS    5.0  NUMBER OF PRIMITIVE GTOS    8    4
                      NUMBER OF CONTRACTED GTOS   4    2
                      NUMBER OF CLOSED SHELLS     2    0
                      OPEN SHELL OCCUPATION       0    1

  ZNUC  SCFIT    TOTAL HF ENERGY   KINETIC ENERGY   VIRIAL THEOREM ACCURACY
   5.0    11    -2.451164084E+01  2.462155050E+01 -1.995536038E+00  1.5E-06

 NUCLEAR CHARGE  1.0  SYMMETRY SPECIES            S
 N. ELECTRONS    1.0  NUMBER OF PRIMITIVE GTOS    4
                      NUMBER OF CONTRACTED GTOS   2
                      NUMBER OF CLOSED SHELLS     0
                      OPEN SHELL OCCUPATION       1

  ZNUC  SCFIT    TOTAL HF ENERGY   KINETIC ENERGY   VIRIAL THEOREM ACCURACY
   1.0     1    -4.977266687E-01  5.190767460E-01 -1.958869132E+00  0.0E+00

 NUCLEAR CHARGE  6.0  SYMMETRY SPECIES            S    P
 N. ELECTRONS    6.0  NUMBER OF PRIMITIVE GTOS    8    4
                      NUMBER OF CONTRACTED GTOS   4    2
                      NUMBER OF CLOSED SHELLS     2    0
                      OPEN SHELL OCCUPATION       0    2

  ZNUC  SCFIT    TOTAL HF ENERGY   KINETIC ENERGY   VIRIAL THEOREM ACCURACY
   6.0     9    -3.766704647E+01  3.775180683E+01 -1.997754800E+00  1.1E-06

 NUCLEAR CHARGE  8.0  SYMMETRY SPECIES            S    P
 N. ELECTRONS    8.0  NUMBER OF PRIMITIVE GTOS    8    4
                      NUMBER OF CONTRACTED GTOS   4    2
                      NUMBER OF CLOSED SHELLS     2    0
                      OPEN SHELL OCCUPATION       0    4

  ZNUC  SCFIT    TOTAL HF ENERGY   KINETIC ENERGY   VIRIAL THEOREM ACCURACY
   8.0    12    -7.477373220E+01  7.477365593E+01 -2.000001020E+00  3.8E-06

 AAAAAAAAAAAAAAAAAAAAAAAAAAAAAAAAAAAAAAAAAAAAAAAAAAAAAAAAAAAAAAAAAAAAAAAAAAAAAAA

 CHARGE NORMALIZATION FACTOR   1.00000000
 TOTAL ATOMIC CHARGES:
   5.0000000   5.0000000   5.0000000   5.0000000   5.0000000   5.0000000
   1.0000000   1.0000000   1.0000000   1.0000000   1.0000000   1.0000000
   1.0000000   1.0000000   1.0000000   1.0000000   1.0000000   1.0000000
   6.0000000   6.0000000   6.0000000   6.0000000   6.0000000   6.0000000
   6.0000000   6.0000000   6.0000000   6.0000000   6.0000000   6.0000000
   6.0000000   6.0000000   6.0000000   6.0000000   6.0000000   6.0000000
   8.0000000   8.0000000   8.0000000   8.0000000   8.0000000   8.0000000
 TTTTTTTTTTTTTTTTTTTTTTTTTTTTTT MOQGAD      TELAPSE        9.64 TCPU       17.67
 TTTTTTTTTTTTTTTTTTTTTTTTTTTTTT SHELLXN     TELAPSE       16.17 TCPU      220.27
 TTTTTTTTTTTTTTTTTTTTTTTTTTTTTT MONMO3      TELAPSE       16.31 TCPU      224.63
 NUMERICALLY INTEGRATED DENSITY    197.9999789838
 TTTTTTTTTTTTTTTTTTTTTTTTTTTTTT NUMDFT      TELAPSE       16.93 TCPU      244.34
 CYC   0 ETOT(AU) -1.295950558146E+03 DETOT -1.30E+03 tst  0.00E+00 PX  1.00E+00
 TTTTTTTTTTTTTTTTTTTTTTTTTTTTTT DIIS        TELAPSE       16.96 TCPU      245.48
 TTTTTTTTTTTTTTTTTTTTTTTTTTTTTT FDIK        TELAPSE       17.45 TCPU      260.98
 INSULATING STATE
 TOP OF VALENCE BANDS -    BAND     99; K    1; EIG -3.0958910E-01 AU
 BOTTOM OF VIRTUAL BANDS - BAND    100; K    1; EIG -1.5907594E-01 AU
 DIRECT ENERGY BAND GAP:   4.0957 eV
 TTTTTTTTTTTTTTTTTTTTTTTTTTTTTT PDIG        TELAPSE       17.78 TCPU      267.17
 CHARGE NORMALIZATION FACTOR   1.00000000
 TOTAL ATOMIC CHARGES:
   4.1481507   4.1599464   4.1610716   4.1627411   4.1601464   4.1463819
   0.7852970   0.7852618   0.7854523   0.7854989   0.7856001   0.7854907
   0.7864751   0.7860286   0.7850182   0.7855974   0.7856782   0.7859133
   6.0436585   6.2658672   6.2659140   6.2662409   6.2649482   6.0459802
   6.0437248   6.2672775   6.2653753   6.2680119   6.2677148   6.0470248
   6.0428885   6.2659008   6.2668171   6.2657576   6.2673689   6.0403886
   8.6959291   8.6951653   8.6958162   8.6948389   8.6944003   8.6972409
 TTTTTTTTTTTTTTTTTTTTTTTTTTTTTT MOQGAD      TELAPSE       17.83 TCPU      267.21
 TTTTTTTTTTTTTTTTTTTTTTTTTTTTTT SHELLXN     TELAPSE       24.44 TCPU      477.61
 TTTTTTTTTTTTTTTTTTTTTTTTTTTTTT MONMO3      TELAPSE       24.57 TCPU      481.97
 NUMERICALLY INTEGRATED DENSITY    197.9999962155
 TTTTTTTTTTTTTTTTTTTTTTTTTTTTTT NUMDFT      TELAPSE       25.20 TCPU      501.96
 CYC   1 ETOT(AU) -1.288815584675E+03 DETOT  7.13E+00 tst  0.00E+00 PX  1.00E+00
 TTTTTTTTTTTTTTTTTTTTTTTTTTTTTT DIIS        TELAPSE       25.24 TCPU      503.48
 DIIS TEST: 0.11142E+01 AT SCF   CYCLE   1 - MIX   30 %
 TTTTTTTTTTTTTTTTTTTTTTTTTTTTTT FDIK        TELAPSE       25.74 TCPU      519.18
 INSULATING STATE
 TOP OF VALENCE BANDS -    BAND     99; K    1; EIG -2.2048481E-01 AU
 BOTTOM OF VIRTUAL BANDS - BAND    100; K    1; EIG -8.5334126E-02 AU
 DIRECT ENERGY BAND GAP:   3.6776 eV
 TTTTTTTTTTTTTTTTTTTTTTTTTTTTTT PDIG        TELAPSE       26.09 TCPU      525.39
 CHARGE NORMALIZATION FACTOR   1.00000000
 TOTAL ATOMIC CHARGES:
   4.7110484   4.7050056   4.7050433   4.7059598   4.7047674   4.7111262
   0.9069674   0.9074212   0.9079809   0.9079214   0.9054402   0.9050630
   0.9057367   0.9060165   0.9067293   0.9069958   0.9078607   0.9078935
   5.8712130   6.1438981   6.1424325   6.1301969   6.1313141   5.8669600
   5.8931843   6.1242100   6.1254117   6.1300401   6.1264527   5.8866554
   5.8715908   6.1392931   6.1417307   6.1317999   6.1296558   5.8735932
   8.3386477   8.3375857   8.3314840   8.3368424   8.3280861   8.3427445
 TTTTTTTTTTTTTTTTTTTTTTTTTTTTTT MOQGAD      TELAPSE       26.13 TCPU      525.43
 TTTTTTTTTTTTTTTTTTTTTTTTTTTTTT SHELLXN     TELAPSE       32.73 TCPU      735.77
 TTTTTTTTTTTTTTTTTTTTTTTTTTTTTT MONMO3      TELAPSE       32.87 TCPU      740.13
 NUMERICALLY INTEGRATED DENSITY    197.9999941435
 TTTTTTTTTTTTTTTTTTTTTTTTTTTTTT NUMDFT      TELAPSE       33.49 TCPU      760.11
 CYC   2 ETOT(AU) -1.289009304531E+03 DETOT -1.94E-01 tst  3.52E-03 PX  1.59E-01
 TTTTTTTTTTTTTTTTTTTTTTTTTTTTTT DIIS        TELAPSE       33.54 TCPU      761.71
 DIIS TEST: 0.46493E+00 AT SCF   CYCLE   2 - DIIS ACTIVE - HISTORY:     2 CYCLES
 TTTTTTTTTTTTTTTTTTTTTTTTTTTTTT FDIK        TELAPSE       34.04 TCPU      777.45
 INSULATING STATE
 TOP OF VALENCE BANDS -    BAND     99; K    1; EIG -2.3400392E-01 AU
 BOTTOM OF VIRTUAL BANDS - BAND    100; K    1; EIG -7.9380820E-02 AU
 DIRECT ENERGY BAND GAP:   4.2075 eV
 TTTTTTTTTTTTTTTTTTTTTTTTTTTTTT PDIG        TELAPSE       34.37 TCPU      783.64
 CHARGE NORMALIZATION FACTOR   1.00000000
 TOTAL ATOMIC CHARGES:
   4.4972611   4.4980692   4.4984116   4.5002892   4.4983649   4.4960468
   0.8863188   0.8861270   0.8868613   0.8869021   0.8833069   0.8830294
   0.8844652   0.8838515   0.8851529   0.8861335   0.8870216   0.8866930
   5.8902522   6.1624832   6.1631020   6.1622992   6.1624497   5.8922707
   5.8894943   6.1628236   6.1637608   6.1654933   6.1660968   5.8925587
   5.8915660   6.1621702   6.1628803   6.1636054   6.1635963   5.8904640
   8.5124459   8.5117185   8.5152944   8.5109985   8.5134929   8.5143770
 TTTTTTTTTTTTTTTTTTTTTTTTTTTTTT MOQGAD      TELAPSE       34.42 TCPU      783.69
 TTTTTTTTTTTTTTTTTTTTTTTTTTTTTT SHELLXN     TELAPSE       41.02 TCPU      993.98
 TTTTTTTTTTTTTTTTTTTTTTTTTTTTTT MONMO3      TELAPSE       41.16 TCPU      998.33
 NUMERICALLY INTEGRATED DENSITY    197.9999952105
 TTTTTTTTTTTTTTTTTTTTTTTTTTTTTT NUMDFT      TELAPSE       41.78 TCPU     1018.32
 CYC   3 ETOT(AU) -1.289104950858E+03 DETOT -9.56E-02 tst  7.24E-04 PX  6.49E-02
 TTTTTTTTTTTTTTTTTTTTTTTTTTTTTT DIIS        TELAPSE       41.84 TCPU     1020.23
 DIIS TEST: 0.13414E-01 AT SCF   CYCLE   3 - DIIS ACTIVE - HISTORY:     3 CYCLES
 TTTTTTTTTTTTTTTTTTTTTTTTTTTTTT FDIK        TELAPSE       42.34 TCPU     1035.98
 INSULATING STATE
 TOP OF VALENCE BANDS -    BAND     99; K    1; EIG -2.4308133E-01 AU
 BOTTOM OF VIRTUAL BANDS - BAND    100; K    1; EIG -8.7894262E-02 AU
 DIRECT ENERGY BAND GAP:   4.2229 eV
 TTTTTTTTTTTTTTTTTTTTTTTTTTTTTT PDIG        TELAPSE       42.71 TCPU     1042.22
 CHARGE NORMALIZATION FACTOR   1.00000000
 TOTAL ATOMIC CHARGES:
   4.5034292   4.5031838   4.5034421   4.5048596   4.5027898   4.5024661
   0.8688898   0.8692447   0.8700901   0.8703023   0.8672632   0.8672521
   0.8682358   0.8683229   0.8684049   0.8690229   0.8705014   0.8702801
   5.9416515   6.1732435   6.1717862   6.1649270   6.1643080   5.9387067
   5.9543538   6.1631972   6.1621832   6.1661580   6.1630422   5.9497340
   5.9405540   6.1707896   6.1723812   6.1650468   6.1647486   5.9413185
   8.4829790   8.4819774   8.4770602   8.4815531   8.4742389   8.4860808
 TTTTTTTTTTTTTTTTTTTTTTTTTTTTTT MOQGAD      TELAPSE       42.76 TCPU     1042.26
 TTTTTTTTTTTTTTTTTTTTTTTTTTTTTT SHELLXN     TELAPSE       49.36 TCPU     1252.67
 TTTTTTTTTTTTTTTTTTTTTTTTTTTTTT MONMO3      TELAPSE       49.50 TCPU     1257.03
 NUMERICALLY INTEGRATED DENSITY    197.9999948453
 TTTTTTTTTTTTTTTTTTTTTTTTTTTTTT NUMDFT      TELAPSE       50.12 TCPU     1277.01
 CYC   4 ETOT(AU) -1.289107763225E+03 DETOT -2.81E-03 tst  3.53E-05 PX  1.39E-02
 TTTTTTTTTTTTTTTTTTTTTTTTTTTTTT DIIS        TELAPSE       50.18 TCPU     1278.92
 DIIS TEST: 0.38800E-02 AT SCF   CYCLE   4 - DIIS ACTIVE - HISTORY:     4 CYCLES
 TTTTTTTTTTTTTTTTTTTTTTTTTTTTTT FDIK        TELAPSE       50.67 TCPU     1294.56
 INSULATING STATE
 TOP OF VALENCE BANDS -    BAND     99; K    1; EIG -2.4154517E-01 AU
 BOTTOM OF VIRTUAL BANDS - BAND    100; K    1; EIG -8.7687183E-02 AU
 DIRECT ENERGY BAND GAP:   4.1867 eV
 TTTTTTTTTTTTTTTTTTTTTTTTTTTTTT PDIG        TELAPSE       51.00 TCPU     1300.75
 CHARGE NORMALIZATION FACTOR   1.00000000
 TOTAL ATOMIC CHARGES:
   4.5071597   4.5052939   4.5055787   4.5072212   4.5053103   4.5062278
   0.8721559   0.8721008   0.8729141   0.8729188   0.8698202   0.8694826
   0.8708283   0.8703750   0.8713033   0.8721297   0.8731103   0.8729209
   5.9210197   6.1712554   6.1714549   6.1663506   6.1666566   5.9219772
   5.9278454   6.1649822   6.1659606   6.1679189   6.1676852   5.9290723
   5.9222884   6.1700747   6.1710662   6.1674865   6.1669472   5.9215291
   8.4908760   8.4900145   8.4900721   8.4893117   8.4880867   8.4932163
 TTTTTTTTTTTTTTTTTTTTTTTTTTTTTT MOQGAD      TELAPSE       51.04 TCPU     1300.80
 TTTTTTTTTTTTTTTTTTTTTTTTTTTTTT SHELLXN     TELAPSE       57.65 TCPU     1511.18
 TTTTTTTTTTTTTTTTTTTTTTTTTTTTTT MONMO3      TELAPSE       57.79 TCPU     1515.54
 NUMERICALLY INTEGRATED DENSITY    197.9999950414
 TTTTTTTTTTTTTTTTTTTTTTTTTTTTTT NUMDFT      TELAPSE       58.41 TCPU     1535.53
 CYC   5 ETOT(AU) -1.289108652452E+03 DETOT -8.89E-04 tst  6.57E-06 PX  7.17E-03
 TTTTTTTTTTTTTTTTTTTTTTTTTTTTTT DIIS        TELAPSE       58.48 TCPU     1537.75
 DIIS TEST: 0.75984E-04 AT SCF   CYCLE   5 - DIIS ACTIVE - HISTORY:     5 CYCLES
 TTTTTTTTTTTTTTTTTTTTTTTTTTTTTT FDIK        TELAPSE       58.98 TCPU     1553.44
 INSULATING STATE
 TOP OF VALENCE BANDS -    BAND     99; K    1; EIG -2.4138611E-01 AU
 BOTTOM OF VIRTUAL BANDS - BAND    100; K    1; EIG -8.7104818E-02 AU
 DIRECT ENERGY BAND GAP:   4.1982 eV
 TTTTTTTTTTTTTTTTTTTTTTTTTTTTTT PDIG        TELAPSE       59.31 TCPU     1559.63
 CHARGE NORMALIZATION FACTOR   1.00000000
 TOTAL ATOMIC CHARGES:
   4.5059729   4.5054083   4.5056908   4.5072150   4.5052630   4.5049781
   0.8728506   0.8731026   0.8736966   0.8738977   0.8706212   0.8706027
   0.8715904   0.8715524   0.8722239   0.8729040   0.8740545   0.8737610
   5.9227997   6.1716921   6.1705602   6.1661370   6.1654207   5.9206008
   5.9301655   6.1653979   6.1644421   6.1683861   6.1659004   5.9268985
   5.9217787   6.1696848   6.1710762   6.1663770   6.1664349   5.9224737
   8.4910697   8.4901921   8.4880880   8.4897300   8.4853614   8.4939469
 TTTTTTTTTTTTTTTTTTTTTTTTTTTTTT MOQGAD      TELAPSE       59.35 TCPU     1559.67
 TTTTTTTTTTTTTTTTTTTTTTTTTTTTTT SHELLXN     TELAPSE       65.95 TCPU     1769.97
 TTTTTTTTTTTTTTTTTTTTTTTTTTTTTT MONMO3      TELAPSE       66.09 TCPU     1774.33
 NUMERICALLY INTEGRATED DENSITY    197.9999950256
 TTTTTTTTTTTTTTTTTTTTTTTTTTTTTT NUMDFT      TELAPSE       66.71 TCPU     1794.33
 CYC   6 ETOT(AU) -1.289108671265E+03 DETOT -1.88E-05 tst  2.15E-07 PX  1.43E-03
 TTTTTTTTTTTTTTTTTTTTTTTTTTTTTT DIIS        TELAPSE       66.78 TCPU     1796.57
 DIIS TEST: 0.15998E-04 AT SCF   CYCLE   6 - DIIS ACTIVE - HISTORY:     6 CYCLES
 TTTTTTTTTTTTTTTTTTTTTTTTTTTTTT FDIK        TELAPSE       67.27 TCPU     1812.20
 INSULATING STATE
 TOP OF VALENCE BANDS -    BAND     99; K    1; EIG -2.4138185E-01 AU
 BOTTOM OF VIRTUAL BANDS - BAND    100; K    1; EIG -8.7186485E-02 AU
 DIRECT ENERGY BAND GAP:   4.1959 eV
 TTTTTTTTTTTTTTTTTTTTTTTTTTTTTT PDIG        TELAPSE       67.60 TCPU     1818.38
 CHARGE NORMALIZATION FACTOR   1.00000000
 TOTAL ATOMIC CHARGES:
   4.5065333   4.5052760   4.5055701   4.5071835   4.5052460   4.5055546
   0.8729664   0.8729777   0.8737864   0.8738216   0.8706882   0.8704099
   0.8716847   0.8713311   0.8721617   0.8729553   0.8740075   0.8738114
   5.9216696   6.1708433   6.1707539   6.1656214   6.1658227   5.9220280
   5.9288673   6.1643752   6.1650360   6.1673417   6.1665977   5.9291318
   5.9225629   6.1694691   6.1705910   6.1666553   6.1661151   5.9220020
   8.4907070   8.4898054   8.4889236   8.4891466   8.4868253   8.4931427
 TTTTTTTTTTTTTTTTTTTTTTTTTTTTTT MOQGAD      TELAPSE       67.65 TCPU     1818.43
 TTTTTTTTTTTTTTTTTTTTTTTTTTTTTT SHELLXN     TELAPSE       74.26 TCPU     2028.74
 TTTTTTTTTTTTTTTTTTTTTTTTTTTTTT MONMO3      TELAPSE       74.39 TCPU     2033.10
 NUMERICALLY INTEGRATED DENSITY    197.9999950253
 TTTTTTTTTTTTTTTTTTTTTTTTTTTTTT NUMDFT      TELAPSE       75.02 TCPU     2053.12
 CYC   7 ETOT(AU) -1.289108674197E+03 DETOT -2.93E-06 tst  7.61E-08 PX  5.63E-04
 TTTTTTTTTTTTTTTTTTTTTTTTTTTTTT DIIS        TELAPSE       75.10 TCPU     2055.73
 DIIS TEST: 0.19398E-05 AT SCF   CYCLE   7 - DIIS ACTIVE - HISTORY:     7 CYCLES
 TTTTTTTTTTTTTTTTTTTTTTTTTTTTTT FDIK        TELAPSE       75.60 TCPU     2071.60
 INSULATING STATE
 TOP OF VALENCE BANDS -    BAND     99; K    1; EIG -2.4138486E-01 AU
 BOTTOM OF VIRTUAL BANDS - BAND    100; K    1; EIG -8.7209067E-02 AU
 DIRECT ENERGY BAND GAP:   4.1953 eV
 TTTTTTTTTTTTTTTTTTTTTTTTTTTTTT PDIG        TELAPSE       75.94 TCPU     2077.80
 CHARGE NORMALIZATION FACTOR   1.00000000
 TOTAL ATOMIC CHARGES:
   4.5065911   4.5053653   4.5056521   4.5072393   4.5052975   4.5056213
   0.8728936   0.8729817   0.8737178   0.8738204   0.8706119   0.8704293
   0.8716075   0.8713511   0.8721437   0.8729053   0.8739976   0.8737526
   5.9220541   6.1710800   6.1706586   6.1658059   6.1656122   5.9214970
   5.9293192   6.1647012   6.1647622   6.1676410   6.1663531   5.9284050
   5.9222362   6.1695166   6.1706875   6.1664919   6.1662533   5.9221742
   8.4907494   8.4898836   8.4889149   8.4892962   8.4865696   8.4933580
 TTTTTTTTTTTTTTTTTTTTTTTTTTTTTT MOQGAD      TELAPSE       75.98 TCPU     2077.84
 TTTTTTTTTTTTTTTTTTTTTTTTTTTTTT SHELLXN     TELAPSE       82.59 TCPU     2288.23
 TTTTTTTTTTTTTTTTTTTTTTTTTTTTTT MONMO3      TELAPSE       82.73 TCPU     2292.58
 NUMERICALLY INTEGRATED DENSITY    197.9999950253
 TTTTTTTTTTTTTTTTTTTTTTTTTTTTTT NUMDFT      TELAPSE       83.36 TCPU     2312.60
 CYC   8 ETOT(AU) -1.289108674518E+03 DETOT -3.20E-07 tst  8.67E-09 PX  1.69E-04
 TTTTTTTTTTTTTTTTTTTTTTTTTTTTTT DIIS        TELAPSE       83.44 TCPU     2315.19
 DIIS TEST: 0.90039E-07 AT SCF   CYCLE   8 - DIIS ACTIVE - HISTORY:     8 CYCLES
 TTTTTTTTTTTTTTTTTTTTTTTTTTTTTT FDIK        TELAPSE       83.93 TCPU     2330.90
 INSULATING STATE
 TOP OF VALENCE BANDS -    BAND     99; K    1; EIG -2.4138916E-01 AU
 BOTTOM OF VIRTUAL BANDS - BAND    100; K    1; EIG -8.7201412E-02 AU
 DIRECT ENERGY BAND GAP:   4.1957 eV
 TTTTTTTTTTTTTTTTTTTTTTTTTTTTTT PDIG        TELAPSE       84.26 TCPU     2337.10
 CHARGE NORMALIZATION FACTOR   1.00000000
 TOTAL ATOMIC CHARGES:
   4.5065353   4.5053744   4.5056602   4.5072489   4.5053075   4.5055618
   0.8728913   0.8729697   0.8737181   0.8737986   0.8706179   0.8704115
   0.8716076   0.8713400   0.8721361   0.8728986   0.8739769   0.8737533
   5.9219302   6.1710858   6.1707069   6.1657676   6.1657124   5.9215888
   5.9291516   6.1646732   6.1648820   6.1676477   6.1664242   5.9284504
   5.9222940   6.1695360   6.1707284   6.1665827   6.1662129   5.9220848
   8.4908180   8.4899264   8.4887826   8.4893216   8.4865091   8.4933748
 TTTTTTTTTTTTTTTTTTTTTTTTTTTTTT MOQGAD      TELAPSE       84.31 TCPU     2337.14
 TTTTTTTTTTTTTTTTTTTTTTTTTTTTTT SHELLXN     TELAPSE       90.92 TCPU     2547.50
 +++ ENERGIES IN A.U. +++
 ::: EXT EL-POLE                                  -1.4068109683079E+03
 ::: EXT EL-SPHEROPOLE                             1.5453535733528E+01
 ::: BIELET ZONE E-E                               2.0625882860137E+03
 ::: TOTAL E-E                                     6.7123085343931E+02
 ::: TOTAL E-N + N-E                              -3.1699260256664E+03
 ::: TOTAL N-N                                     6.3373995173738E+01
 ::: KINETIC ENERGY                                1.2799276837510E+03
 ::: PSEUDO TOTAL   ENERGY                        -1.1553934933023E+03
 ::: VIRIAL COEFFICIENT                            1.0511366597647E+00
 TTTTTTTTTTTTTTTTTTTTTTTTTTTTTT MONMO3      TELAPSE       91.05 TCPU     2551.86
 NUMERICALLY INTEGRATED DENSITY    197.9999950252
 EXCHANGE ENERGY: -0.126024040918E+03  CORRELATION ENERGY: -0.769114035898E+01
 TTTTTTTTTTTTTTTTTTTTTTTTTTTTTT NUMDFT      TELAPSE       91.68 TCPU     2571.86
 CYC   9 ETOT(AU) -1.289108674580E+03 DETOT -6.21E-08 tst  3.77E-10 PX  1.69E-04

 == SCF ENDED - CONVERGENCE ON ENERGY      E(AU) -1.2891086745796E+03 CYCLES   9


 ENERGY EXPRESSION=HARTREE+FOCK EXCH*0.00000+(HSESOL     EXCH)*1.00000+PBESOL     CORR


 TOTAL ENERGY(DFT)(AU)(  9) -1.2891086745796E+03 DE-6.2E-08 tester 3.8E-10
 TTTTTTTTTTTTTTTTTTTTTTTTTTTTTT EDFT        TELAPSE       91.68 TCPU     2571.87
 
 INFORMATION **** DFTD3 ENERGY **** CALCULATE DFTD3 ENERGY

           DFT-D V3(BJ)
 DF                                         hsesol3c  
 parameters
 s6       :    1.0000
 s8       :    0.0000
 a1       :    0.5196
 a2       :    4.9385
 k1 k3    :   16.0000   -4.0000
 Cutoff   :   50.2022
 CN-Cutoff:   21.1671
 ABC-Cutoff:   21.1671
 
 Edisp /kcal,au:   -24.6773 -0.03932576

 E6    /kcal :   -26.0552
 E8    /kcal :     0.0000
 E6(ABC) "   :   1.377931
 
 INFORMATION **** DFTD3 ENERGY **** NORMAL TERMINATION OF DFTD3 MODULE

 GCP ENERGY CALCULATION
  level        hsesol3c            basis:hsesol3c
  Nbf            474
  Atoms           42

  Parameters: 
  sigma     1.0000
  eta       1.4281
  alpha     0.2936
  beta      1.9467

  dmp_scal      4.0000
  dmp_exp       6.0000
 cutoffs: 
   distance [bohr] 60.0
   noise    [a.u.] 2.2E-16
 SR-damping   T
 ** gCP correction **
  Egcp:        0.0830810141 / (a.u.) ||      52.1341 / (kcal/mol)
 INFORMATION **** GCP **** NORMAL TERMINATION OF GCP MODULE

 *******************************************************************************

 DFT-D3-GCP DISPERSION AND COUNTERPOISE CORRECTION

 D3 DISPERSION ENERGY (AU)      -3.9325760308368E-02
 GCP ENERGY (AU)                 8.3081014111871E-02
 TOTAL ENERGY + DISP + GCP (AU) -1.2890649193258E+03

 *******************************************************************************

 EIGENVECTORS IN FORTRAN UNIT 10
 TTTTTTTTTTTTTTTTTTTTTTTTTTTTTT END         TELAPSE       93.46 TCPU     2579.63
 EEEEEEEEEE TERMINATION  DATE 02 12 2025 TIME 08:03:31.0
