 Default number of threads is:           32

         
 *******************************************************************************
 *                                                                             *
 *                               CRYSTAL23                                     *
 *                      public : 1.0.1 - October 2022                          *
 *                       HTTP://WWW.CRYSTAL.UNITO.IT                           *
 *                                                                             *
 *                              MAIN AUTHORS                                   *
 *                                                                             *
 *  R. DOVESI(1,11), V.R. SAUNDERS(2), C. ROETTI(1,11), R. ORLANDO(1,11),      *
 *  C.M. ZICOVICH-WILSON(1,3), F. PASCALE(4), B. CIVALLERI(1,11),              *
 *  K. DOLL(5), N.M. HARRISON(6), I.J. BUSH(7), Ph. D'ARCO(8),                 *
 *  M. LLUNELL(9), M. CAUSA'(10), Y. NOEL(8), L. MASCHIO(1,11), A. ERBA(1,11)  *
 *  M. RE'RAT(14), S. CASASSA(1,11), B.G. SEARLE(2), J.K. DESMARAIS(1)         *
 *                                                                             *
 *        CONTRIBUTIONS TO THE CODE HAVE ALSO BEEN GIVEN BY                    *
 *                                                                             *
 *  M. FERRABONE(1,11), M. DE LA PIERRE(1,11), M. FERRERO(1,11),               *
 *  J. BAIMA(1,11), E. ALBANESE(1,11), M.F. PEINTINGER(12), R. BAST(13),       *
 *  B. KIRTMAN(15), V. LACIVITA(1,11), R. DEMICHELIS(1,16)                     *
 *  G. BRANDEBURG(17), S. SALUSTRO(1,11), G. SANSONE(1,11)                     *
 *  M.T. RUGGIERO(18), L.E. DAGA(1), L. DONA'(1), A. COSSARD(1)                *
 *                                                                             *
 * (1) THEORETICAL CHEMISTRY GROUP - UNIVERSITA' DI TORINO - TORINO (ITALY)    *
 * (2) SCIENTIFIC COMPUTING DEPARTMENT - STFC DARESBURY (UK)                   *
 * (3) UNIVERSIDAD AUTONOMA DEL ESTADO DE MORELOS - CUERNAVACA (MEXICO)        *
 * (4) UNIVERSITE' DE LORRAINE - NANCY (FRANCE)                                *
 * (5) UNIVERSITAET STUTTGART- STUTTGART (GERMANY)                             *
 * (6) IMPERIAL COLLEGE - LONDON (UK)                                          *
 * (7) SCIENTIFIC COMPUTING DEPARTMENT - STFC RAL (UK)                         *
 * (8) UPMC - SORBONNE UNIVERSITES - PARIS (FRANCE)                            *
 * (9) UNIVERSIDAD DE BARCELONA - BARCELONA (SPAIN)                            *
 *(10) UNIVERSITA' DI NAPOLI "FEDERICO II" - NAPOLI (ITALY)                    *
 *(11) NIS - NANOSTRUCTURED INTERFACES AND SURFACES - TORINO (ITALY)           *
 *(12) MPI FUER CHEMISCHE ENERGIEKONVERSION - MUELHEIM AN DER RUHR (GERMANY)   *
 *(13) UNIVERSITY OF TROMSO - TROMSO (NORWAY)                                  *
 *(14) UNIVERSITE' DE PAU ET DES PAYS DE L'ADOUR - PAU (FRANCE)                *
 *(15) UNIVERSITY OF CALIFORNIA SANTA BARBARA - SANTA BARBARA (USA)            *
 *(16) CURTIN UNIVERSITY - PERTH (AUSTRALIA)                                   *
 *(17) UNIVERSITY COLLEGE LONDON - LONDON (UK)                                 *
 *(18) UNIVERSITY OF VERMONT - BURLINGTON (USA)                                *
 *                                                                             *
 *******************************************************************************
 EEEEEEEEEE STARTING  DATE 02 12 2025 TIME 08:05:10.8
 COF-5_z42_inc_L070                                                              

 CRYSTAL CALCULATION
 (INPUT ACCORDING TO THE INTERNATIONAL TABLES FOR X-RAY CRYSTALLOGRAPHY)
 CRYSTAL FAMILY                       :  TRICLINIC   
 CRYSTAL CLASS  (GROTH - 1921)        :  TRICLINIC PEDIAL                     

 SPACE GROUP (NONCENTROSYMMETRIC)     :  P 1             

 LATTICE PARAMETERS  (ANGSTROMS AND DEGREES) - CONVENTIONAL CELL
        A           B           C        ALPHA        BETA       GAMMA
    15.02070    15.04439     8.16333    42.08227    89.99963   120.05310


 NUMBER OF IRREDUCIBLE ATOMS IN THE CONVENTIONAL CELL:   42

 INPUT COORDINATES

 ATOM AT. N.              COORDINATES
   1   5     4.806316000000E-01 -4.103764000000E-02  5.006205300000E-01
   2   5     6.394083100000E-01  1.179837100000E-01  5.006305200000E-01
   3   5     4.805621400000E-01  1.184397500000E-01  4.992006400000E-01
   4   5     9.251230000000E-02  3.426688700000E-01  5.054152200000E-01
   5   5     2.499965900000E-01  3.399943600000E-01  5.094588400000E-01
   6   5     2.518775800000E-01  5.025395400000E-01  5.034936000000E-01
   7   1     7.683855200000E-01  3.834041000000E-02  5.045186700000E-01
   8   1    -3.404160000000E-02  4.264618600000E-01  4.929291000000E-01
   9   1     7.716134100000E-01  3.292367200000E-01  4.927908200000E-01
  10   1    -3.705878000000E-02  1.357860700000E-01  5.040872800000E-01
  11   1     4.584477700000E-01  6.321872200000E-01  5.042093300000E-01
  12   1     2.749095900000E-01 -1.672194800000E-01  4.945612200000E-01
  13   1     1.762169500000E-01  6.383662200000E-01  4.958679800000E-01
  14   1     5.570511900000E-01 -1.731222500000E-01  5.023481300000E-01
  15   1     4.597827800000E-01  4.229871000000E-01  4.977653300000E-01
  16   1     2.702392400000E-01  3.692156000000E-02  5.060479200000E-01
  17   1     1.729735700000E-01  1.330391600000E-01  5.056830700000E-01
  18   1     5.573225200000E-01  3.266261100000E-01  4.986987200000E-01
  19   6     7.587682200000E-01  1.775471800000E-01  5.003805400000E-01
  20   6     8.128162600000E-01  1.234213800000E-01  5.021465200000E-01
  21   6    -7.844302000000E-02  3.411940200000E-01  4.957540400000E-01
  22   6     8.144875900000E-01  2.874878800000E-01  4.960911800000E-01
  23   6    -7.997955000000E-02  1.773323400000E-01  5.015028500000E-01
  24   6    -2.488960000000E-02  2.861780000000E-01  4.993197300000E-01
  25   6     3.112806100000E-01  6.227927400000E-01  5.018619100000E-01
  26   6     4.190486700000E-01  6.770650500000E-01  5.022520600000E-01
  27   6     3.140117900000E-01 -2.125537000000E-01  4.969760400000E-01
  28   6     2.595918700000E-01  6.798897700000E-01  4.980946400000E-01
  29   6     4.735195200000E-01 -2.152957800000E-01  5.008147500000E-01
  30   6     4.212779700000E-01 -1.594294700000E-01  4.991906000000E-01
  31   6     3.113936000000E-01  2.847606900000E-01  4.999617700000E-01
  32   6     4.193914700000E-01  3.383121100000E-01  4.994103200000E-01
  33   6     3.113342800000E-01  1.218511700000E-01  5.039335500000E-01
  34   6     2.575967300000E-01  1.752235500000E-01  5.033256500000E-01
  35   6     4.729521200000E-01  2.847431900000E-01  5.003486200000E-01
  36   6     4.198626800000E-01  1.763523600000E-01  5.015903800000E-01
  37   8     4.277926100000E-01  1.233151000000E-02  4.995904800000E-01
  38   8     5.861458900000E-01  1.102151000000E-02  5.025803300000E-01
  39   8     5.869729100000E-01  1.721947500000E-01  4.980609100000E-01
  40   8     1.460757700000E-01  4.499756200000E-01  5.027269900000E-01
  41   8     1.438171700000E-01  2.868891500000E-01  5.102142400000E-01
  42   8     3.042178500000E-01  4.483573600000E-01  5.051985600000E-01

 *******************************************************************************

 << INFORMATION >>: FROM NOW ON, ALL COORDINATES REFER TO THE PRIMITIVE CELL

 *******************************************************************************

 LATTICE PARAMETERS  (ANGSTROMS AND DEGREES) - PRIMITIVE CELL
       A          B          C        ALPHA      BETA     GAMMA        VOLUME
   15.02070   15.04439    8.16333    42.08227  89.99963 120.05310    821.589758

 COORDINATES OF THE EQUIVALENT ATOMS (FRACTIONAL UNITS)

 N. ATOM EQUIV AT. N.          X                  Y                  Z

   1   1   1    5 B     4.80631600000E-01 -4.10376400000E-02 -4.99379470000E-01

   2   2   1    5 B    -3.60591690000E-01  1.17983710000E-01 -4.99369480000E-01

   3   3   1    5 B     4.80562140000E-01  1.18439750000E-01  4.99200640000E-01

   4   4   1    5 B     9.25123000000E-02  3.42668870000E-01 -4.94584780000E-01

   5   5   1    5 B     2.49996590000E-01  3.39994360000E-01 -4.90541160000E-01

   6   6   1    5 B     2.51877580000E-01 -4.97460460000E-01 -4.96506400000E-01

   7   7   1    1 H    -2.31614480000E-01  3.83404100000E-02 -4.95481330000E-01

   8   8   1    1 H    -3.40416000000E-02  4.26461860000E-01  4.92929100000E-01

   9   9   1    1 H    -2.28386590000E-01  3.29236720000E-01  4.92790820000E-01

  10  10   1    1 H    -3.70587800000E-02  1.35786070000E-01 -4.95912720000E-01

  11  11   1    1 H     4.58447770000E-01 -3.67812780000E-01 -4.95790670000E-01

  12  12   1    1 H     2.74909590000E-01 -1.67219480000E-01  4.94561220000E-01

  13  13   1    1 H     1.76216950000E-01 -3.61633780000E-01  4.95867980000E-01

  14  14   1    1 H    -4.42948810000E-01 -1.73122250000E-01 -4.97651870000E-01

  15  15   1    1 H     4.59782780000E-01  4.22987100000E-01  4.97765330000E-01

  16  16   1    1 H     2.70239240000E-01  3.69215600000E-02 -4.93952080000E-01

  17  17   1    1 H     1.72973570000E-01  1.33039160000E-01 -4.94316930000E-01

  18  18   1    1 H    -4.42677480000E-01  3.26626110000E-01  4.98698720000E-01

  19  19   1    6 C    -2.41231780000E-01  1.77547180000E-01 -4.99619460000E-01

  20  20   1    6 C    -1.87183740000E-01  1.23421380000E-01 -4.97853480000E-01

  21  21   1    6 C    -7.84430200000E-02  3.41194020000E-01  4.95754040000E-01

  22  22   1    6 C    -1.85512410000E-01  2.87487880000E-01  4.96091180000E-01

  23  23   1    6 C    -7.99795500000E-02  1.77332340000E-01 -4.98497150000E-01

  24  24   1    6 C    -2.48896000000E-02  2.86178000000E-01  4.99319730000E-01

  25  25   1    6 C     3.11280610000E-01 -3.77207260000E-01 -4.98138090000E-01

  26  26   1    6 C     4.19048670000E-01 -3.22934950000E-01 -4.97747940000E-01

  27  27   1    6 C     3.14011790000E-01 -2.12553700000E-01  4.96976040000E-01

  28  28   1    6 C     2.59591870000E-01 -3.20110230000E-01  4.98094640000E-01

  29  29   1    6 C     4.73519520000E-01 -2.15295780000E-01 -4.99185250000E-01

  30  30   1    6 C     4.21277970000E-01 -1.59429470000E-01  4.99190600000E-01

  31  31   1    6 C     3.11393600000E-01  2.84760690000E-01  4.99961770000E-01

  32  32   1    6 C     4.19391470000E-01  3.38312110000E-01  4.99410320000E-01

  33  33   1    6 C     3.11334280000E-01  1.21851170000E-01 -4.96066450000E-01

  34  34   1    6 C     2.57596730000E-01  1.75223550000E-01 -4.96674350000E-01

  35  35   1    6 C     4.72952120000E-01  2.84743190000E-01 -4.99651380000E-01

  36  36   1    6 C     4.19862680000E-01  1.76352360000E-01 -4.98409620000E-01

  37  37   1    8 O     4.27792610000E-01  1.23315100000E-02  4.99590480000E-01

  38  38   1    8 O    -4.13854110000E-01  1.10215100000E-02 -4.97419670000E-01

  39  39   1    8 O    -4.13027090000E-01  1.72194750000E-01  4.98060910000E-01

  40  40   1    8 O     1.46075770000E-01  4.49975620000E-01 -4.97273010000E-01

  41  41   1    8 O     1.43817170000E-01  2.86889150000E-01 -4.89785760000E-01

  42  42   1    8 O     3.04217850000E-01  4.48357360000E-01 -4.94801440000E-01

 NUMBER OF SYMMETRY OPERATORS         :    1
 *******************************************************************************
 * GEOMETRY EDITING - INPUT COORDINATES ARE GIVEN IN ANGSTROM         
 *******************************************************************************

 GCALCO - MAX INDICES DIRECT LATTICE VECTOR     9    14    23
 NO.OF VECTORS CREATED 6999 STARS 3500 RMAX   216.45667 BOHR

 GEOMETRY FOR WAVE FUNCTION - DIMENSIONALITY OF THE SYSTEM    3
 (NON PERIODIC DIRECTION: LATTICE PARAMETER FORMALLY SET TO 500)
 *******************************************************************************
 LATTICE PARAMETERS (ANGSTROMS AND DEGREES) - BOHR = 0.5291772083 ANGSTROM
 PRIMITIVE CELL - CENTRING CODE 1/0 VOLUME=   821.589758 - DENSITY  0.788 g/cm^3
         A              B              C           ALPHA      BETA       GAMMA 
    15.02070100    15.04438700     8.16333300    42.082269  89.999633 120.053104
 *******************************************************************************
 ATOMS IN THE ASYMMETRIC UNIT   42 - ATOMS IN THE UNIT CELL:   42
     ATOM                 X/A                 Y/B                 Z/C    
 *******************************************************************************
      1 T   5 B     4.806316000000E-01 -4.103764000000E-02 -4.993794700000E-01
      2 T   5 B    -3.605916900000E-01  1.179837100000E-01 -4.993694800000E-01
      3 T   5 B     4.805621400000E-01  1.184397500000E-01  4.992006400000E-01
      4 T   5 B     9.251230000000E-02  3.426688700000E-01 -4.945847800000E-01
      5 T   5 B     2.499965900000E-01  3.399943600000E-01 -4.905411600000E-01
      6 T   5 B     2.518775800000E-01 -4.974604600000E-01 -4.965064000000E-01
      7 T   1 H    -2.316144800000E-01  3.834041000000E-02 -4.954813300000E-01
      8 T   1 H    -3.404160000000E-02  4.264618600000E-01  4.929291000000E-01
      9 T   1 H    -2.283865900000E-01  3.292367200000E-01  4.927908200000E-01
     10 T   1 H    -3.705878000000E-02  1.357860700000E-01 -4.959127200000E-01
     11 T   1 H     4.584477700000E-01 -3.678127800000E-01 -4.957906700000E-01
     12 T   1 H     2.749095900000E-01 -1.672194800000E-01  4.945612200000E-01
     13 T   1 H     1.762169500000E-01 -3.616337800000E-01  4.958679800000E-01
     14 T   1 H    -4.429488100000E-01 -1.731222500000E-01 -4.976518700000E-01
     15 T   1 H     4.597827800000E-01  4.229871000000E-01  4.977653300000E-01
     16 T   1 H     2.702392400000E-01  3.692156000000E-02 -4.939520800000E-01
     17 T   1 H     1.729735700000E-01  1.330391600000E-01 -4.943169300000E-01
     18 T   1 H    -4.426774800000E-01  3.266261100000E-01  4.986987200000E-01
     19 T   6 C    -2.412317800000E-01  1.775471800000E-01 -4.996194600000E-01
     20 T   6 C    -1.871837400000E-01  1.234213800000E-01 -4.978534800000E-01
     21 T   6 C    -7.844302000000E-02  3.411940200000E-01  4.957540400000E-01
     22 T   6 C    -1.855124100000E-01  2.874878800000E-01  4.960911800000E-01
     23 T   6 C    -7.997955000000E-02  1.773323400000E-01 -4.984971500000E-01
     24 T   6 C    -2.488960000000E-02  2.861780000000E-01  4.993197300000E-01
     25 T   6 C     3.112806100000E-01 -3.772072600000E-01 -4.981380900000E-01
     26 T   6 C     4.190486700000E-01 -3.229349500000E-01 -4.977479400000E-01
     27 T   6 C     3.140117900000E-01 -2.125537000000E-01  4.969760400000E-01
     28 T   6 C     2.595918700000E-01 -3.201102300000E-01  4.980946400000E-01
     29 T   6 C     4.735195200000E-01 -2.152957800000E-01 -4.991852500000E-01
     30 T   6 C     4.212779700000E-01 -1.594294700000E-01  4.991906000000E-01
     31 T   6 C     3.113936000000E-01  2.847606900000E-01  4.999617700000E-01
     32 T   6 C     4.193914700000E-01  3.383121100000E-01  4.994103200000E-01
     33 T   6 C     3.113342800000E-01  1.218511700000E-01 -4.960664500000E-01
     34 T   6 C     2.575967300000E-01  1.752235500000E-01 -4.966743500000E-01
     35 T   6 C     4.729521200000E-01  2.847431900000E-01 -4.996513800000E-01
     36 T   6 C     4.198626800000E-01  1.763523600000E-01 -4.984096200000E-01
     37 T   8 O     4.277926100000E-01  1.233151000000E-02  4.995904800000E-01
     38 T   8 O    -4.138541100000E-01  1.102151000000E-02 -4.974196700000E-01
     39 T   8 O    -4.130270900000E-01  1.721947500000E-01  4.980609100000E-01
     40 T   8 O     1.460757700000E-01  4.499756200000E-01 -4.972730100000E-01
     41 T   8 O     1.438171700000E-01  2.868891500000E-01 -4.897857600000E-01
     42 T   8 O     3.042178500000E-01  4.483573600000E-01 -4.948014400000E-01

 T = ATOM BELONGING TO THE ASYMMETRIC UNIT

 ****    1 SYMMOPS - TRANSLATORS IN FRACTIONAL UNITS
 **** MATRICES AND TRANSLATORS IN THE CRYSTALLOGRAPHIC REFERENCE FRAME
   V INV                    ROTATION MATRICES                   TRANSLATORS
   1   1  1.00  0.00  0.00  0.00  1.00  0.00  0.00  0.00  1.00  0.00  0.00  0.00

 DIRECT LATTICE VECTORS CARTESIAN COMPONENTS (ANGSTROM)
          X                    Y                    Z
   0.130013421718E+02  -0.752240388864E+01   0.000000000000E+00
   0.000000000000E+00   0.150443870000E+02   0.000000000000E+00
   0.350553753532E+01   0.605868924998E+01   0.420041626860E+01


 CARTESIAN COORDINATES - PRIMITIVE CELL
 *******************************************************************************
 *      ATOM          X(ANGSTROM)         Y(ANGSTROM)         Z(ANGSTROM)
 *******************************************************************************
    1     5 B     9.927248783979E-01  1.727221568899E+00 -6.298017918598E+00
    2     5 B    -6.438734402120E+00  1.461984423760E+00 -2.097559687836E+00
    3     5 B    -1.497885238342E+00 -2.719213857138E-01  6.297266758157E+00
    4     5 B    -5.310014432889E-01  1.462792718076E+00 -2.077461956116E+00
    5     5 B     1.530680759369E+00  2.623949561294E-01 -2.060477068884E+00
    6     5 B     1.534224781253E+00  2.657496447082E+00 -2.085533560026E+00
    7     1 H    -4.748227506781E+00 -6.828617768403E-01 -2.081227839321E+00
    8     1 H    -2.220142562692E+00  3.599746915988E+00 -2.129908857695E+00
    9     1 H    -1.241835487465E+00 -5.387539753357E+00  2.069926577346E+00
   10     1 H    -2.220254533450E+00 -6.829917685229E-01 -2.083039856895E+00
   11     1 H     4.222423522312E+00  3.058398303778E+00 -2.082527196090E+00
   12     1 H     5.307896566114E+00 -1.587302792829E+00  2.077362994308E+00
   13     1 H     5.238031445510E-01  5.223874141338E+00 -2.117564338332E+00
   14     1 H    -3.997928817879E+00  3.771092938481E+00  2.110071257755E+00
   15     1 H     4.217190760247E+00 -1.379739398912E-01 -2.109594678525E+00
   16     1 H     1.781905270392E+00 -4.470088629657E+00 -2.074804352742E+00
   17     1 H     5.160420177854E-01 -2.294597116279E+00 -2.076336874618E+00
   18     1 H    -4.007194307444E+00 -3.779038026046E+00  2.094742216620E+00
   19     6 C    -4.887771684891E+00  1.458692315232E+00 -2.098609707895E+00
   20     6 C    -4.178883913961E+00  2.485311711195E-01 -2.091191856773E+00
   21     6 C    -2.787517683819E+00  2.668065380453E+00 -2.118042933762E+00
   22     6 C    -4.178381602408E+00  2.667551248201E+00 -2.116626805421E+00
   23     6 C    -2.787341966868E+00  2.492555046568E-01 -2.093895538712E+00
   24     6 C    -2.078751685796E+00  1.459136037187E+00 -2.103065551477E+00
   25     6 C     2.300823949782E+00  4.009892639339E+00 -2.092387337247E+00
   26     6 C     3.703321058500E+00  4.018075198358E+00 -2.090748544840E+00
   27     6 C     5.824742890135E+00 -2.548840240212E+00  2.087506243522E+00
   28     6 C     1.615594648224E+00  5.234881315734E+00 -2.108211439443E+00
   29     6 C     9.009391382650E-01 -8.397086702862E-01 -6.297202113750E+00
   30     6 C     3.721572887660E+00  6.442596786319E+00 -2.103607951230E+00
   31     6 C     2.295631959342E+00 -1.087954653471E+00 -2.100368716216E+00
   32     6 C     3.697816092361E+00 -1.098051028032E+00 -2.102685035767E+00
   33     6 C     2.308783943596E+00 -3.514318508547E+00 -2.083685586888E+00
   34     6 C     1.607992652306E+00 -2.310811290825E+00 -2.086239019938E+00
   35     6 C     4.397465675823E+00 -2.301182565399E+00 -2.098743785182E+00
   36     6 C     3.711584736965E+00 -3.524972511305E+00 -2.093527876276E+00
   37     8 O    -2.182593355363E+00 -1.468939175072E+00  6.298904248435E+00
   38     8 O     2.371422419161E+00  1.728572282179E+00 -6.289785942795E+00
   39     8 O    -1.183977731054E-01 -2.705804224691E-01  6.292479417723E+00
   40     8 O     1.559718669201E-01  2.657943787568E+00 -2.088753641141E+00
   41     8 O     1.528538714022E-01  2.667608409343E-01 -2.057304074434E+00
   42     8 O     2.220695342162E+00  1.458963934901E+00 -2.078372018304E+00

 *******************************************************************************
 STARTING BASIS SET HANDLING 
 *******************************************************************************

 Loading internal basis set: SOLDEF2MSVP         

 Please cite in your publication:
 L. Dona', J. G. Brandenburg and B. Civalleri, J. Chem. Phys., 151, 121101 (2019
 )                                                                              
                                                                                
                    

 *******************************************************************************
 LOCAL ATOMIC FUNCTIONS BASIS SET
 *******************************************************************************
   ATOM   X(AU)   Y(AU)   Z(AU)  N. TYPE  EXPONENT  S COEF   P COEF   D/F/G COEF
 *******************************************************************************
   1 B    1.876   3.264 -11.902
                                  1 S  
                                         2.410E+03 1.755E-03 0.000E+00 0.000E+00
                                         3.619E+02 1.344E-02 0.000E+00 0.000E+00
                                         8.231E+01 6.637E-02 0.000E+00 0.000E+00
                                         2.311E+01 2.303E-01 0.000E+00 0.000E+00
                                         7.252E+00 5.150E-01 0.000E+00 0.000E+00
                                  2 S  
                                         2.367E+00 1.000E+00 0.000E+00 0.000E+00
                                  3 S  
                                         5.533E-01 1.000E+00 0.000E+00 0.000E+00
                                  4 S  
                                         1.716E-01 1.000E+00 0.000E+00 0.000E+00
                           5-     7 P  
                                         6.002E+00 0.000E+00-3.555E-02 0.000E+00
                                         1.240E+00 0.000E+00-1.983E-01 0.000E+00
                                         3.367E-01 0.000E+00-5.048E-01 0.000E+00
                           8-    10 P  
                                         1.256E-01 0.000E+00 1.000E+00 0.000E+00
                          11-    15 D  
                                         8.880E-01 0.000E+00 0.000E+00 1.000E+00
   2 B  -12.167   2.763  -3.964
   3 B   -2.831  -0.514  11.900
   4 B   -1.003   2.764  -3.926
   5 B    2.893   0.496  -3.894
   6 B    2.899   5.022  -3.941
   7 H   -8.973  -1.290  -3.933
                                 91 S  
                                         1.874E+01 1.968E-02 0.000E+00 0.000E+00
                                         2.826E+00 1.380E-01 0.000E+00 0.000E+00
                                         6.401E-01 4.783E-01 0.000E+00 0.000E+00
                                 92 S  
                                         1.756E-01 1.000E+00 0.000E+00 0.000E+00
   8 H   -4.195   6.803  -4.025
   9 H   -2.347 -10.181   3.912
  10 H   -4.196  -1.291  -3.936
  11 H    7.979   5.780  -3.935
  12 H   10.030  -3.000   3.926
  13 H    0.990   9.872  -4.002
  14 H   -7.555   7.126   3.987
  15 H    7.969  -0.261  -3.987
  16 H    3.367  -8.447  -3.921
  17 H    0.975  -4.336  -3.924
  18 H   -7.572  -7.141   3.958
  19 C   -9.237   2.757  -3.966
                                115 S  
                                         3.624E+03 1.634E-03 0.000E+00 0.000E+00
                                         5.440E+02 1.252E-02 0.000E+00 0.000E+00
                                         1.237E+02 6.211E-02 0.000E+00 0.000E+00
                                         3.476E+01 2.182E-01 0.000E+00 0.000E+00
                                         1.093E+01 4.980E-01 0.000E+00 0.000E+00
                                116 S  
                                         3.574E+00 1.000E+00 0.000E+00 0.000E+00
                                117 S  
                                         7.742E-01 1.000E+00 0.000E+00 0.000E+00
                                118 S  
                                         2.330E-01 1.000E+00 0.000E+00 0.000E+00
                         119-   121 P  
                                         9.443E+00 0.000E+00 3.790E-02 0.000E+00
                                         2.002E+00 0.000E+00 2.082E-01 0.000E+00
                                         5.463E-01 0.000E+00 5.047E-01 0.000E+00
                         122-   124 P  
                                         1.820E-01 0.000E+00 1.000E+00 0.000E+00
                         125-   129 D  
                                         8.880E-01 0.000E+00 0.000E+00 1.000E+00
  20 C   -7.897   0.470  -3.952
  21 C   -5.268   5.042  -4.003
  22 C   -7.896   5.041  -4.000
  23 C   -5.267   0.471  -3.957
  24 C   -3.928   2.757  -3.974
  25 C    4.348   7.578  -3.954
  26 C    6.998   7.593  -3.951
  27 C   11.007  -4.817   3.945
  28 C    3.053   9.892  -3.984
  29 C    1.703  -1.587 -11.900
  30 C    7.033  12.175  -3.975
  31 C    4.338  -2.056  -3.969
  32 C    6.988  -2.075  -3.973
  33 C    4.363  -6.641  -3.938
  34 C    3.039  -4.367  -3.942
  35 C    8.310  -4.349  -3.966
  36 C    7.014  -6.661  -3.956
  37 O   -4.125  -2.776  11.903
                                385 S  
                                         6.773E+03 1.727E-03 0.000E+00 0.000E+00
                                         1.017E+03 1.325E-02 0.000E+00 0.000E+00
                                         2.313E+02 6.603E-02 0.000E+00 0.000E+00
                                         6.501E+01 2.353E-01 0.000E+00 0.000E+00
                                         2.050E+01 5.498E-01 0.000E+00 0.000E+00
                                386 S  
                                         6.716E+00 1.000E+00 0.000E+00 0.000E+00
                                387 S  
                                         1.147E+00 1.000E+00 0.000E+00 0.000E+00
                                388 S  
                                         3.342E-01 1.000E+00 0.000E+00 0.000E+00
                         389-   391 P  
                                         1.769E+01 0.000E+00 4.359E-02 0.000E+00
                                         3.854E+00 0.000E+00 2.318E-01 0.000E+00
                                         1.047E+00 0.000E+00 5.146E-01 0.000E+00
                         392-   394 P  
                                         2.759E-01 0.000E+00 1.000E+00 0.000E+00
                         395-   399 D  
                                         8.000E-01 0.000E+00 0.000E+00 1.000E+00
  38 O    4.481   3.267 -11.886
  39 O   -0.224  -0.511  11.891
  40 O    0.295   5.023  -3.947
  41 O    0.289   0.504  -3.888
  42 O    4.197   2.757  -3.928

 *******************************************************************************
 FINISHED BASIS SET HANDLING 
 *******************************************************************************

 INFORMATION **** SET_MPP **** PCRYSTAL CALCULATION
 INFORMATION **** READM2 **** NEW DEFAULT: FOCK/KS MATRIX MIXING SET TO 30 %
 INFORMATION **** READM2 **** NEW DEFAULT: FULL DIRECT SCF MODE
 INFORMATION **** READM2 **** NEW DEFAULT: COULOMB BIPOLAR BUFFER SET TO 32 Mb
 INFORMATION **** READM2 **** NEW DEFAULT: EXCHANGE BIPOLAR BUFFER SET TO 32 Mb

 *******************************************************************************
 NEW DEFAULT: DFT INTEGRATION GRID INCREASED TO XLGRID
 NEW DEFAULT: DIIS ACCELERATOR ACTIVE
 USE KEYWORD NODIIS TO TURN IT OFF
 *******************************************************************************

 WARNING **** RDDFTP **** HSEsol-HJS ACTIVE
 RANGE SEPARATION - OMEGA:   0.110000000000000     
 WARNING **** RDDFTP **** HSEsol-3c has to be combined with sol-def2-mSVP basis set
 *******************************************************************************
 N. OF ATOMS PER CELL        42  COULOMB OVERLAP TOL         (T1) 10**   -6
 NUMBER OF SHELLS           234  COULOMB PENETRATION TOL     (T2) 10**   -6
 NUMBER OF AO               474  EXCHANGE OVERLAP TOL        (T3) 10**   -6
 N. OF ELECTRONS PER CELL   198  EXCHANGE PSEUDO OVP (F(G))  (T4) 10**   -6
 CORE ELECTRONS PER CELL     60  EXCHANGE PSEUDO OVP (P(G))  (T5) 10**  -12
 N. OF SYMMETRY OPERATORS     1  POLE ORDER IN MONO ZONE                  4
 *******************************************************************************
 TYPE OF CALCULATION :  RESTRICTED CLOSED SHELL
 KOHN-SHAM HAMILTONIAN

 (EXCHANGE)[CORRELATION] FUNCTIONAL:(HSEsol GGA)[PBEsol]

 RANGE-SEPARATED HYBRID FUNCTIONAL 
 OMEGA (SHORT-RANGE)[LONG-RANGE]:(    0.1100)[    0.0000]

 HYBRID EXCHANGE - PERCENTAGE OF FOCK EXCHANGE    25.0000

 CAPPA:IS1  2;IS2  2;IS3  8; K PTS MONK NET  20; SYMMOPS:K SPACE   2;G SPACE   1

 *******************************************************************************
 MAX NUMBER OF SCF CYCLES      50  CONVERGENCE ON DELTAP        10**-16
 WEIGHT OF F(I) IN F(I+1)      30% CONVERGENCE ON ENERGY        10**- 6
 SHRINK. FACT.(MONKH.)    2  2  8  NUMBER OF K POINTS IN THE IBZ     20
 SHRINKING FACTOR(GILAT NET)    8  NUMBER OF K POINTS(GILAT NET)   1028
 *******************************************************************************
 *** K POINTS COORDINATES (OBLIQUE COORDINATES IN UNITS OF IS =  2)
   1-R(  0  0  0)   2-R(  1  0  0)   3-R(  0  1  0)   4-R(  1  1  0)
   5-C(  0  0  1)   6-C(  1  0  1)   7-C(  0  1  1)   8-C(  1  1  1)
   9-C(  0  0  2)  10-C(  1  0  2)  11-C(  0  1  2)  12-C(  1  1  2)
  13-C(  0  0  3)  14-C(  1  0  3)  15-C(  0  1  3)  16-C(  1  1  3)
  17-R(  0  0  4)  18-R(  1  0  4)  19-R(  0  1  4)  20-R(  1  1  4)

 DIRECT LATTICE VECTORS COMPON. (A.U.)     RECIP. LATTICE VECTORS COMPON. (A.U.) 
        X            Y            Z              X            Y            Z
   24.5689761  -14.2152832    0.0000000      0.2557366    0.0000000   -0.2134298
    0.0000000   28.4297713    0.0000000      0.1278719    0.2210072   -0.4254992
    6.6245059   11.4492634    7.9376364      0.0000000    0.0000000    0.7915688

 DISK SPACE FOR EIGENVECTORS (FTN 10)     7189632 REALS

 SYMMETRY ADAPTION OF THE BLOCH FUNCTIONS DISABLED
 TTTTTTTTTTTTTTTTTTTTTTTTTTTTTT gordsh1     TELAPSE        0.04 TCPU        0.04

 MATRIX SIZE: P(G)  281386, F(G)   56109, P(G) IRR  141752, F(G) IRR   56589
 MAX G-VECTOR INDEX FOR 1- AND 2-ELECTRON INTEGRALS  59

 TTTTTTTTTTTTTTTTTTTTTTTTTTTTTT INPUT       TELAPSE        0.38 TCPU        0.38

 NEIGHBORS OF THE NON-EQUIVALENT ATOMS

 N = NUMBER OF NEIGHBORS AT DISTANCE R
    ATOM  N     R/ANG      R/AU   NEIGHBORS (ATOM LABELS AND CELL INDICES)
   1 B    1     1.3787     2.6054   38 O    0 0 0
   1 B    1     1.3795     2.6068   37 O    1 2-3
   1 B    1     1.5517     2.9323   30 C    0 0-1
   1 B    1     2.3868     4.5104    2 B    1 1-1
   1 B    1     2.3912     4.5187    3 B    1 2-3
   1 B    1     2.5629     4.8432   27 C    0 1-2

   2 B    1     1.3792     2.6064   38 O   -1-1 1
   2 B    1     1.3798     2.6075   39 O    0 1-2
   2 B    1     1.5510     2.9309   19 C    0 0 0
   2 B    1     2.3868     4.5104    1 B   -1-1 1
   2 B    1     2.3894     4.5154    3 B    0 1-2
   2 B    1     2.5618     4.8411   22 C    0 0 0

   3 B    1     1.3790     2.6060   37 O    0 0 0
   3 B    1     1.3795     2.6069   39 O    0 0 0
   3 B    1     1.5529     2.9346   36 C   -1-1 2
   3 B    1     2.3894     4.5154    2 B    0-1 2
   3 B    1     2.3912     4.5187    1 B   -1-2 3
   3 B    1     2.5679     4.8526   35 C   -1-1 2

   4 B    1     1.3779     2.6038   41 O    0 0 0
   4 B    1     1.3786     2.6051   40 O    0 0 0
   4 B    1     1.5480     2.9252   24 C    0 0 0
   4 B    1     2.3857     4.5084    5 B    0 0 0
   4 B    1     2.3859     4.5087    6 B    0 0 0
   4 B    1     2.5586     4.8350   21 C    0 0 0

   5 B    1     1.3778     2.6037   41 O    0 0 0
   5 B    1     1.3814     2.6104   42 O    0 0 0
   5 B    1     1.5525     2.9338   31 C    0 0 0
   5 B    1     2.3857     4.5084    4 B    0 0 0
   5 B    1     2.3952     4.5263    6 B    0 0 0
   5 B    1     2.5591     4.8360   32 C    0 0 0

   6 B    1     1.3783     2.6045   40 O    0 0 0
   6 B    1     1.3812     2.6101   42 O    0 0 0
   6 B    1     1.5546     2.9377   25 C    0 0 0
   6 B    1     2.3859     4.5087    4 B    0 0 0
   6 B    1     2.3952     4.5263    5 B    0 0 0
   6 B    1     2.5605     4.8387   26 C    0 0 0

   7 H    1     1.0917     2.0630   20 C    0 0 0
   7 H    1     2.1462     4.0557   19 C    0 0 0
   7 H    1     2.1712     4.1030   23 C    0 0 0
   7 H    1     2.5280     4.7772   10 H    0 0 0
   7 H    1     2.5583     4.8346   38 O   -1-1 1
   7 H    1     2.7310     5.1609    2 B    0 0 0

   8 H    1     1.0909     2.0615   21 C    0 0 0
   8 H    1     2.1454     4.0543   24 C    0 0 0
   8 H    1     2.1688     4.0985   22 C    0 0 0
   8 H    1     2.5272     4.7758    9 H    0 1-1
   8 H    1     2.5563     4.8307   40 O    0 0 0
   8 H    1     2.7244     5.1484    4 B    0 0 0

   9 H    1     1.0909     2.0614   22 C    0-1 1
   9 H    1     2.1443     4.0521   19 C    0-1 1
   9 H    1     2.1694     4.0996   21 C    0-1 1
   9 H    1     2.5272     4.7758    8 H    0-1 1
   9 H    1     2.5616     4.8407   39 O    0 0-1
   9 H    1     2.7249     5.1493    2 B    0-1 1

  10 H    1     1.0912     2.0621   23 C    0 0 0
  10 H    1     2.1469     4.0570   24 C    0 0 0
  10 H    1     2.1689     4.0986   20 C    0 0 0
  10 H    1     2.5280     4.7772    7 H    0 0 0
  10 H    1     2.5562     4.8306   41 O    0 0 0
  10 H    1     2.7309     5.1607    4 B    0 0 0

  11 H    1     1.0911     2.0619   26 C    0 0 0
  11 H    1     2.1443     4.0521   25 C    0 0 0
  11 H    1     2.1685     4.0978   29 C    0 0 1
  11 H    1     2.5223     4.7664   14 H    1 1-1
  11 H    1     2.5622     4.8420   42 O    0 0 0
  11 H    1     2.7179     5.1361    6 B    0 0 0

  12 H    1     1.0917     2.0630   27 C    0 0 0
  12 H    1     2.1441     4.0518   30 C    0-1 1
  12 H    1     2.1716     4.1037   28 C    0-1 1
  12 H    1     2.5226     4.7669   13 H    0-1 1
  12 H    1     2.5541     4.8265   37 O    1 1-1
  12 H    1     2.7237     5.1471    1 B    0-1 2

  13 H    1     1.0919     2.0634   28 C    0 0 0
  13 H    1     2.1523     4.0672   25 C    0 0 0
  13 H    1     2.1668     4.0946   27 C    0 1-1
  13 H    1     2.5226     4.7669   12 H    0 1-1
  13 H    1     2.5923     4.8988   40 O    0 0 0
  13 H    1     2.7583     5.2124    6 B    0 0 0

  14 H    1     1.0915     2.0627   29 C   -1-1 2
  14 H    1     2.1483     4.0597   30 C   -1-1 1
  14 H    1     2.1679     4.0968   26 C   -1-1 1
  14 H    1     2.5223     4.7664   11 H   -1-1 1
  14 H    1     2.5809     4.8771   38 O   -1-1 2
  14 H    1     2.7404     5.1785    1 B   -1-1 2

  15 H    1     1.0916     2.0628   32 C    0 0 0
  15 H    1     2.1436     4.0508   31 C    0 0 0
  15 H    1     2.1707     4.1021   35 C    0 0 0
  15 H    1     2.5217     4.7654   18 H    1 1-1
  15 H    1     2.5568     4.8316   42 O    0 0 0
  15 H    1     2.7166     5.1337    5 B    0 0 0

  16 H    1     1.0914     2.0625   33 C    0 0 0
  16 H    1     2.1488     4.0606   36 C    0 0 0
  16 H    1     2.1663     4.0937   34 C    0 0 0
  16 H    1     2.5170     4.7564   17 H    0 0 0
  16 H    1     2.5780     4.8717   37 O    1 1-2
  16 H    1     2.7396     5.1771    3 B    1 1-2

  17 H    1     1.0921     2.0638   34 C    0 0 0
  17 H    1     2.1502     4.0634   31 C    0 0 0
  17 H    1     2.1683     4.0976   33 C    0 0 0
  17 H    1     2.5170     4.7564   16 H    0 0 0
  17 H    1     2.5870     4.8888   41 O    0 0 0
  17 H    1     2.7510     5.1986    5 B    0 0 0

  18 H    1     1.0913     2.0622   35 C   -1-1 1
  18 H    1     2.1495     4.0619   36 C   -1-1 1
  18 H    1     2.1656     4.0923   32 C   -1-1 1
  18 H    1     2.5217     4.7654   15 H   -1-1 1
  18 H    1     2.5789     4.8734   39 O    0 0-1
  18 H    1     2.7392     5.1763    3 B    0 0-1

  19 C    1     1.4017     2.6489   22 C    0 0 0
  19 C    1     1.4025     2.6504   20 C    0 0 0
  19 C    1     1.5510     2.9309    2 B    0 0 0
  19 C    1     2.1443     4.0521    9 H    0 1-1
  19 C    1     2.1462     4.0557    7 H    0 0 0
  19 C    1     2.4236     4.5800   21 C    0 0 0

  20 C    1     1.0917     2.0630    7 H    0 0 0
  20 C    1     1.3915     2.6296   23 C    0 0 0
  20 C    1     1.4025     2.6504   19 C    0 0 0
  20 C    1     2.1689     4.0986   10 H    0 0 0
  20 C    1     2.4192     4.5715   22 C    0 0 0
  20 C    1     2.4241     4.5809   24 C    0 0 0

  21 C    1     1.0909     2.0615    8 H    0 0 0
  21 C    1     1.3909     2.6284   22 C    0 0 0
  21 C    1     1.4015     2.6484   24 C    0 0 0
  21 C    1     2.1694     4.0996    9 H    0 1-1
  21 C    1     2.4189     4.5711   23 C    0 0 0
  21 C    1     2.4236     4.5800   19 C    0 0 0

  22 C    1     1.0909     2.0614    9 H    0 1-1
  22 C    1     1.3909     2.6284   21 C    0 0 0
  22 C    1     1.4017     2.6489   19 C    0 0 0
  22 C    1     2.1688     4.0985    8 H    0 0 0
  22 C    1     2.4192     4.5715   20 C    0 0 0
  22 C    1     2.4226     4.5780   24 C    0 0 0

  23 C    1     1.0912     2.0621   10 H    0 0 0
  23 C    1     1.3915     2.6296   20 C    0 0 0
  23 C    1     1.4021     2.6497   24 C    0 0 0
  23 C    1     2.1712     4.1030    7 H    0 0 0
  23 C    1     2.4189     4.5711   21 C    0 0 0
  23 C    1     2.4238     4.5802   19 C    0 0 0

  24 C    1     1.4015     2.6484   21 C    0 0 0
  24 C    1     1.4021     2.6497   23 C    0 0 0
  24 C    1     1.5480     2.9252    4 B    0 0 0
  24 C    1     2.1454     4.0543    8 H    0 0 0
  24 C    1     2.1469     4.0570   10 H    0 0 0
  24 C    1     2.4226     4.5780   22 C    0 0 0

  25 C    1     1.4025     2.6504   26 C    0 0 0
  25 C    1     1.4037     2.6526   28 C    0 0 0
  25 C    1     1.5546     2.9377    6 B    0 0 0
  25 C    1     2.1443     4.0521   11 H    0 0 0
  25 C    1     2.1523     4.0672   13 H    0 0 0
  25 C    1     2.4271     4.5866   27 C    0 1-1

  26 C    1     1.0911     2.0619   11 H    0 0 0
  26 C    1     1.3916     2.6298   29 C    0 0 1
  26 C    1     1.4025     2.6504   25 C    0 0 0
  26 C    1     2.1679     4.0968   14 H    1 1-1
  26 C    1     2.4165     4.5665   28 C    0 0 0
  26 C    1     2.4246     4.5819   30 C    0 0 0

  27 C    1     1.0917     2.0630   12 H    0 0 0
  27 C    1     1.3928     2.6320   28 C    0-1 1
  27 C    1     1.4024     2.6502   30 C    0-1 1
  27 C    1     2.1668     4.0946   13 H    0-1 1
  27 C    1     2.4166     4.5668   29 C    0-1 2
  27 C    1     2.4271     4.5866   25 C    0-1 1

  28 C    1     1.0919     2.0634   13 H    0 0 0
  28 C    1     1.3928     2.6320   27 C    0 1-1
  28 C    1     1.4037     2.6526   25 C    0 0 0
  28 C    1     2.1716     4.1037   12 H    0 1-1
  28 C    1     2.4165     4.5665   26 C    0 0 0
  28 C    1     2.4277     4.5877   30 C    0 0 0

  29 C    1     1.0915     2.0627   14 H    1 1-2
  29 C    1     1.3916     2.6298   26 C    0 0-1
  29 C    1     1.4023     2.6499   30 C    0 0-1
  29 C    1     2.1685     4.0978   11 H    0 0-1
  29 C    1     2.4166     4.5668   27 C    0 1-2
  29 C    1     2.4281     4.5885   25 C    0 0-1

  30 C    1     1.4023     2.6499   29 C    0 0 1
  30 C    1     1.4024     2.6502   27 C    0 1-1
  30 C    1     1.5517     2.9323    1 B    0 0 1
  30 C    1     2.1441     4.0518   12 H    0 1-1
  30 C    1     2.1483     4.0597   14 H    1 1-1
  30 C    1     2.4246     4.5819   26 C    0 0 0

  31 C    1     1.4022     2.6498   32 C    0 0 0
  31 C    1     1.4030     2.6513   34 C    0 0 0
  31 C    1     1.5525     2.9338    5 B    0 0 0
  31 C    1     2.1436     4.0508   15 H    0 0 0
  31 C    1     2.1502     4.0634   17 H    0 0 0
  31 C    1     2.4265     4.5853   33 C    0 0 0

  32 C    1     1.0916     2.0628   15 H    0 0 0
  32 C    1     1.3918     2.6301   35 C    0 0 0
  32 C    1     1.4022     2.6498   31 C    0 0 0
  32 C    1     2.1656     4.0923   18 H    1 1-1
  32 C    1     2.4163     4.5661   34 C    0 0 0
  32 C    1     2.4270     4.5863   36 C    0 0 0

  33 C    1     1.0914     2.0625   16 H    0 0 0
  33 C    1     1.3927     2.6318   34 C    0 0 0
  33 C    1     1.4029     2.6511   36 C    0 0 0
  33 C    1     2.1683     4.0976   17 H    0 0 0
  33 C    1     2.4155     4.5646   35 C    0 0 0
  33 C    1     2.4265     4.5853   31 C    0 0 0

  34 C    1     1.0921     2.0638   17 H    0 0 0
  34 C    1     1.3927     2.6318   33 C    0 0 0
  34 C    1     1.4030     2.6513   31 C    0 0 0
  34 C    1     2.1663     4.0937   16 H    0 0 0
  34 C    1     2.4163     4.5661   32 C    0 0 0
  34 C    1     2.4289     4.5899   36 C    0 0 0

  35 C    1     1.0913     2.0622   18 H    1 1-1
  35 C    1     1.3918     2.6301   32 C    0 0 0
  35 C    1     1.4029     2.6511   36 C    0 0 0
  35 C    1     2.1707     4.1021   15 H    0 0 0
  35 C    1     2.4155     4.5646   33 C    0 0 0
  35 C    1     2.4269     4.5861   31 C    0 0 0

  36 C    1     1.4029     2.6511   33 C    0 0 0
  36 C    1     1.4029     2.6511   35 C    0 0 0
  36 C    1     1.5529     2.9346    3 B    1 1-2
  36 C    1     2.1488     4.0606   16 H    0 0 0
  36 C    1     2.1495     4.0619   18 H    1 1-1
  36 C    1     2.4270     4.5863   32 C    0 0 0

  37 O    1     1.3790     2.6060    3 B    0 0 0
  37 O    1     1.3795     2.6068    1 B   -1-2 3
  37 O    1     2.3868     4.5105   39 O    0 0 0
  37 O    1     2.3885     4.5136   38 O   -1-2 3
  37 O    1     2.5389     4.7979   30 C   -1-2 2
  37 O    1     2.5412     4.8022   36 C   -1-1 2

  38 O    1     1.3787     2.6054    1 B    0 0 0
  38 O    1     1.3792     2.6064    2 B    1 1-1
  38 O    1     2.3885     4.5136   37 O    1 2-3
  38 O    1     2.3912     4.5188   39 O    1 2-3
  38 O    1     2.5351     4.7907   19 C    1 1-1
  38 O    1     2.5405     4.8008   30 C    0 0-1

  39 O    1     1.3795     2.6069    3 B    0 0 0
  39 O    1     1.3798     2.6075    2 B    0-1 2
  39 O    1     2.3868     4.5105   37 O    0 0 0
  39 O    1     2.3912     4.5188   38 O   -1-2 3
  39 O    1     2.5416     4.8030   19 C    0-1 2
  39 O    1     2.5427     4.8050   36 C   -1-1 2

  40 O    1     1.3783     2.6045    6 B    0 0 0
  40 O    1     1.3786     2.6051    4 B    0 0 0
  40 O    1     2.3876     4.5120   42 O    0 0 0
  40 O    1     2.3914     4.5191   41 O    0 0 0
  40 O    1     2.5354     4.7912   25 C    0 0 0
  40 O    1     2.5360     4.7924   24 C    0 0 0

  41 O    1     1.3778     2.6037    5 B    0 0 0
  41 O    1     1.3779     2.6038    4 B    0 0 0
  41 O    1     2.3870     4.5108   42 O    0 0 0
  41 O    1     2.3914     4.5191   40 O    0 0 0
  41 O    1     2.5306     4.7821   24 C    0 0 0
  41 O    1     2.5355     4.7913   31 C    0 0 0

  42 O    1     1.3812     2.6101    6 B    0 0 0
  42 O    1     1.3814     2.6104    5 B    0 0 0
  42 O    1     2.3870     4.5108   41 O    0 0 0
  42 O    1     2.3876     4.5120   40 O    0 0 0
  42 O    1     2.5481     4.8152   31 C    0 0 0
  42 O    1     2.5522     4.8230   25 C    0 0 0


 SYMMETRY ALLOWED INTERNAL DEGREE(S) OF FREEDOM: 123
 TTTTTTTTTTTTTTTTTTTTTTTTTTTTTT SYMM        TELAPSE        0.39 TCPU        0.38
 TTTTTTTTTTTTTTTTTTTTTTTTTTTTTT INT_SCREEN  TELAPSE        0.42 TCPU        0.42

 DFT PARAMETERS

     ATOM       ELECTRONS   NET CHARGE   R(ANGSTROM)
   1   5  B       5.0000      0.0000     0.89000000
   7   1  H       1.0000      0.0000     1.11000000
  19   6  C       6.0000      0.0000     0.77000000
  37   8  O       8.0000      0.0000     0.74000000

 SIZE OF GRID=    1334796
 TTTTTTTTTTTTTTTTTTTTTTTTTTTTTT MAKE_GRID2  TELAPSE        7.81 TCPU        7.80
 BECKE WEIGHT FUNCTION
 RADSAFE =     2.00
 TOLERANCES - DENSITY:10**- 6; POTENTIAL:10**- 9; GRID WGT:10**-14

 RADIAL INTEGRATION  - INTERVALS (POINTS,UPPER LIMIT):            1( 75,  4.0*R)

 ANGULAR INTEGRATION - INTERVALS (ACCURACY LEVEL [N. POINTS] UPPER LIMIT):
  1(  4[  86]   0.2)  2(  8[ 194]   0.5)  3( 12[ 350]   0.9)  4( 16[ 974]   3.5)
  5( 12[ 350]9999.0)
 TTTTTTTTTTTTTTTTTTTTTTTTTTTTTT INT_CALC    TELAPSE        7.88 TCPU        7.87
 EEEEEEEEEE INT_CALC TERMINATION  DATE 02 12 2025 TIME 08:05:18.6

 *******************************************************************************
 COF-5_z42_inc_L070                                                              
 CRYSTAL - SCF - TYPE OF CALCULATION :  RESTRICTED CLOSED SHELL
 *******************************************************************************

 CAPPA:IS1  2;IS2  2;IS3  8; K PTS MONK NET  20; SYMMOPS:K SPACE   2;G SPACE   1

 TTTTTTTTTTTTTTTTTTTTTTTTTTTTTT SDIK        TELAPSE        8.48 TCPU       15.36

 AAAAAAAAAAAAAAAAAAAAAAAAAAAAAAAAAAAAAAAAAAAAAAAAAAAAAAAAAAAAAAAAAAAAAAAAAAAAAAA
         ATOMIC WAVEFUNCTION(S)


 NUCLEAR CHARGE  5.0  SYMMETRY SPECIES            S    P
 N. ELECTRONS    5.0  NUMBER OF PRIMITIVE GTOS    8    4
                      NUMBER OF CONTRACTED GTOS   4    2
                      NUMBER OF CLOSED SHELLS     2    0
                      OPEN SHELL OCCUPATION       0    1

  ZNUC  SCFIT    TOTAL HF ENERGY   KINETIC ENERGY   VIRIAL THEOREM ACCURACY
   5.0    11    -2.451164084E+01  2.462155050E+01 -1.995536038E+00  1.5E-06

 NUCLEAR CHARGE  1.0  SYMMETRY SPECIES            S
 N. ELECTRONS    1.0  NUMBER OF PRIMITIVE GTOS    4
                      NUMBER OF CONTRACTED GTOS   2
                      NUMBER OF CLOSED SHELLS     0
                      OPEN SHELL OCCUPATION       1

  ZNUC  SCFIT    TOTAL HF ENERGY   KINETIC ENERGY   VIRIAL THEOREM ACCURACY
   1.0     1    -4.977266687E-01  5.190767460E-01 -1.958869132E+00  0.0E+00

 NUCLEAR CHARGE  6.0  SYMMETRY SPECIES            S    P
 N. ELECTRONS    6.0  NUMBER OF PRIMITIVE GTOS    8    4
                      NUMBER OF CONTRACTED GTOS   4    2
                      NUMBER OF CLOSED SHELLS     2    0
                      OPEN SHELL OCCUPATION       0    2

  ZNUC  SCFIT    TOTAL HF ENERGY   KINETIC ENERGY   VIRIAL THEOREM ACCURACY
   6.0     9    -3.766704647E+01  3.775180683E+01 -1.997754800E+00  1.1E-06

 NUCLEAR CHARGE  8.0  SYMMETRY SPECIES            S    P
 N. ELECTRONS    8.0  NUMBER OF PRIMITIVE GTOS    8    4
                      NUMBER OF CONTRACTED GTOS   4    2
                      NUMBER OF CLOSED SHELLS     2    0
                      OPEN SHELL OCCUPATION       0    4

  ZNUC  SCFIT    TOTAL HF ENERGY   KINETIC ENERGY   VIRIAL THEOREM ACCURACY
   8.0    12    -7.477373220E+01  7.477365593E+01 -2.000001020E+00  3.8E-06

 AAAAAAAAAAAAAAAAAAAAAAAAAAAAAAAAAAAAAAAAAAAAAAAAAAAAAAAAAAAAAAAAAAAAAAAAAAAAAAA

 CHARGE NORMALIZATION FACTOR   1.00000000
 TOTAL ATOMIC CHARGES:
   5.0000000   5.0000000   5.0000000   5.0000000   5.0000000   5.0000000
   1.0000000   1.0000000   1.0000000   1.0000000   1.0000000   1.0000000
   1.0000000   1.0000000   1.0000000   1.0000000   1.0000000   1.0000000
   6.0000000   6.0000000   6.0000000   6.0000000   6.0000000   6.0000000
   6.0000000   6.0000000   6.0000000   6.0000000   6.0000000   6.0000000
   6.0000000   6.0000000   6.0000000   6.0000000   6.0000000   6.0000000
   8.0000000   8.0000000   8.0000000   8.0000000   8.0000000   8.0000000
 TTTTTTTTTTTTTTTTTTTTTTTTTTTTTT MOQGAD      TELAPSE        8.52 TCPU       16.48
 TTTTTTTTTTTTTTTTTTTTTTTTTTTTTT SHELLXN     TELAPSE       13.54 TCPU      174.47
 TTTTTTTTTTTTTTTTTTTTTTTTTTTTTT MONMO3      TELAPSE       13.66 TCPU      178.52
 NUMERICALLY INTEGRATED DENSITY    198.0000201738
 TTTTTTTTTTTTTTTTTTTTTTTTTTTTTT NUMDFT      TELAPSE       14.20 TCPU      195.78
 CYC   0 ETOT(AU) -1.295945902832E+03 DETOT -1.30E+03 tst  0.00E+00 PX  1.00E+00
 TTTTTTTTTTTTTTTTTTTTTTTTTTTTTT DIIS        TELAPSE       14.24 TCPU      196.88
 TTTTTTTTTTTTTTTTTTTTTTTTTTTTTT FDIK        TELAPSE       14.71 TCPU      212.03
 INSULATING STATE
 TOP OF VALENCE BANDS -    BAND     99; K    1; EIG -3.1316224E-01 AU
 BOTTOM OF VIRTUAL BANDS - BAND    100; K   17; EIG -1.5626738E-01 AU
 INDIRECT ENERGY BAND GAP:   4.2693 eV
 BOTTOM OF VIRTUAL BANDS - BAND    100; K    1; EIG -1.5611779E-01 AU
 TTTTTTTTTTTTTTTTTTTTTTTTTTTTTT PDIG        TELAPSE       15.04 TCPU      218.20
 CHARGE NORMALIZATION FACTOR   1.00000000
 TOTAL ATOMIC CHARGES:
   4.1591427   4.1647776   4.1658594   4.1676382   4.1647441   4.1576424
   0.7851023   0.7850660   0.7851951   0.7852308   0.7852705   0.7851615
   0.7861432   0.7856947   0.7848192   0.7854020   0.7854021   0.7856425
   6.0431637   6.2649437   6.2650020   6.2658687   6.2645769   6.0453628
   6.0411196   6.2662282   6.2643460   6.2668476   6.2666047   6.0444220
   6.0423405   6.2650389   6.2659057   6.2653807   6.2669944   6.0399174
   8.6924757   8.6917026   8.6919619   8.6913539   8.6906563   8.6938518
 TTTTTTTTTTTTTTTTTTTTTTTTTTTTTT MOQGAD      TELAPSE       15.08 TCPU      218.24
 TTTTTTTTTTTTTTTTTTTTTTTTTTTTTT SHELLXN     TELAPSE       20.23 TCPU      382.35
 TTTTTTTTTTTTTTTTTTTTTTTTTTTTTT MONMO3      TELAPSE       20.35 TCPU      386.39
 NUMERICALLY INTEGRATED DENSITY    198.0000285616
 TTTTTTTTTTTTTTTTTTTTTTTTTTTTTT NUMDFT      TELAPSE       20.90 TCPU      403.85
 CYC   1 ETOT(AU) -1.288810598972E+03 DETOT  7.14E+00 tst  0.00E+00 PX  1.00E+00
 TTTTTTTTTTTTTTTTTTTTTTTTTTTTTT DIIS        TELAPSE       20.95 TCPU      405.35
 DIIS TEST: 0.11143E+01 AT SCF   CYCLE   1 - MIX   30 %
 TTTTTTTTTTTTTTTTTTTTTTTTTTTTTT FDIK        TELAPSE       21.43 TCPU      420.86
 INSULATING STATE
 TOP OF VALENCE BANDS -    BAND     99; K    1; EIG -2.2473639E-01 AU
 BOTTOM OF VIRTUAL BANDS - BAND    100; K    1; EIG -8.0700324E-02 AU
 DIRECT ENERGY BAND GAP:   3.9194 eV
 TTTTTTTTTTTTTTTTTTTTTTTTTTTTTT PDIG        TELAPSE       21.75 TCPU      427.04
 CHARGE NORMALIZATION FACTOR   1.00000000
 TOTAL ATOMIC CHARGES:
   4.7164275   4.7079969   4.7084156   4.7091901   4.7081814   4.7164975
   0.9087210   0.9091853   0.9104188   0.9103652   0.9070254   0.9066838
   0.9074609   0.9077166   0.9084388   0.9088014   0.9102755   0.9103353
   5.8685447   6.1410780   6.1394798   6.1314167   6.1327225   5.8643573
   5.8868124   6.1247079   6.1258438   6.1305547   6.1269474   5.8803112
   5.8690045   6.1364158   6.1388415   6.1330834   6.1306497   5.8710401
   8.3346526   8.3335367   8.3299283   8.3325897   8.3267299   8.3386143
 TTTTTTTTTTTTTTTTTTTTTTTTTTTTTT MOQGAD      TELAPSE       21.79 TCPU      427.08
 TTTTTTTTTTTTTTTTTTTTTTTTTTTTTT SHELLXN     TELAPSE       26.94 TCPU      591.21
 TTTTTTTTTTTTTTTTTTTTTTTTTTTTTT MONMO3      TELAPSE       27.07 TCPU      595.25
 NUMERICALLY INTEGRATED DENSITY    198.0000329713
 TTTTTTTTTTTTTTTTTTTTTTTTTTTTTT NUMDFT      TELAPSE       27.62 TCPU      612.79
 CYC   2 ETOT(AU) -1.289005552165E+03 DETOT -1.95E-01 tst  3.58E-03 PX  1.59E-01
 TTTTTTTTTTTTTTTTTTTTTTTTTTTTTT DIIS        TELAPSE       27.67 TCPU      614.29
 DIIS TEST: 0.46218E+00 AT SCF   CYCLE   2 - DIIS ACTIVE - HISTORY:     2 CYCLES
 TTTTTTTTTTTTTTTTTTTTTTTTTTTTTT FDIK        TELAPSE       28.15 TCPU      629.67
 INSULATING STATE
 TOP OF VALENCE BANDS -    BAND     99; K    1; EIG -2.3821452E-01 AU
 BOTTOM OF VIRTUAL BANDS - BAND    100; K    1; EIG -7.5141337E-02 AU
 DIRECT ENERGY BAND GAP:   4.4374 eV
 TTTTTTTTTTTTTTTTTTTTTTTTTTTTTT PDIG        TELAPSE       28.47 TCPU      635.85
 CHARGE NORMALIZATION FACTOR   1.00000000
 TOTAL ATOMIC CHARGES:
   4.5059758   4.5025419   4.5030660   4.5047426   4.5027902   4.5050648
   0.8876855   0.8875080   0.8886037   0.8886825   0.8845992   0.8843667
   0.8859047   0.8852485   0.8864810   0.8875542   0.8887903   0.8884217
   5.8899022   6.1600785   6.1606289   6.1602491   6.1602409   5.8916810
   5.8881610   6.1600430   6.1607144   6.1626421   6.1631802   5.8908405
   5.8909471   6.1598560   6.1603215   6.1613764   6.1615273   5.8900686
   8.5094782   8.5088294   8.5117139   8.5080809   8.5098704   8.5115412
 TTTTTTTTTTTTTTTTTTTTTTTTTTTTTT MOQGAD      TELAPSE       28.51 TCPU      635.89
 TTTTTTTTTTTTTTTTTTTTTTTTTTTTTT SHELLXN     TELAPSE       33.66 TCPU      799.96
 TTTTTTTTTTTTTTTTTTTTTTTTTTTTTT MONMO3      TELAPSE       33.78 TCPU      804.00
 NUMERICALLY INTEGRATED DENSITY    198.0000331531
 TTTTTTTTTTTTTTTTTTTTTTTTTTTTTT NUMDFT      TELAPSE       34.33 TCPU      821.48
 CYC   3 ETOT(AU) -1.289100942535E+03 DETOT -9.54E-02 tst  6.74E-04 PX  6.45E-02
 TTTTTTTTTTTTTTTTTTTTTTTTTTTTTT DIIS        TELAPSE       34.39 TCPU      823.26
 DIIS TEST: 0.13287E-01 AT SCF   CYCLE   3 - DIIS ACTIVE - HISTORY:     3 CYCLES
 TTTTTTTTTTTTTTTTTTTTTTTTTTTTTT FDIK        TELAPSE       34.87 TCPU      838.61
 INSULATING STATE
 TOP OF VALENCE BANDS -    BAND     99; K    1; EIG -2.4767415E-01 AU
 BOTTOM OF VIRTUAL BANDS - BAND    100; K    1; EIG -8.3770243E-02 AU
 DIRECT ENERGY BAND GAP:   4.4601 eV
 TTTTTTTTTTTTTTTTTTTTTTTTTTTTTT PDIG        TELAPSE       35.19 TCPU      844.78
 CHARGE NORMALIZATION FACTOR   1.00000000
 TOTAL ATOMIC CHARGES:
   4.5116306   4.5074692   4.5079703   4.5092813   4.5072581   4.5108274
   0.8700885   0.8704534   0.8715127   0.8716900   0.8679898   0.8679892
   0.8690778   0.8691147   0.8695717   0.8702556   0.8718616   0.8717015
   5.9397046   6.1708993   6.1693314   6.1652507   6.1649190   5.9370353
   5.9497224   6.1629150   6.1619981   6.1658955   6.1629013   5.9453616
   5.9388735   6.1683684   6.1699954   6.1656219   6.1648641   5.9395142
   8.4785668   8.4774941   8.4745805   8.4768788   8.4720415   8.4815233
 TTTTTTTTTTTTTTTTTTTTTTTTTTTTTT MOQGAD      TELAPSE       35.23 TCPU      844.82
 TTTTTTTTTTTTTTTTTTTTTTTTTTTTTT SHELLXN     TELAPSE       40.38 TCPU     1008.96
 TTTTTTTTTTTTTTTTTTTTTTTTTTTTTT MONMO3      TELAPSE       40.50 TCPU     1012.99
 NUMERICALLY INTEGRATED DENSITY    198.0000326487
 TTTTTTTTTTTTTTTTTTTTTTTTTTTTTT NUMDFT      TELAPSE       41.05 TCPU     1030.54
 CYC   4 ETOT(AU) -1.289103732300E+03 DETOT -2.79E-03 tst  2.98E-05 PX  1.36E-02
 TTTTTTTTTTTTTTTTTTTTTTTTTTTTTT DIIS        TELAPSE       41.11 TCPU     1032.35
 DIIS TEST: 0.39776E-02 AT SCF   CYCLE   4 - DIIS ACTIVE - HISTORY:     4 CYCLES
 TTTTTTTTTTTTTTTTTTTTTTTTTTTTTT FDIK        TELAPSE       41.59 TCPU     1047.75
 INSULATING STATE
 TOP OF VALENCE BANDS -    BAND     99; K    1; EIG -2.4590483E-01 AU
 BOTTOM OF VIRTUAL BANDS - BAND    100; K    1; EIG -8.3437097E-02 AU
 DIRECT ENERGY BAND GAP:   4.4210 eV
 TTTTTTTTTTTTTTTTTTTTTTTTTTTTTT PDIG        TELAPSE       41.91 TCPU     1053.92
 CHARGE NORMALIZATION FACTOR   1.00000000
 TOTAL ATOMIC CHARGES:
   4.5147406   4.5092981   4.5098316   4.5112924   4.5094401   4.5140303
   0.8735306   0.8734936   0.8746546   0.8746995   0.8709890   0.8707135
   0.8721313   0.8716594   0.8726382   0.8735556   0.8748698   0.8746477
   5.9201294   6.1688254   6.1689134   6.1656458   6.1658178   5.9207654
   5.9252109   6.1635410   6.1642269   6.1664052   6.1660695   5.9259929
   5.9210941   6.1676970   6.1684858   6.1665828   6.1661435   5.9206458
   8.4873815   8.4865588   8.4870397   8.4857900   8.4850103   8.4898109
 TTTTTTTTTTTTTTTTTTTTTTTTTTTTTT MOQGAD      TELAPSE       41.95 TCPU     1053.96
 TTTTTTTTTTTTTTTTTTTTTTTTTTTTTT SHELLXN     TELAPSE       47.10 TCPU     1218.11
 TTTTTTTTTTTTTTTTTTTTTTTTTTTTTT MONMO3      TELAPSE       47.23 TCPU     1222.15
 NUMERICALLY INTEGRATED DENSITY    198.0000327125
 TTTTTTTTTTTTTTTTTTTTTTTTTTTTTT NUMDFT      TELAPSE       47.77 TCPU     1239.63
 CYC   5 ETOT(AU) -1.289104643401E+03 DETOT -9.11E-04 tst  6.83E-06 PX  6.94E-03
 TTTTTTTTTTTTTTTTTTTTTTTTTTTTTT DIIS        TELAPSE       47.84 TCPU     1241.83
 DIIS TEST: 0.66612E-04 AT SCF   CYCLE   5 - DIIS ACTIVE - HISTORY:     5 CYCLES
 TTTTTTTTTTTTTTTTTTTTTTTTTTTTTT FDIK        TELAPSE       48.33 TCPU     1257.47
 INSULATING STATE
 TOP OF VALENCE BANDS -    BAND     99; K    1; EIG -2.4574008E-01 AU
 BOTTOM OF VIRTUAL BANDS - BAND    100; K    1; EIG -8.2864211E-02 AU
 DIRECT ENERGY BAND GAP:   4.4321 eV
 TTTTTTTTTTTTTTTTTTTTTTTTTTTTTT PDIG        TELAPSE       48.65 TCPU     1263.65
 CHARGE NORMALIZATION FACTOR   1.00000000
 TOTAL ATOMIC CHARGES:
   4.5139587   4.5094564   4.5099752   4.5113643   4.5094447   4.5131403
   0.8742294   0.8744877   0.8754518   0.8756211   0.8717648   0.8717482
   0.8728593   0.8727629   0.8735671   0.8743188   0.8757466   0.8755137
   5.9213603   6.1691507   6.1679403   6.1653934   6.1649746   5.9194928
   5.9267829   6.1639314   6.1630999   6.1669250   6.1645944   5.9237908
   5.9206148   6.1671059   6.1685052   6.1659176   6.1655341   5.9211260
   8.4873768   8.4864553   8.4855049   8.4858274   8.4830533   8.4901316
 TTTTTTTTTTTTTTTTTTTTTTTTTTTTTT MOQGAD      TELAPSE       48.69 TCPU     1263.69
 TTTTTTTTTTTTTTTTTTTTTTTTTTTTTT SHELLXN     TELAPSE       53.85 TCPU     1427.85
 TTTTTTTTTTTTTTTTTTTTTTTTTTTTTT MONMO3      TELAPSE       53.98 TCPU     1431.89
 NUMERICALLY INTEGRATED DENSITY    198.0000327434
 TTTTTTTTTTTTTTTTTTTTTTTTTTTTTT NUMDFT      TELAPSE       54.54 TCPU     1449.47
 CYC   6 ETOT(AU) -1.289104661514E+03 DETOT -1.81E-05 tst  1.70E-07 PX  1.14E-03
 TTTTTTTTTTTTTTTTTTTTTTTTTTTTTT DIIS        TELAPSE       54.61 TCPU     1451.68
 DIIS TEST: 0.97426E-05 AT SCF   CYCLE   6 - DIIS ACTIVE - HISTORY:     6 CYCLES
 TTTTTTTTTTTTTTTTTTTTTTTTTTTTTT FDIK        TELAPSE       55.36 TCPU     1475.06
 INSULATING STATE
 TOP OF VALENCE BANDS -    BAND     99; K    1; EIG -2.4572746E-01 AU
 BOTTOM OF VIRTUAL BANDS - BAND    100; K    1; EIG -8.2941300E-02 AU
 DIRECT ENERGY BAND GAP:   4.4296 eV
 TTTTTTTTTTTTTTTTTTTTTTTTTTTTTT PDIG        TELAPSE       55.68 TCPU     1481.04
 CHARGE NORMALIZATION FACTOR   1.00000000
 TOTAL ATOMIC CHARGES:
   4.5143836   4.5093576   4.5098951   4.5113456   4.5094573   4.5136295
   0.8743474   0.8743575   0.8755113   0.8755706   0.8718323   0.8715909
   0.8729667   0.8725630   0.8734894   0.8743820   0.8757372   0.8755210
   5.9204396   6.1683392   6.1682273   6.1649818   6.1651335   5.9207263
   5.9257198   6.1629751   6.1634985   6.1658736   6.1651889   5.9258943
   5.9212202   6.1670603   6.1679753   6.1658997   6.1653873   5.9208414
   8.4871010   8.4862267   8.4861855   8.4854775   8.4841170   8.4895723
 TTTTTTTTTTTTTTTTTTTTTTTTTTTTTT MOQGAD      TELAPSE       55.72 TCPU     1481.08
 TTTTTTTTTTTTTTTTTTTTTTTTTTTTTT SHELLXN     TELAPSE       60.88 TCPU     1645.29
 TTTTTTTTTTTTTTTTTTTTTTTTTTTTTT MONMO3      TELAPSE       61.01 TCPU     1649.33
 NUMERICALLY INTEGRATED DENSITY    198.0000327445
 TTTTTTTTTTTTTTTTTTTTTTTTTTTTTT NUMDFT      TELAPSE       61.56 TCPU     1666.81
 CYC   7 ETOT(AU) -1.289104662934E+03 DETOT -1.42E-06 tst  5.90E-08 PX  4.48E-04
 TTTTTTTTTTTTTTTTTTTTTTTTTTTTTT DIIS        TELAPSE       61.63 TCPU     1669.32
 DIIS TEST: 0.16851E-05 AT SCF   CYCLE   7 - DIIS ACTIVE - HISTORY:     7 CYCLES
 TTTTTTTTTTTTTTTTTTTTTTTTTTTTTT FDIK        TELAPSE       62.12 TCPU     1684.86
 INSULATING STATE
 TOP OF VALENCE BANDS -    BAND     99; K    1; EIG -2.4573334E-01 AU
 BOTTOM OF VIRTUAL BANDS - BAND    100; K    1; EIG -8.2957498E-02 AU
 DIRECT ENERGY BAND GAP:   4.4294 eV
 TTTTTTTTTTTTTTTTTTTTTTTTTTTTTT PDIG        TELAPSE       62.44 TCPU     1691.04
 CHARGE NORMALIZATION FACTOR   1.00000000
 TOTAL ATOMIC CHARGES:
   4.5144147   4.5094370   4.5099662   4.5113940   4.5094988   4.5136465
   0.8742693   0.8743720   0.8754537   0.8755617   0.8717581   0.8716093
   0.8728845   0.8725898   0.8734827   0.8743256   0.8757134   0.8754804
   5.9208103   6.1686132   6.1680889   6.1651198   6.1649985   5.9202372
   5.9261871   6.1632991   6.1632599   6.1662032   6.1649341   5.9251684
   5.9209598   6.1670553   6.1681239   6.1658378   6.1654419   5.9209765
   8.4871688   8.4863043   8.4861126   8.4856020   8.4838739   8.4897657
 TTTTTTTTTTTTTTTTTTTTTTTTTTTTTT MOQGAD      TELAPSE       62.48 TCPU     1691.08
 TTTTTTTTTTTTTTTTTTTTTTTTTTTTTT SHELLXN     TELAPSE       67.63 TCPU     1855.28
 TTTTTTTTTTTTTTTTTTTTTTTTTTTTTT MONMO3      TELAPSE       67.76 TCPU     1859.32
 NUMERICALLY INTEGRATED DENSITY    198.0000327439
 TTTTTTTTTTTTTTTTTTTTTTTTTTTTTT NUMDFT      TELAPSE       68.31 TCPU     1876.77
 CYC   8 ETOT(AU) -1.289104663213E+03 DETOT -2.79E-07 tst  8.74E-09 PX  1.70E-04
 TTTTTTTTTTTTTTTTTTTTTTTTTTTTTT DIIS        TELAPSE       68.39 TCPU     1879.40
 DIIS TEST: 0.59866E-07 AT SCF   CYCLE   8 - DIIS ACTIVE - HISTORY:     8 CYCLES
 TTTTTTTTTTTTTTTTTTTTTTTTTTTTTT FDIK        TELAPSE       68.87 TCPU     1894.84
 INSULATING STATE
 TOP OF VALENCE BANDS -    BAND     99; K    1; EIG -2.4573814E-01 AU
 BOTTOM OF VIRTUAL BANDS - BAND    100; K    1; EIG -8.2948982E-02 AU
 DIRECT ENERGY BAND GAP:   4.4297 eV
 TTTTTTTTTTTTTTTTTTTTTTTTTTTTTT PDIG        TELAPSE       69.19 TCPU     1901.01
 CHARGE NORMALIZATION FACTOR   1.00000000
 TOTAL ATOMIC CHARGES:
   4.5143646   4.5094406   4.5099683   4.5113981   4.5095024   4.5135972
   0.8742690   0.8743589   0.8754512   0.8755443   0.8717626   0.8715924
   0.8728841   0.8725785   0.8734738   0.8743212   0.8756978   0.8754774
   5.9207011   6.1686051   6.1681413   6.1651096   6.1650839   5.9203134
   5.9260223   6.1632872   6.1633786   6.1662219   6.1650082   5.9251921
   5.9210002   6.1670799   6.1681499   6.1659108   6.1654332   5.9209036
   8.4872119   8.4863232   8.4860235   8.4856125   8.4838342   8.4897701
 TTTTTTTTTTTTTTTTTTTTTTTTTTTTTT MOQGAD      TELAPSE       69.23 TCPU     1901.05
 TTTTTTTTTTTTTTTTTTTTTTTTTTTTTT SHELLXN     TELAPSE       74.38 TCPU     2065.18
 +++ ENERGIES IN A.U. +++
 ::: EXT EL-POLE                                  -1.2600290532531E+03
 ::: EXT EL-SPHEROPOLE                             1.3599194808660E+01
 ::: BIELET ZONE E-E                               1.9671820653867E+03
 ::: TOTAL E-E                                     7.2075220694226E+02
 ::: TOTAL E-N + N-E                              -3.2725453110571E+03
 ::: TOTAL N-N                                     1.1647116370933E+02
 ::: KINETIC ENERGY                                1.2799344661486E+03
 ::: PSEUDO TOTAL   ENERGY                        -1.1553874742568E+03
 ::: VIRIAL COEFFICIENT                            1.0511419003071E+00
 TTTTTTTTTTTTTTTTTTTTTTTTTTTTTT MONMO3      TELAPSE       74.51 TCPU     2069.23
 NUMERICALLY INTEGRATED DENSITY    198.0000327440
 EXCHANGE ENERGY: -0.126027718627E+03  CORRELATION ENERGY: -0.768947040475E+01
 TTTTTTTTTTTTTTTTTTTTTTTTTTTTTT NUMDFT      TELAPSE       75.05 TCPU     2086.68
 CYC   9 ETOT(AU) -1.289104663289E+03 DETOT -7.59E-08 tst  2.46E-10 PX  1.70E-04

 == SCF ENDED - CONVERGENCE ON ENERGY      E(AU) -1.2891046632889E+03 CYCLES   9


 ENERGY EXPRESSION=HARTREE+FOCK EXCH*0.00000+(HSESOL     EXCH)*1.00000+PBESOL     CORR


 TOTAL ENERGY(DFT)(AU)(  9) -1.2891046632889E+03 DE-7.6E-08 tester 2.5E-10
 TTTTTTTTTTTTTTTTTTTTTTTTTTTTTT EDFT        TELAPSE       75.05 TCPU     2086.69
 
 INFORMATION **** DFTD3 ENERGY **** CALCULATE DFTD3 ENERGY

           DFT-D V3(BJ)
 DF                                         hsesol3c  
 parameters
 s6       :    1.0000
 s8       :    0.0000
 a1       :    0.5196
 a2       :    4.9385
 k1 k3    :   16.0000   -4.0000
 Cutoff   :   50.2022
 CN-Cutoff:   21.1671
 ABC-Cutoff:   21.1671
 
 Edisp /kcal,au:   -22.1790 -0.03534444

 E6    /kcal :   -23.2402
 E8    /kcal :     0.0000
 E6(ABC) "   :   1.061258
 
 INFORMATION **** DFTD3 ENERGY **** NORMAL TERMINATION OF DFTD3 MODULE

 GCP ENERGY CALCULATION
  level        hsesol3c            basis:hsesol3c
  Nbf            474
  Atoms           42

  Parameters: 
  sigma     1.0000
  eta       1.4281
  alpha     0.2936
  beta      1.9467

  dmp_scal      4.0000
  dmp_exp       6.0000
 cutoffs: 
   distance [bohr] 60.0
   noise    [a.u.] 2.2E-16
 SR-damping   T
 ** gCP correction **
  Egcp:        0.0829502227 / (a.u.) ||      52.0521 / (kcal/mol)
 INFORMATION **** GCP **** NORMAL TERMINATION OF GCP MODULE

 *******************************************************************************

 DFT-D3-GCP DISPERSION AND COUNTERPOISE CORRECTION

 D3 DISPERSION ENERGY (AU)      -3.5344442608997E-02
 GCP ENERGY (AU)                 8.2950222726057E-02
 TOTAL ENERGY + DISP + GCP (AU) -1.2890570575088E+03

 *******************************************************************************

 EIGENVECTORS IN FORTRAN UNIT 10
 TTTTTTTTTTTTTTTTTTTTTTTTTTTTTT END         TELAPSE       76.31 TCPU     2093.93
 EEEEEEEEEE TERMINATION  DATE 02 12 2025 TIME 08:06:27.1
