 Default number of threads is:           32

         
 *******************************************************************************
 *                                                                             *
 *                               CRYSTAL23                                     *
 *                      public : 1.0.1 - October 2022                          *
 *                       HTTP://WWW.CRYSTAL.UNITO.IT                           *
 *                                                                             *
 *                              MAIN AUTHORS                                   *
 *                                                                             *
 *  R. DOVESI(1,11), V.R. SAUNDERS(2), C. ROETTI(1,11), R. ORLANDO(1,11),      *
 *  C.M. ZICOVICH-WILSON(1,3), F. PASCALE(4), B. CIVALLERI(1,11),              *
 *  K. DOLL(5), N.M. HARRISON(6), I.J. BUSH(7), Ph. D'ARCO(8),                 *
 *  M. LLUNELL(9), M. CAUSA'(10), Y. NOEL(8), L. MASCHIO(1,11), A. ERBA(1,11)  *
 *  M. RE'RAT(14), S. CASASSA(1,11), B.G. SEARLE(2), J.K. DESMARAIS(1)         *
 *                                                                             *
 *        CONTRIBUTIONS TO THE CODE HAVE ALSO BEEN GIVEN BY                    *
 *                                                                             *
 *  M. FERRABONE(1,11), M. DE LA PIERRE(1,11), M. FERRERO(1,11),               *
 *  J. BAIMA(1,11), E. ALBANESE(1,11), M.F. PEINTINGER(12), R. BAST(13),       *
 *  B. KIRTMAN(15), V. LACIVITA(1,11), R. DEMICHELIS(1,16)                     *
 *  G. BRANDEBURG(17), S. SALUSTRO(1,11), G. SANSONE(1,11)                     *
 *  M.T. RUGGIERO(18), L.E. DAGA(1), L. DONA'(1), A. COSSARD(1)                *
 *                                                                             *
 * (1) THEORETICAL CHEMISTRY GROUP - UNIVERSITA' DI TORINO - TORINO (ITALY)    *
 * (2) SCIENTIFIC COMPUTING DEPARTMENT - STFC DARESBURY (UK)                   *
 * (3) UNIVERSIDAD AUTONOMA DEL ESTADO DE MORELOS - CUERNAVACA (MEXICO)        *
 * (4) UNIVERSITE' DE LORRAINE - NANCY (FRANCE)                                *
 * (5) UNIVERSITAET STUTTGART- STUTTGART (GERMANY)                             *
 * (6) IMPERIAL COLLEGE - LONDON (UK)                                          *
 * (7) SCIENTIFIC COMPUTING DEPARTMENT - STFC RAL (UK)                         *
 * (8) UPMC - SORBONNE UNIVERSITES - PARIS (FRANCE)                            *
 * (9) UNIVERSIDAD DE BARCELONA - BARCELONA (SPAIN)                            *
 *(10) UNIVERSITA' DI NAPOLI "FEDERICO II" - NAPOLI (ITALY)                    *
 *(11) NIS - NANOSTRUCTURED INTERFACES AND SURFACES - TORINO (ITALY)           *
 *(12) MPI FUER CHEMISCHE ENERGIEKONVERSION - MUELHEIM AN DER RUHR (GERMANY)   *
 *(13) UNIVERSITY OF TROMSO - TROMSO (NORWAY)                                  *
 *(14) UNIVERSITE' DE PAU ET DES PAYS DE L'ADOUR - PAU (FRANCE)                *
 *(15) UNIVERSITY OF CALIFORNIA SANTA BARBARA - SANTA BARBARA (USA)            *
 *(16) CURTIN UNIVERSITY - PERTH (AUSTRALIA)                                   *
 *(17) UNIVERSITY COLLEGE LONDON - LONDON (UK)                                 *
 *(18) UNIVERSITY OF VERMONT - BURLINGTON (USA)                                *
 *                                                                             *
 *******************************************************************************
 EEEEEEEEEE STARTING  DATE 19 02 2026 TIME 18:30:04.8
 cof-1_z35_L060_incl                                                             

 CRYSTAL CALCULATION
 (INPUT ACCORDING TO THE INTERNATIONAL TABLES FOR X-RAY CRYSTALLOGRAPHY)
 CRYSTAL FAMILY                       :  TRICLINIC   
 CRYSTAL CLASS  (GROTH - 1921)        :  TRICLINIC PEDIAL                     

 SPACE GROUP (NONCENTROSYMMETRIC)     :  P 1             

 LATTICE PARAMETERS  (ANGSTROMS AND DEGREES) - CONVENTIONAL CELL
        A           B           C        ALPHA        BETA       GAMMA
    15.02361    15.02392     6.94622    41.57549    89.99997   119.99596


 NUMBER OF IRREDUCIBLE ATOMS IN THE CONVENTIONAL CELL:   42

 INPUT COORDINATES

 ATOM AT. N.              COORDINATES
   1   5     4.980972500000E-01 -3.871870000000E-03  5.013596800000E-01
   2   5     6.571529000000E-01  1.551877900000E-01  5.013597000000E-01
   3   5     4.987545000000E-01  1.564937600000E-01  4.984902400000E-01
   4   5     1.116719500000E-01  3.824431300000E-01  5.013596900000E-01
   5   5     2.707799300000E-01  3.824223600000E-01  5.013596800000E-01
   6   5     2.714217300000E-01  5.428847400000E-01  4.984902400000E-01
   7   1     7.888317900000E-01  8.048318000000E-02  4.954107400000E-01
   8   1    -1.736757000000E-02  4.630260500000E-01  4.945010400000E-01
   9   1     7.890015900000E-01  3.661096000000E-01  4.943610400000E-01
  10   1    -1.724170000000E-02  1.777060100000E-01  4.943959600000E-01
  11   1     5.747069000000E-01 -1.356705400000E-01  5.045791300000E-01
  12   1     1.923944800000E-01  6.703431400000E-01  5.054888900000E-01
  13   1     2.893024500000E-01 -1.361087900000E-01  5.056289800000E-01
  14   1     4.777527800000E-01  6.702047600000E-01  5.055938300000E-01
  15   1     5.768609000000E-01  3.656073100000E-01  4.954107900000E-01
  16   1     1.949597400000E-01  1.775819700000E-01  4.945009900000E-01
  17   1     2.918707700000E-01  8.086048000000E-02  4.943609200000E-01
  18   1     4.803129700000E-01  4.629789500000E-01  4.943960700000E-01
  19   6     7.769927400000E-01  2.161251900000E-01  4.983852500000E-01
  20   6     8.322450100000E-01  1.642742000000E-01  4.955507300000E-01
  21   6    -6.079953000000E-02  3.787867800000E-01  4.953058700000E-01
  22   6     8.320950500000E-01  3.249548100000E-01  4.960407300000E-01
  23   6    -6.049507000000E-02  2.183839900000E-01  4.941510100000E-01
  24   6    -6.329230000000E-03  3.252821300000E-01  4.960756900000E-01
  25   6     4.383996500000E-01 -1.231345900000E-01  5.016046600000E-01
  26   6     4.908846200000E-01 -1.790541600000E-01  5.044391200000E-01
  27   6     2.764489700000E-01  7.139401100000E-01  5.046840800000E-01
  28   6     3.301072900000E-01 -1.787813400000E-01  5.039492500000E-01
  29   6     4.371009400000E-01  7.133680200000E-01  5.058388300000E-01
  30   6     3.297557000000E-01  6.596240200000E-01  5.039142100000E-01
  31   6     4.391473000000E-01  2.160560600000E-01  4.983852400000E-01
  32   6     4.929661100000E-01  3.251143300000E-01  4.955507900000E-01
  33   6     2.786357300000E-01  2.177735400000E-01  4.953058100000E-01
  34   6     3.319302200000E-01  1.639526500000E-01  4.960406500000E-01
  35   6     4.398215400000E-01  3.792319900000E-01  4.941510800000E-01
  36   6     3.315948600000E-01  3.252047300000E-01  4.960756900000E-01
  37   8     4.456374300000E-01  5.014872000000E-02  4.992600800000E-01
  38   8     6.031868000000E-01  4.736484000000E-02  5.053139300000E-01
  39   8     6.052900900000E-01  2.105215400000E-01  4.961806900000E-01
  40   8     1.652252500000E-01  4.894291900000E-01  4.992601100000E-01
  41   8     1.638490700000E-01  3.276821200000E-01  5.053139300000E-01
  42   8     3.248745200000E-01  4.908335100000E-01  4.961806600000E-01

 *******************************************************************************

 << INFORMATION >>: FROM NOW ON, ALL COORDINATES REFER TO THE PRIMITIVE CELL

 *******************************************************************************

 LATTICE PARAMETERS  (ANGSTROMS AND DEGREES) - PRIMITIVE CELL
       A          B          C        ALPHA      BETA     GAMMA        VOLUME
   15.02361   15.02392    6.94622    41.57549  89.99997 119.99596    684.192407

 COORDINATES OF THE EQUIVALENT ATOMS (FRACTIONAL UNITS)

 N. ATOM EQUIV AT. N.          X                  Y                  Z

   1   1   1    5 B     4.98097250000E-01 -3.87187000000E-03 -4.98640320000E-01

   2   2   1    5 B    -3.42847100000E-01  1.55187790000E-01 -4.98640300000E-01

   3   3   1    5 B     4.98754500000E-01  1.56493760000E-01  4.98490240000E-01

   4   4   1    5 B     1.11671950000E-01  3.82443130000E-01 -4.98640310000E-01

   5   5   1    5 B     2.70779930000E-01  3.82422360000E-01 -4.98640320000E-01

   6   6   1    5 B     2.71421730000E-01 -4.57115260000E-01  4.98490240000E-01

   7   7   1    1 H    -2.11168210000E-01  8.04831800000E-02  4.95410740000E-01

   8   8   1    1 H    -1.73675700000E-02  4.63026050000E-01  4.94501040000E-01

   9   9   1    1 H    -2.10998410000E-01  3.66109600000E-01  4.94361040000E-01

  10  10   1    1 H    -1.72417000000E-02  1.77706010000E-01  4.94395960000E-01

  11  11   1    1 H    -4.25293100000E-01 -1.35670540000E-01 -4.95420870000E-01

  12  12   1    1 H     1.92394480000E-01 -3.29656860000E-01 -4.94511110000E-01

  13  13   1    1 H     2.89302450000E-01 -1.36108790000E-01 -4.94371020000E-01

  14  14   1    1 H     4.77752780000E-01 -3.29795240000E-01 -4.94406170000E-01

  15  15   1    1 H    -4.23139100000E-01  3.65607310000E-01  4.95410790000E-01

  16  16   1    1 H     1.94959740000E-01  1.77581970000E-01  4.94500990000E-01

  17  17   1    1 H     2.91870770000E-01  8.08604800000E-02  4.94360920000E-01

  18  18   1    1 H     4.80312970000E-01  4.62978950000E-01  4.94396070000E-01

  19  19   1    6 C    -2.23007260000E-01  2.16125190000E-01  4.98385250000E-01

  20  20   1    6 C    -1.67754990000E-01  1.64274200000E-01  4.95550730000E-01

  21  21   1    6 C    -6.07995300000E-02  3.78786780000E-01  4.95305870000E-01

  22  22   1    6 C    -1.67904950000E-01  3.24954810000E-01  4.96040730000E-01

  23  23   1    6 C    -6.04950700000E-02  2.18383990000E-01  4.94151010000E-01

  24  24   1    6 C    -6.32923000000E-03  3.25282130000E-01  4.96075690000E-01

  25  25   1    6 C     4.38399650000E-01 -1.23134590000E-01 -4.98395340000E-01

  26  26   1    6 C     4.90884620000E-01 -1.79054160000E-01 -4.95560880000E-01

  27  27   1    6 C     2.76448970000E-01 -2.86059890000E-01 -4.95315920000E-01

  28  28   1    6 C     3.30107290000E-01 -1.78781340000E-01 -4.96050750000E-01

  29  29   1    6 C     4.37100940000E-01 -2.86631980000E-01 -4.94161170000E-01

  30  30   1    6 C     3.29755700000E-01 -3.40375980000E-01 -4.96085790000E-01

  31  31   1    6 C     4.39147300000E-01  2.16056060000E-01  4.98385240000E-01

  32  32   1    6 C     4.92966110000E-01  3.25114330000E-01  4.95550790000E-01

  33  33   1    6 C     2.78635730000E-01  2.17773540000E-01  4.95305810000E-01

  34  34   1    6 C     3.31930220000E-01  1.63952650000E-01  4.96040650000E-01

  35  35   1    6 C     4.39821540000E-01  3.79231990000E-01  4.94151080000E-01

  36  36   1    6 C     3.31594860000E-01  3.25204730000E-01  4.96075690000E-01

  37  37   1    8 O     4.45637430000E-01  5.01487200000E-02  4.99260080000E-01

  38  38   1    8 O    -3.96813200000E-01  4.73648400000E-02 -4.94686070000E-01

  39  39   1    8 O    -3.94709910000E-01  2.10521540000E-01  4.96180690000E-01

  40  40   1    8 O     1.65225250000E-01  4.89429190000E-01  4.99260110000E-01

  41  41   1    8 O     1.63849070000E-01  3.27682120000E-01 -4.94686070000E-01

  42  42   1    8 O     3.24874520000E-01  4.90833510000E-01  4.96180660000E-01

 NUMBER OF SYMMETRY OPERATORS         :    1
 *******************************************************************************
 * GEOMETRY EDITING - INPUT COORDINATES ARE GIVEN IN ANGSTROM         
 *******************************************************************************

 GCALCO - MAX INDICES DIRECT LATTICE VECTOR     9    13    26
 NO.OF VECTORS CREATED 6999 STARS 3500 RMAX   203.07409 BOHR

 GEOMETRY FOR WAVE FUNCTION - DIMENSIONALITY OF THE SYSTEM    3
 (NON PERIODIC DIRECTION: LATTICE PARAMETER FORMALLY SET TO 500)
 *******************************************************************************
 LATTICE PARAMETERS (ANGSTROMS AND DEGREES) - BOHR = 0.5291772083 ANGSTROM
 PRIMITIVE CELL - CENTRING CODE 1/0 VOLUME=   684.192407 - DENSITY  0.947 g/cm^3
         A              B              C           ALPHA      BETA       GAMMA 
    15.02361100    15.02391600     6.94622200    41.575489  89.999972 119.995964
 *******************************************************************************
 ATOMS IN THE ASYMMETRIC UNIT   42 - ATOMS IN THE UNIT CELL:   42
     ATOM                 X/A                 Y/B                 Z/C    
 *******************************************************************************
      1 T   5 B     4.980972500000E-01 -3.871870000000E-03 -4.986403200000E-01
      2 T   5 B    -3.428471000000E-01  1.551877900000E-01 -4.986403000000E-01
      3 T   5 B     4.987545000000E-01  1.564937600000E-01  4.984902400000E-01
      4 T   5 B     1.116719500000E-01  3.824431300000E-01 -4.986403100000E-01
      5 T   5 B     2.707799300000E-01  3.824223600000E-01 -4.986403200000E-01
      6 T   5 B     2.714217300000E-01 -4.571152600000E-01  4.984902400000E-01
      7 T   1 H    -2.111682100000E-01  8.048318000000E-02  4.954107400000E-01
      8 T   1 H    -1.736757000000E-02  4.630260500000E-01  4.945010400000E-01
      9 T   1 H    -2.109984100000E-01  3.661096000000E-01  4.943610400000E-01
     10 T   1 H    -1.724170000000E-02  1.777060100000E-01  4.943959600000E-01
     11 T   1 H    -4.252931000000E-01 -1.356705400000E-01 -4.954208700000E-01
     12 T   1 H     1.923944800000E-01 -3.296568600000E-01 -4.945111100000E-01
     13 T   1 H     2.893024500000E-01 -1.361087900000E-01 -4.943710200000E-01
     14 T   1 H     4.777527800000E-01 -3.297952400000E-01 -4.944061700000E-01
     15 T   1 H    -4.231391000000E-01  3.656073100000E-01  4.954107900000E-01
     16 T   1 H     1.949597400000E-01  1.775819700000E-01  4.945009900000E-01
     17 T   1 H     2.918707700000E-01  8.086048000000E-02  4.943609200000E-01
     18 T   1 H     4.803129700000E-01  4.629789500000E-01  4.943960700000E-01
     19 T   6 C    -2.230072600000E-01  2.161251900000E-01  4.983852500000E-01
     20 T   6 C    -1.677549900000E-01  1.642742000000E-01  4.955507300000E-01
     21 T   6 C    -6.079953000000E-02  3.787867800000E-01  4.953058700000E-01
     22 T   6 C    -1.679049500000E-01  3.249548100000E-01  4.960407300000E-01
     23 T   6 C    -6.049507000000E-02  2.183839900000E-01  4.941510100000E-01
     24 T   6 C    -6.329230000000E-03  3.252821300000E-01  4.960756900000E-01
     25 T   6 C     4.383996500000E-01 -1.231345900000E-01 -4.983953400000E-01
     26 T   6 C     4.908846200000E-01 -1.790541600000E-01 -4.955608800000E-01
     27 T   6 C     2.764489700000E-01 -2.860598900000E-01 -4.953159200000E-01
     28 T   6 C     3.301072900000E-01 -1.787813400000E-01 -4.960507500000E-01
     29 T   6 C     4.371009400000E-01 -2.866319800000E-01 -4.941611700000E-01
     30 T   6 C     3.297557000000E-01 -3.403759800000E-01 -4.960857900000E-01
     31 T   6 C     4.391473000000E-01  2.160560600000E-01  4.983852400000E-01
     32 T   6 C     4.929661100000E-01  3.251143300000E-01  4.955507900000E-01
     33 T   6 C     2.786357300000E-01  2.177735400000E-01  4.953058100000E-01
     34 T   6 C     3.319302200000E-01  1.639526500000E-01  4.960406500000E-01
     35 T   6 C     4.398215400000E-01  3.792319900000E-01  4.941510800000E-01
     36 T   6 C     3.315948600000E-01  3.252047300000E-01  4.960756900000E-01
     37 T   8 O     4.456374300000E-01  5.014872000000E-02  4.992600800000E-01
     38 T   8 O    -3.968132000000E-01  4.736484000000E-02 -4.946860700000E-01
     39 T   8 O    -3.947099100000E-01  2.105215400000E-01  4.961806900000E-01
     40 T   8 O     1.652252500000E-01  4.894291900000E-01  4.992601100000E-01
     41 T   8 O     1.638490700000E-01  3.276821200000E-01 -4.946860700000E-01
     42 T   8 O     3.248745200000E-01  4.908335100000E-01  4.961806600000E-01

 T = ATOM BELONGING TO THE ASYMMETRIC UNIT

 ****    1 SYMMOPS - TRANSLATORS IN FRACTIONAL UNITS
 **** MATRICES AND TRANSLATORS IN THE CRYSTALLOGRAPHIC REFERENCE FRAME
   V INV                    ROTATION MATRICES                   TRANSLATORS
   1   1  1.00 -0.00  0.00  0.00  1.00  0.00  0.00  0.00  1.00  0.00  0.00  0.00

 DIRECT LATTICE VECTORS CARTESIAN COMPONENTS (ANGSTROM)
          X                    Y                    Z
   0.130113578931E+02  -0.751088897922E+01   0.000000000000E+00
   0.000000000000E+00   0.150239160000E+02   0.000000000000E+00
   0.299962648444E+01   0.519634398058E+01   0.350003575162E+01


 CARTESIAN COORDINATES - PRIMITIVE CELL
 *******************************************************************************
 *      ATOM          X(ANGSTROM)         Y(ANGSTROM)         Z(ANGSTROM)
 *******************************************************************************
    1     5 B     1.985560390772E+00  3.437141598868E+00 -5.245294698817E+00
    2     5 B    -5.956640970787E+00  2.315508304752E+00 -1.745258877198E+00
    3     5 B    -2.026973582202E+00 -1.121296854822E+00  5.244769413451E+00
    4     5 B    -4.273097202104E-02  2.315931268011E+00 -1.745258912198E+00
    5     5 B     2.027479869404E+00  1.120576795825E+00 -1.745258947198E+00
    6     5 B     2.027223310680E+00  3.511619028287E+00 -1.755302089786E+00
    7     1 H    -4.261164464007E+00  1.732141531165E-01 -1.766080449883E+00
    8     1 H    -1.742283737277E+00  4.460163893135E+00 -1.769264432406E+00
    9     1 H     1.737149125527E+00 -1.735164954881E-01  5.230317065826E+00
   10     1 H    -1.740961198410E+00  1.720481516373E-01 -1.769632216163E+00
   11     1 H    -4.020091811703E+00  3.777993185994E+00  1.766044994521E+00
   12     1 H    -1.979661670921E+00  8.601316366839E-01 -5.230842316191E+00
   13     1 H     5.280915795998E+00 -1.590383504557E+00  1.769719507054E+00
   14     1 H     1.733552078937E+00 -1.284696579073E+00 -5.230475022439E+00
   15     1 H    -1.019940457841E+00  1.417757174402E+00  5.233991228356E+00
   16     1 H     1.020382733622E+00 -1.423091099965E+00 -1.769264607408E+00
   17     1 H     2.280906671055E+00 -3.604842480213E+00 -1.769754857415E+00
   18     1 H     4.732901014281E+00  7.208875234074E-01 -1.769631831159E+00
   19     6 C    -4.406284161697E+00  2.315466684731E+00 -1.755669558539E+00
   20     6 C    -3.695879603586E+00  1.106738959694E+00 -1.765590479878E+00
   21     6 C    -2.304978323450E+00  3.524954979990E+00 -1.766447498632E+00
   22     6 C    -3.696360969838E+00  3.524463488625E+00 -1.763875462360E+00
   23     6 C    -2.304481034068E+00  1.106789121796E+00 -1.770489549920E+00
   24     6 C    -1.593936583148E+00  2.315985486339E+00 -1.763753101110E+00
   25     6 C     1.209548400312E+00  2.095003557930E+00 -5.244437260058E+00
   26     6 C     1.900951450273E+00  8.753926819059E-01 -5.234516548722E+00
   27     6 C    -8.884127484035E-01  8.796228396248E-01 -5.233659179964E+00
   28     6 C    -1.924493584729E-01  2.084526649648E+00 -5.236231111236E+00
   29     6 C     1.205351348174E+00 -3.296108252305E-01 -5.229617513680E+00
   30     6 C    -1.971291287065E-01 -3.407989741991E-01 -5.236353752488E+00
   31     6 C     4.209245768986E+00 -2.658941357788E+00 -1.755669593540E+00
   32     6 C     4.900999275986E+00 -1.439414954302E+00 -1.765590269876E+00
   33     6 C     2.111535145955E+00 -1.443555277930E+00 -1.766447708634E+00
   34     6 C     2.807173074599E+00 -2.648626324519E+00 -1.763875742362E+00
   35     6 C     4.205317648457E+00 -2.344661858600E-01 -1.770489304918E+00
   36     6 C     2.802914692528E+00 -2.232876881525E-01 -1.763753101110E+00
   37     8 O    -2.715789557749E+00 -2.316059033678E+00  5.247463880974E+00
   38     8 O    -6.646951998946E+00  1.121466286080E+00 -1.731418930828E+00
   39     8 O    -6.477286797109E-01 -1.121766231502E+00  5.236685905881E+00
   40     8 O     6.477722248590E-01  3.510137815957E+00 -1.752607517261E+00
   41     8 O     6.480254531578E-01  1.121857489343E+00 -1.731418930828E+00
   42     8 O     2.715788814417E+00  2.316126377620E+00 -1.763385702357E+00

 *******************************************************************************
 STARTING BASIS SET HANDLING 
 *******************************************************************************

 Loading internal basis set: SOLDEF2MSVP         

 Please cite in your publication:
 L. Dona', J. G. Brandenburg and B. Civalleri, J. Chem. Phys., 151, 121101 (2019
 )                                                                              
                                                                                
                    

 *******************************************************************************
 LOCAL ATOMIC FUNCTIONS BASIS SET
 *******************************************************************************
   ATOM   X(AU)   Y(AU)   Z(AU)  N. TYPE  EXPONENT  S COEF   P COEF   D/F/G COEF
 *******************************************************************************
   1 B    3.752   6.495  -9.912
                                  1 S  
                                         2.410E+03 1.755E-03 0.000E+00 0.000E+00
                                         3.619E+02 1.344E-02 0.000E+00 0.000E+00
                                         8.231E+01 6.637E-02 0.000E+00 0.000E+00
                                         2.311E+01 2.303E-01 0.000E+00 0.000E+00
                                         7.252E+00 5.150E-01 0.000E+00 0.000E+00
                                  2 S  
                                         2.367E+00 1.000E+00 0.000E+00 0.000E+00
                                  3 S  
                                         5.533E-01 1.000E+00 0.000E+00 0.000E+00
                                  4 S  
                                         1.716E-01 1.000E+00 0.000E+00 0.000E+00
                           5-     7 P  
                                         6.002E+00 0.000E+00-3.555E-02 0.000E+00
                                         1.240E+00 0.000E+00-1.983E-01 0.000E+00
                                         3.367E-01 0.000E+00-5.048E-01 0.000E+00
                           8-    10 P  
                                         1.256E-01 0.000E+00 1.000E+00 0.000E+00
                          11-    15 D  
                                         8.880E-01 0.000E+00 0.000E+00 1.000E+00
   2 B  -11.256   4.376  -3.298
   3 B   -3.830  -2.119   9.911
   4 B   -0.081   4.376  -3.298
   5 B    3.831   2.118  -3.298
   6 B    3.831   6.636  -3.317
   7 H   -8.052   0.327  -3.337
                                 91 S  
                                         1.874E+01 1.968E-02 0.000E+00 0.000E+00
                                         2.826E+00 1.380E-01 0.000E+00 0.000E+00
                                         6.401E-01 4.783E-01 0.000E+00 0.000E+00
                                 92 S  
                                         1.756E-01 1.000E+00 0.000E+00 0.000E+00
   8 H   -3.292   8.428  -3.343
   9 H    3.283  -0.328   9.884
  10 H   -3.290   0.325  -3.344
  11 H   -7.597   7.139   3.337
  12 H   -3.741   1.625  -9.885
  13 H    9.979  -3.005   3.344
  14 H    3.276  -2.428  -9.884
  15 H   -1.927   2.679   9.891
  16 H    1.928  -2.689  -3.343
  17 H    4.310  -6.812  -3.344
  18 H    8.944   1.362  -3.344
  19 C   -8.327   4.376  -3.318
                                115 S  
                                         3.624E+03 1.634E-03 0.000E+00 0.000E+00
                                         5.440E+02 1.252E-02 0.000E+00 0.000E+00
                                         1.237E+02 6.211E-02 0.000E+00 0.000E+00
                                         3.476E+01 2.182E-01 0.000E+00 0.000E+00
                                         1.093E+01 4.980E-01 0.000E+00 0.000E+00
                                116 S  
                                         3.574E+00 1.000E+00 0.000E+00 0.000E+00
                                117 S  
                                         7.742E-01 1.000E+00 0.000E+00 0.000E+00
                                118 S  
                                         2.330E-01 1.000E+00 0.000E+00 0.000E+00
                         119-   121 P  
                                         9.443E+00 0.000E+00 3.790E-02 0.000E+00
                                         2.002E+00 0.000E+00 2.082E-01 0.000E+00
                                         5.463E-01 0.000E+00 5.047E-01 0.000E+00
                         122-   124 P  
                                         1.820E-01 0.000E+00 1.000E+00 0.000E+00
                         125-   129 D  
                                         8.880E-01 0.000E+00 0.000E+00 1.000E+00
  20 C   -6.984   2.091  -3.336
  21 C   -4.356   6.661  -3.338
  22 C   -6.985   6.660  -3.333
  23 C   -4.355   2.092  -3.346
  24 C   -3.012   4.377  -3.333
  25 C    2.286   3.959  -9.911
  26 C    3.592   1.654  -9.892
  27 C   -1.679   1.662  -9.890
  28 C   -0.364   3.939  -9.895
  29 C    2.278  -0.623  -9.883
  30 C   -0.373  -0.644  -9.895
  31 C    7.954  -5.025  -3.318
  32 C    9.262  -2.720  -3.336
  33 C    3.990  -2.728  -3.338
  34 C    5.305  -5.005  -3.333
  35 C    7.947  -0.443  -3.346
  36 C    5.297  -0.422  -3.333
  37 O   -5.132  -4.377   9.916
                                385 S  
                                         6.773E+03 1.727E-03 0.000E+00 0.000E+00
                                         1.017E+03 1.325E-02 0.000E+00 0.000E+00
                                         2.313E+02 6.603E-02 0.000E+00 0.000E+00
                                         6.501E+01 2.353E-01 0.000E+00 0.000E+00
                                         2.050E+01 5.498E-01 0.000E+00 0.000E+00
                                386 S  
                                         6.716E+00 1.000E+00 0.000E+00 0.000E+00
                                387 S  
                                         1.147E+00 1.000E+00 0.000E+00 0.000E+00
                                388 S  
                                         3.342E-01 1.000E+00 0.000E+00 0.000E+00
                         389-   391 P  
                                         1.769E+01 0.000E+00 4.359E-02 0.000E+00
                                         3.854E+00 0.000E+00 2.318E-01 0.000E+00
                                         1.047E+00 0.000E+00 5.146E-01 0.000E+00
                         392-   394 P  
                                         2.759E-01 0.000E+00 1.000E+00 0.000E+00
                         395-   399 D  
                                         8.000E-01 0.000E+00 0.000E+00 1.000E+00
  38 O  -12.561   2.119  -3.272
  39 O   -1.224  -2.120   9.896
  40 O    1.224   6.633  -3.312
  41 O    1.225   2.120  -3.272
  42 O    5.132   4.377  -3.332

 *******************************************************************************
 FINISHED BASIS SET HANDLING 
 *******************************************************************************

 INFORMATION **** SET_MPP **** PCRYSTAL CALCULATION
 INFORMATION **** READM2 **** NEW DEFAULT: FOCK/KS MATRIX MIXING SET TO 30 %
 INFORMATION **** READM2 **** NEW DEFAULT: FULL DIRECT SCF MODE
 INFORMATION **** READM2 **** NEW DEFAULT: COULOMB BIPOLAR BUFFER SET TO 32 Mb
 INFORMATION **** READM2 **** NEW DEFAULT: EXCHANGE BIPOLAR BUFFER SET TO 32 Mb

 *******************************************************************************
 NEW DEFAULT: DFT INTEGRATION GRID INCREASED TO XLGRID
 NEW DEFAULT: DIIS ACCELERATOR ACTIVE
 USE KEYWORD NODIIS TO TURN IT OFF
 *******************************************************************************

 WARNING **** RDDFTP **** HSEsol-HJS ACTIVE
 RANGE SEPARATION - OMEGA:   0.110000000000000     
 WARNING **** RDDFTP **** HSEsol-3c has to be combined with sol-def2-mSVP basis set
 *******************************************************************************
 N. OF ATOMS PER CELL        42  COULOMB OVERLAP TOL         (T1) 10**   -6
 NUMBER OF SHELLS           234  COULOMB PENETRATION TOL     (T2) 10**   -6
 NUMBER OF AO               474  EXCHANGE OVERLAP TOL        (T3) 10**   -6
 N. OF ELECTRONS PER CELL   198  EXCHANGE PSEUDO OVP (F(G))  (T4) 10**   -6
 CORE ELECTRONS PER CELL     60  EXCHANGE PSEUDO OVP (P(G))  (T5) 10**  -12
 N. OF SYMMETRY OPERATORS     1  POLE ORDER IN MONO ZONE                  4
 *******************************************************************************
 TYPE OF CALCULATION :  RESTRICTED CLOSED SHELL
 KOHN-SHAM HAMILTONIAN

 (EXCHANGE)[CORRELATION] FUNCTIONAL:(HSEsol GGA)[PBEsol]

 RANGE-SEPARATED HYBRID FUNCTIONAL 
 OMEGA (SHORT-RANGE)[LONG-RANGE]:(    0.1100)[    0.0000]

 HYBRID EXCHANGE - PERCENTAGE OF FOCK EXCHANGE    25.0000

 CAPPA:IS1  2;IS2  2;IS3  8; K PTS MONK NET  20; SYMMOPS:K SPACE   2;G SPACE   1

 *******************************************************************************
 MAX NUMBER OF SCF CYCLES      50  CONVERGENCE ON DELTAP        10**-16
 WEIGHT OF F(I) IN F(I+1)      30% CONVERGENCE ON ENERGY        10**- 6
 SHRINK. FACT.(MONKH.)    2  2  8  NUMBER OF K POINTS IN THE IBZ     20
 SHRINKING FACTOR(GILAT NET)    8  NUMBER OF K POINTS(GILAT NET)   1028
 *******************************************************************************
 *** K POINTS COORDINATES (OBLIQUE COORDINATES IN UNITS OF IS =  2)
   1-R(  0  0  0)   2-R(  1  0  0)   3-R(  0  1  0)   4-R(  1  1  0)
   5-C(  0  0  1)   6-C(  1  0  1)   7-C(  0  1  1)   8-C(  1  1  1)
   9-C(  0  0  2)  10-C(  1  0  2)  11-C(  0  1  2)  12-C(  1  1  2)
  13-C(  0  0  3)  14-C(  1  0  3)  15-C(  0  1  3)  16-C(  1  1  3)
  17-R(  0  0  4)  18-R(  1  0  4)  19-R(  0  1  4)  20-R(  1  1  4)

 DIRECT LATTICE VECTORS COMPON. (A.U.)     RECIP. LATTICE VECTORS COMPON. (A.U.) 
        X            Y            Z              X            Y            Z
   24.5879030  -14.1935232    0.0000000      0.2555397    0.0000000   -0.2190045
    0.0000000   28.3910867    0.0000000      0.1277517    0.2213084   -0.4380532
    5.6684726    9.8196670    6.6141090      0.0000000    0.0000000    0.9499670

 DISK SPACE FOR EIGENVECTORS (FTN 10)     7189632 REALS

 SYMMETRY ADAPTION OF THE BLOCH FUNCTIONS DISABLED
 TTTTTTTTTTTTTTTTTTTTTTTTTTTTTT gordsh1     TELAPSE        0.04 TCPU        0.04

 MATRIX SIZE: P(G)  338980, F(G)   66161, P(G) IRR  170729, F(G) IRR   66677
 MAX G-VECTOR INDEX FOR 1- AND 2-ELECTRON INTEGRALS  63

 TTTTTTTTTTTTTTTTTTTTTTTTTTTTTT INPUT       TELAPSE        0.41 TCPU        0.40

 NEIGHBORS OF THE NON-EQUIVALENT ATOMS

 N = NUMBER OF NEIGHBORS AT DISTANCE R
    ATOM  N     R/ANG      R/AU   NEIGHBORS (ATOM LABELS AND CELL INDICES)
   1 B    1     1.3791     2.6061   37 O    1 2-3
   1 B    1     1.3793     2.6065   38 O    1 1-1
   1 B    1     1.5503     2.9297   25 C    0 0 0
   1 B    1     2.3895     4.5155    3 B    1 2-3
   1 B    1     2.3898     4.5160    2 B    1 1-1
   1 B    1     2.5632     4.8437   26 C    0 0 0

   2 B    1     1.3793     2.6065   39 O    0 1-2
   2 B    1     1.3793     2.6065   38 O    0 0 0
   2 B    1     1.5504     2.9298   19 C    0 0 0
   2 B    1     2.3895     4.5156    3 B    0 1-2
   2 B    1     2.3898     4.5160    1 B   -1-1 1
   2 B    1     2.5634     4.8440   22 C    0 0 0

   3 B    1     1.3791     2.6061   37 O    0 0 0
   3 B    1     1.3793     2.6064   39 O    0 0 0
   3 B    1     1.5502     2.9294   31 C   -1-1 2
   3 B    1     2.3895     4.5155    1 B   -1-2 3
   3 B    1     2.3895     4.5156    2 B    0-1 2
   3 B    1     2.5629     4.8433   32 C   -1-1 2

   4 B    1     1.3795     2.6068   40 O    0 0 0
   4 B    1     1.3795     2.6070   41 O    0 0 0
   4 B    1     1.5513     2.9316   24 C    0 0 0
   4 B    1     2.3905     4.5174    6 B    0 0 0
   4 B    1     2.3905     4.5175    5 B    0 0 0
   4 B    1     2.5648     4.8468   23 C    0 0 0

   5 B    1     1.3795     2.6069   41 O    0 0 0
   5 B    1     1.3797     2.6072   42 O    0 0 0
   5 B    1     1.5516     2.9322   36 C    0 0 0
   5 B    1     2.3905     4.5175    4 B    0 0 0
   5 B    1     2.3911     4.5185    6 B    0 0 0
   5 B    1     2.5651     4.8473   35 C    0 0 0

   6 B    1     1.3795     2.6068   40 O    0 0 0
   6 B    1     1.3796     2.6071   42 O    0 0 0
   6 B    1     1.5516     2.9322   30 C    0 0 1
   6 B    1     2.3905     4.5174    4 B    0 0 0
   6 B    1     2.3911     4.5185    5 B    0 0 0
   6 B    1     2.5651     4.8473   29 C    0 0 1

   7 H    1     1.0913     2.0623   20 C    0 0 0
   7 H    1     2.1472     4.0576   19 C    0 0 0
   7 H    1     2.1680     4.0969   23 C    0 0 0
   7 H    1     2.5202     4.7625   10 H    0 0 0
   7 H    1     2.5676     4.8520   38 O    0 0 0
   7 H    1     2.7321     5.1630    2 B    0 0 0

   8 H    1     1.0914     2.0625   21 C    0 0 0
   8 H    1     2.1493     4.0616   24 C    0 0 0
   8 H    1     2.1666     4.0942   22 C    0 0 0
   8 H    1     2.5198     4.7618    9 H    0 1-2
   8 H    1     2.5720     4.8604   40 O    0 0 0
   8 H    1     2.7362     5.1707    4 B    0 0 0

   9 H    1     1.0914     2.0624   22 C    0-1 2
   9 H    1     2.1471     4.0575   19 C    0-1 2
   9 H    1     2.1680     4.0970   21 C    0-1 2
   9 H    1     2.5198     4.7618    8 H    0-1 2
   9 H    1     2.5665     4.8500   39 O    0 0 0
   9 H    1     2.7315     5.1618    2 B    0-1 2

  10 H    1     1.0915     2.0626   23 C    0 0 0
  10 H    1     2.1490     4.0610   24 C    0 0 0
  10 H    1     2.1669     4.0948   20 C    0 0 0
  10 H    1     2.5202     4.7625    7 H    0 0 0
  10 H    1     2.5712     4.8588   41 O    0 0 0
  10 H    1     2.7351     5.1686    4 B    0 0 0

  11 H    1     1.0913     2.0623   26 C   -1-1 2
  11 H    1     2.1469     4.0571   25 C   -1-1 2
  11 H    1     2.1680     4.0968   29 C   -1-1 2
  11 H    1     2.5198     4.7617   14 H   -1-1 2
  11 H    1     2.5670     4.8510   38 O    0 0 1
  11 H    1     2.7310     5.1609    1 B   -1-1 2

  12 H    1     1.0914     2.0625   27 C    0 0 0
  12 H    1     2.1493     4.0617   30 C    0 0 0
  12 H    1     2.1664     4.0939   28 C    0 0 0
  12 H    1     2.5192     4.7606   13 H    0 1-2
  12 H    1     2.5735     4.8632   40 O    0 0-1
  12 H    1     2.7371     5.1723    6 B    0 0-1

  13 H    1     1.0914     2.0624   28 C    0-1 2
  13 H    1     2.1475     4.0581   25 C    0-1 2
  13 H    1     2.1679     4.0967   27 C    0-1 2
  13 H    1     2.5192     4.7606   12 H    0-1 2
  13 H    1     2.5675     4.8519   37 O    1 1-1
  13 H    1     2.7328     5.1643    1 B    0-1 2

  14 H    1     1.0914     2.0625   29 C    0 0 0
  14 H    1     2.1491     4.0612   30 C    0 0 0
  14 H    1     2.1666     4.0942   26 C    0 0 0
  14 H    1     2.5198     4.7617   11 H    1 1-2
  14 H    1     2.5723     4.8609   42 O    0 0-1
  14 H    1     2.7355     5.1693    6 B    0 0-1

  15 H    1     1.0914     2.0624   32 C   -1-1 2
  15 H    1     2.1475     4.0582   31 C   -1-1 2
  15 H    1     2.1678     4.0966   35 C   -1-1 2
  15 H    1     2.5200     4.7621   18 H   -1-1 2
  15 H    1     2.5667     4.8503   39 O    0 0 0
  15 H    1     2.7315     5.1618    3 B    0 0 0

  16 H    1     1.0913     2.0623   33 C    0 0 0
  16 H    1     2.1487     4.0605   36 C    0 0 0
  16 H    1     2.1667     4.0945   34 C    0 0 0
  16 H    1     2.5197     4.7616   17 H    0 0 0
  16 H    1     2.5723     4.8610   41 O    0 0 0
  16 H    1     2.7359     5.1701    5 B    0 0 0

  17 H    1     1.0915     2.0626   34 C    0 0 0
  17 H    1     2.1479     4.0589   31 C    0 0 0
  17 H    1     2.1679     4.0968   33 C    0 0 0
  17 H    1     2.5197     4.7616   16 H    0 0 0
  17 H    1     2.5677     4.8522   37 O    1 1-2
  17 H    1     2.7331     5.1648    3 B    1 1-2

  18 H    1     1.0914     2.0624   35 C    0 0 0
  18 H    1     2.1486     4.0602   36 C    0 0 0
  18 H    1     2.1668     4.0947   32 C    0 0 0
  18 H    1     2.5200     4.7621   15 H    1 1-2
  18 H    1     2.5717     4.8598   42 O    0 0 0
  18 H    1     2.7349     5.1682    5 B    0 0 0

  19 C    1     1.4020     2.6495   22 C    0 0 0
  19 C    1     1.4021     2.6495   20 C    0 0 0
  19 C    1     1.5504     2.9298    2 B    0 0 0
  19 C    1     2.1471     4.0575    9 H    0 1-2
  19 C    1     2.1472     4.0576    7 H    0 0 0
  19 C    1     2.4246     4.5817   21 C    0 0 0

  20 C    1     1.0913     2.0623    7 H    0 0 0
  20 C    1     1.3914     2.6294   23 C    0 0 0
  20 C    1     1.4021     2.6495   19 C    0 0 0
  20 C    1     2.1669     4.0948   10 H    0 0 0
  20 C    1     2.4177     4.5688   22 C    0 0 0
  20 C    1     2.4250     4.5825   24 C    0 0 0

  21 C    1     1.0914     2.0625    8 H    0 0 0
  21 C    1     1.3914     2.6293   22 C    0 0 0
  21 C    1     1.4026     2.6505   24 C    0 0 0
  21 C    1     2.1680     4.0970    9 H    0 1-2
  21 C    1     2.4182     4.5697   23 C    0 0 0
  21 C    1     2.4246     4.5817   19 C    0 0 0

  22 C    1     1.0914     2.0624    9 H    0 1-2
  22 C    1     1.3914     2.6293   21 C    0 0 0
  22 C    1     1.4020     2.6495   19 C    0 0 0
  22 C    1     2.1666     4.0942    8 H    0 0 0
  22 C    1     2.4177     4.5688   20 C    0 0 0
  22 C    1     2.4250     4.5826   24 C    0 0 0

  23 C    1     1.0915     2.0626   10 H    0 0 0
  23 C    1     1.3914     2.6294   20 C    0 0 0
  23 C    1     1.4025     2.6504   24 C    0 0 0
  23 C    1     2.1680     4.0969    7 H    0 0 0
  23 C    1     2.4182     4.5697   21 C    0 0 0
  23 C    1     2.4246     4.5818   19 C    0 0 0

  24 C    1     1.4025     2.6504   23 C    0 0 0
  24 C    1     1.4026     2.6505   21 C    0 0 0
  24 C    1     1.5513     2.9316    4 B    0 0 0
  24 C    1     2.1490     4.0610   10 H    0 0 0
  24 C    1     2.1493     4.0616    8 H    0 0 0
  24 C    1     2.4250     4.5825   20 C    0 0 0

  25 C    1     1.4020     2.6494   26 C    0 0 0
  25 C    1     1.4021     2.6495   28 C    0 0 0
  25 C    1     1.5503     2.9297    1 B    0 0 0
  25 C    1     2.1469     4.0571   11 H    1 1-2
  25 C    1     2.1475     4.0581   13 H    0 1-2
  25 C    1     2.4246     4.5818   27 C    0 0 0

  26 C    1     1.0913     2.0623   11 H    1 1-2
  26 C    1     1.3914     2.6293   29 C    0 0 0
  26 C    1     1.4020     2.6494   25 C    0 0 0
  26 C    1     2.1666     4.0942   14 H    0 0 0
  26 C    1     2.4175     4.5684   28 C    0 0 0
  26 C    1     2.4251     4.5828   30 C    0 0 0

  27 C    1     1.0914     2.0625   12 H    0 0 0
  27 C    1     1.3915     2.6295   28 C    0 0 0
  27 C    1     1.4026     2.6505   30 C    0 0 0
  27 C    1     2.1679     4.0967   13 H    0 1-2
  27 C    1     2.4179     4.5691   29 C    0 0 0
  27 C    1     2.4246     4.5818   25 C    0 0 0

  28 C    1     1.0914     2.0624   13 H    0 1-2
  28 C    1     1.3915     2.6295   27 C    0 0 0
  28 C    1     1.4021     2.6495   25 C    0 0 0
  28 C    1     2.1664     4.0939   12 H    0 0 0
  28 C    1     2.4175     4.5684   26 C    0 0 0
  28 C    1     2.4253     4.5832   30 C    0 0 0

  29 C    1     1.0914     2.0625   14 H    0 0 0
  29 C    1     1.3914     2.6293   26 C    0 0 0
  29 C    1     1.4025     2.6504   30 C    0 0 0
  29 C    1     2.1680     4.0968   11 H    1 1-2
  29 C    1     2.4179     4.5691   27 C    0 0 0
  29 C    1     2.4247     4.5819   25 C    0 0 0

  30 C    1     1.4025     2.6504   29 C    0 0 0
  30 C    1     1.4026     2.6505   27 C    0 0 0
  30 C    1     1.5516     2.9322    6 B    0 0-1
  30 C    1     2.1491     4.0612   14 H    0 0 0
  30 C    1     2.1493     4.0617   12 H    0 0 0
  30 C    1     2.4251     4.5828   26 C    0 0 0

  31 C    1     1.4021     2.6496   32 C    0 0 0
  31 C    1     1.4021     2.6497   34 C    0 0 0
  31 C    1     1.5502     2.9294    3 B    1 1-2
  31 C    1     2.1475     4.0582   15 H    1 1-2
  31 C    1     2.1479     4.0589   17 H    0 0 0
  31 C    1     2.4244     4.5814   33 C    0 0 0

  32 C    1     1.0914     2.0624   15 H    1 1-2
  32 C    1     1.3914     2.6293   35 C    0 0 0
  32 C    1     1.4021     2.6496   31 C    0 0 0
  32 C    1     2.1668     4.0947   18 H    0 0 0
  32 C    1     2.4179     4.5692   34 C    0 0 0
  32 C    1     2.4251     4.5827   36 C    0 0 0

  33 C    1     1.0913     2.0623   16 H    0 0 0
  33 C    1     1.3914     2.6294   34 C    0 0 0
  33 C    1     1.4025     2.6504   36 C    0 0 0
  33 C    1     2.1679     4.0968   17 H    0 0 0
  33 C    1     2.4178     4.5690   35 C    0 0 0
  33 C    1     2.4244     4.5814   31 C    0 0 0

  34 C    1     1.0915     2.0626   17 H    0 0 0
  34 C    1     1.3914     2.6294   33 C    0 0 0
  34 C    1     1.4021     2.6497   31 C    0 0 0
  34 C    1     2.1667     4.0945   16 H    0 0 0
  34 C    1     2.4179     4.5692   32 C    0 0 0
  34 C    1     2.4253     4.5832   36 C    0 0 0

  35 C    1     1.0914     2.0624   18 H    0 0 0
  35 C    1     1.3914     2.6293   32 C    0 0 0
  35 C    1     1.4025     2.6503   36 C    0 0 0
  35 C    1     2.1678     4.0966   15 H    1 1-2
  35 C    1     2.4178     4.5690   33 C    0 0 0
  35 C    1     2.4245     4.5817   31 C    0 0 0

  36 C    1     1.4025     2.6503   35 C    0 0 0
  36 C    1     1.4025     2.6504   33 C    0 0 0
  36 C    1     1.5516     2.9322    5 B    0 0 0
  36 C    1     2.1486     4.0602   18 H    0 0 0
  36 C    1     2.1487     4.0605   16 H    0 0 0
  36 C    1     2.4251     4.5827   32 C    0 0 0

  37 O    1     1.3791     2.6061    1 B   -1-2 3
  37 O    1     1.3791     2.6061    3 B    0 0 0
  37 O    1     2.3880     4.5126   38 O    0-1 2
  37 O    1     2.3882     4.5130   39 O    0 0 0
  37 O    1     2.5383     4.7966   31 C   -1-1 2
  37 O    1     2.5384     4.7968   25 C   -1-2 3

  38 O    1     1.3793     2.6065    1 B   -1-1 1
  38 O    1     1.3793     2.6065    2 B    0 0 0
  38 O    1     2.3880     4.5126   37 O    0 1-2
  38 O    1     2.3882     4.5131   39 O    0 1-2
  38 O    1     2.5391     4.7981   19 C    0 0 0
  38 O    1     2.5395     4.7990   25 C   -1-1 1

  39 O    1     1.3793     2.6064    3 B    0 0 0
  39 O    1     1.3793     2.6065    2 B    0-1 2
  39 O    1     2.3882     4.5130   37 O    0 0 0
  39 O    1     2.3882     4.5131   38 O    0-1 2
  39 O    1     2.5390     4.7980   19 C    0-1 2
  39 O    1     2.5391     4.7982   31 C   -1-1 2

  40 O    1     1.3795     2.6068    6 B    0 0 0
  40 O    1     1.3795     2.6068    4 B    0 0 0
  40 O    1     2.3880     4.5126   42 O    0 0 0
  40 O    1     2.3884     4.5134   41 O    0 0 0
  40 O    1     2.5400     4.7998   24 C    0 0 0
  40 O    1     2.5403     4.8005   30 C    0 0 1

  41 O    1     1.3795     2.6069    5 B    0 0 0
  41 O    1     1.3795     2.6070    4 B    0 0 0
  41 O    1     2.3881     4.5128   42 O    0 0 0
  41 O    1     2.3884     4.5134   40 O    0 0 0
  41 O    1     2.5404     4.8006   24 C    0 0 0
  41 O    1     2.5405     4.8008   36 C    0 0 0

  42 O    1     1.3796     2.6071    6 B    0 0 0
  42 O    1     1.3797     2.6072    5 B    0 0 0
  42 O    1     2.3880     4.5126   40 O    0 0 0
  42 O    1     2.3881     4.5128   41 O    0 0 0
  42 O    1     2.5409     4.8016   36 C    0 0 0
  42 O    1     2.5410     4.8019   30 C    0 0 1


 SYMMETRY ALLOWED INTERNAL DEGREE(S) OF FREEDOM: 123
 TTTTTTTTTTTTTTTTTTTTTTTTTTTTTT SYMM        TELAPSE        0.41 TCPU        0.41
 TTTTTTTTTTTTTTTTTTTTTTTTTTTTTT INT_SCREEN  TELAPSE        0.44 TCPU        0.44

 DFT PARAMETERS

     ATOM       ELECTRONS   NET CHARGE   R(ANGSTROM)
   1   5  B       5.0000      0.0000     0.89000000
   7   1  H       1.0000      0.0000     1.11000000
  19   6  C       6.0000      0.0000     0.77000000
  37   8  O       8.0000      0.0000     0.74000000

 SIZE OF GRID=    1287912
 TTTTTTTTTTTTTTTTTTTTTTTTTTTTTT MAKE_GRID2  TELAPSE        9.73 TCPU        9.72
 BECKE WEIGHT FUNCTION
 RADSAFE =     2.00
 TOLERANCES - DENSITY:10**- 6; POTENTIAL:10**- 9; GRID WGT:10**-14

 RADIAL INTEGRATION  - INTERVALS (POINTS,UPPER LIMIT):            1( 75,  4.0*R)

 ANGULAR INTEGRATION - INTERVALS (ACCURACY LEVEL [N. POINTS] UPPER LIMIT):
  1(  4[  86]   0.2)  2(  8[ 194]   0.5)  3( 12[ 350]   0.9)  4( 16[ 974]   3.5)
  5( 12[ 350]9999.0)
 TTTTTTTTTTTTTTTTTTTTTTTTTTTTTT INT_CALC    TELAPSE        9.81 TCPU        9.80
 EEEEEEEEEE INT_CALC TERMINATION  DATE 19 02 2026 TIME 18:30:14.6

 *******************************************************************************
 cof-1_z35_L060_incl                                                             
 CRYSTAL - SCF - TYPE OF CALCULATION :  RESTRICTED CLOSED SHELL
 *******************************************************************************

 CAPPA:IS1  2;IS2  2;IS3  8; K PTS MONK NET  20; SYMMOPS:K SPACE   2;G SPACE   1

 TTTTTTTTTTTTTTTTTTTTTTTTTTTTTT SDIK        TELAPSE       10.38 TCPU       17.77

 AAAAAAAAAAAAAAAAAAAAAAAAAAAAAAAAAAAAAAAAAAAAAAAAAAAAAAAAAAAAAAAAAAAAAAAAAAAAAAA
         ATOMIC WAVEFUNCTION(S)


 NUCLEAR CHARGE  5.0  SYMMETRY SPECIES            S    P
 N. ELECTRONS    5.0  NUMBER OF PRIMITIVE GTOS    8    4
                      NUMBER OF CONTRACTED GTOS   4    2
                      NUMBER OF CLOSED SHELLS     2    0
                      OPEN SHELL OCCUPATION       0    1

  ZNUC  SCFIT    TOTAL HF ENERGY   KINETIC ENERGY   VIRIAL THEOREM ACCURACY
   5.0    11    -2.451164084E+01  2.462155050E+01 -1.995536038E+00  1.5E-06

 NUCLEAR CHARGE  1.0  SYMMETRY SPECIES            S
 N. ELECTRONS    1.0  NUMBER OF PRIMITIVE GTOS    4
                      NUMBER OF CONTRACTED GTOS   2
                      NUMBER OF CLOSED SHELLS     0
                      OPEN SHELL OCCUPATION       1

  ZNUC  SCFIT    TOTAL HF ENERGY   KINETIC ENERGY   VIRIAL THEOREM ACCURACY
   1.0     1    -4.977266687E-01  5.190767460E-01 -1.958869132E+00  0.0E+00

 NUCLEAR CHARGE  6.0  SYMMETRY SPECIES            S    P
 N. ELECTRONS    6.0  NUMBER OF PRIMITIVE GTOS    8    4
                      NUMBER OF CONTRACTED GTOS   4    2
                      NUMBER OF CLOSED SHELLS     2    0
                      OPEN SHELL OCCUPATION       0    2

  ZNUC  SCFIT    TOTAL HF ENERGY   KINETIC ENERGY   VIRIAL THEOREM ACCURACY
   6.0     9    -3.766704647E+01  3.775180683E+01 -1.997754800E+00  1.1E-06

 NUCLEAR CHARGE  8.0  SYMMETRY SPECIES            S    P
 N. ELECTRONS    8.0  NUMBER OF PRIMITIVE GTOS    8    4
                      NUMBER OF CONTRACTED GTOS   4    2
                      NUMBER OF CLOSED SHELLS     2    0
                      OPEN SHELL OCCUPATION       0    4

  ZNUC  SCFIT    TOTAL HF ENERGY   KINETIC ENERGY   VIRIAL THEOREM ACCURACY
   8.0    12    -7.477373220E+01  7.477365593E+01 -2.000001020E+00  3.8E-06

 AAAAAAAAAAAAAAAAAAAAAAAAAAAAAAAAAAAAAAAAAAAAAAAAAAAAAAAAAAAAAAAAAAAAAAAAAAAAAAA

 CHARGE NORMALIZATION FACTOR   1.00000000
 TOTAL ATOMIC CHARGES:
   5.0000000   5.0000000   5.0000000   5.0000000   5.0000000   5.0000000
   1.0000000   1.0000000   1.0000000   1.0000000   1.0000000   1.0000000
   1.0000000   1.0000000   1.0000000   1.0000000   1.0000000   1.0000000
   6.0000000   6.0000000   6.0000000   6.0000000   6.0000000   6.0000000
   6.0000000   6.0000000   6.0000000   6.0000000   6.0000000   6.0000000
   6.0000000   6.0000000   6.0000000   6.0000000   6.0000000   6.0000000
   8.0000000   8.0000000   8.0000000   8.0000000   8.0000000   8.0000000
 TTTTTTTTTTTTTTTTTTTTTTTTTTTTTT MOQGAD      TELAPSE       10.42 TCPU       19.26
 TTTTTTTTTTTTTTTTTTTTTTTTTTTTTT SHELLXN     TELAPSE       18.28 TCPU      270.39
 TTTTTTTTTTTTTTTTTTTTTTTTTTTTTT MONMO3      TELAPSE       18.43 TCPU      275.23
 NUMERICALLY INTEGRATED DENSITY    197.9999556436
 TTTTTTTTTTTTTTTTTTTTTTTTTTTTTT NUMDFT      TELAPSE       19.07 TCPU      295.77
 CYC   0 ETOT(AU) -1.295967722229E+03 DETOT -1.30E+03 tst  0.00E+00 PX  1.00E+00
 TTTTTTTTTTTTTTTTTTTTTTTTTTTTTT DIIS        TELAPSE       19.11 TCPU      296.94
 TTTTTTTTTTTTTTTTTTTTTTTTTTTTTT FDIK        TELAPSE       19.57 TCPU      311.56
 INSULATING STATE
 TOP OF VALENCE BANDS -    BAND     99; K    1; EIG -3.0835605E-01 AU
 BOTTOM OF VIRTUAL BANDS - BAND    100; K   17; EIG -1.6454814E-01 AU
 INDIRECT ENERGY BAND GAP:   3.9132 eV
 BOTTOM OF VIRTUAL BANDS - BAND    100; K    1; EIG -1.5631364E-01 AU
 TTTTTTTTTTTTTTTTTTTTTTTTTTTTTT PDIG        TELAPSE       19.90 TCPU      317.74
 CHARGE NORMALIZATION FACTOR   1.00000000
 TOTAL ATOMIC CHARGES:
   4.1442783   4.1632633   4.1636815   4.1627776   4.1624449   4.1434322
   0.7854585   0.7856058   0.7847230   0.7848140   0.7858939   0.7861509
   0.7858791   0.7860786   0.7847018   0.7848853   0.7854043   0.7856009
   6.0451832   6.2673682   6.2674044   6.2662746   6.2664259   6.0446379
   6.0463978   6.2619378   6.2621724   6.2618859   6.2621196   6.0452217
   6.0455909   6.2660305   6.2667870   6.2669631   6.2676941   6.0442247
   8.6966782   8.6969874   8.6957930   8.6972949   8.6962845   8.6975681
 TTTTTTTTTTTTTTTTTTTTTTTTTTTTTT MOQGAD      TELAPSE       19.94 TCPU      317.79
 TTTTTTTTTTTTTTTTTTTTTTTTTTTTTT SHELLXN     TELAPSE       28.12 TCPU      578.76
 TTTTTTTTTTTTTTTTTTTTTTTTTTTTTT MONMO3      TELAPSE       28.28 TCPU      583.60
 NUMERICALLY INTEGRATED DENSITY    197.9999764623
 TTTTTTTTTTTTTTTTTTTTTTTTTTTTTT NUMDFT      TELAPSE       28.93 TCPU      604.43
 CYC   1 ETOT(AU) -1.288822940100E+03 DETOT  7.14E+00 tst  0.00E+00 PX  1.00E+00
 TTTTTTTTTTTTTTTTTTTTTTTTTTTTTT DIIS        TELAPSE       28.98 TCPU      605.93
 DIIS TEST: 0.11002E+01 AT SCF   CYCLE   1 - MIX   30 %
 TTTTTTTTTTTTTTTTTTTTTTTTTTTTTT FDIK        TELAPSE       29.44 TCPU      620.72
 INSULATING STATE
 TOP OF VALENCE BANDS -    BAND     99; K    1; EIG -2.2103739E-01 AU
 BOTTOM OF VIRTUAL BANDS - BAND    100; K   17; EIG -9.1400910E-02 AU
 INDIRECT ENERGY BAND GAP:   3.5276 eV
 BOTTOM OF VIRTUAL BANDS - BAND    100; K    1; EIG -7.8054011E-02 AU
 TTTTTTTTTTTTTTTTTTTTTTTTTTTTTT PDIG        TELAPSE       29.77 TCPU      626.91
 CHARGE NORMALIZATION FACTOR   1.00000000
 TOTAL ATOMIC CHARGES:
   4.6973110   4.6972533   4.6978267   4.6970797   4.6969020   4.6974800
   0.9078104   0.9079441   0.9124718   0.9123813   0.8977235   0.8977724
   0.8978546   0.8976418   0.9123738   0.9124801   0.9078989   0.9078887
   5.8672999   6.1472175   6.1480711   6.1341815   6.1343439   5.8697888
   5.8997118   6.1304038   6.1311912   6.1308018   6.1308587   5.9030195
   5.8671475   6.1339945   6.1345933   6.1476929   6.1474364   5.8697819
   8.3387351   8.3390125   8.3307813   8.3388185   8.3301357   8.3388868
 TTTTTTTTTTTTTTTTTTTTTTTTTTTTTT MOQGAD      TELAPSE       29.82 TCPU      626.96
 TTTTTTTTTTTTTTTTTTTTTTTTTTTTTT SHELLXN     TELAPSE       38.00 TCPU      887.94
 TTTTTTTTTTTTTTTTTTTTTTTTTTTTTT MONMO3      TELAPSE       38.15 TCPU      892.78
 NUMERICALLY INTEGRATED DENSITY    197.9999699014
 TTTTTTTTTTTTTTTTTTTTTTTTTTTTTT NUMDFT      TELAPSE       38.80 TCPU      913.64
 CYC   2 ETOT(AU) -1.289015868920E+03 DETOT -1.93E-01 tst  3.48E-03 PX  1.59E-01
 TTTTTTTTTTTTTTTTTTTTTTTTTTTTTT DIIS        TELAPSE       38.86 TCPU      915.28
 DIIS TEST: 0.45565E+00 AT SCF   CYCLE   2 - DIIS ACTIVE - HISTORY:     2 CYCLES
 TTTTTTTTTTTTTTTTTTTTTTTTTTTTTT FDIK        TELAPSE       39.32 TCPU      930.10
 INSULATING STATE
 TOP OF VALENCE BANDS -    BAND     99; K    1; EIG -2.3267840E-01 AU
 BOTTOM OF VIRTUAL BANDS - BAND    100; K   17; EIG -8.6171354E-02 AU
 INDIRECT ENERGY BAND GAP:   3.9867 eV
 BOTTOM OF VIRTUAL BANDS - BAND    100; K    1; EIG -7.4248958E-02 AU
 TTTTTTTTTTTTTTTTTTTTTTTTTTTTTT PDIG        TELAPSE       39.65 TCPU      936.29
 CHARGE NORMALIZATION FACTOR   1.00000000
 TOTAL ATOMIC CHARGES:
   4.4829408   4.4980167   4.4983782   4.4976443   4.4973103   4.4827541
   0.8869914   0.8873116   0.8902992   0.8901847   0.8784046   0.8787224
   0.8785612   0.8785459   0.8901428   0.8903249   0.8871580   0.8871483
   5.8957608   6.1632978   6.1630430   6.1596899   6.1596538   5.8959819
   5.8973399   6.1650711   6.1647772   6.1648717   6.1649413   5.8963841
   5.8957903   6.1597059   6.1597192   6.1629490   6.1633145   5.8959133
   8.5141817   8.5146360   8.5161983   8.5145851   8.5164011   8.5149539
 TTTTTTTTTTTTTTTTTTTTTTTTTTTTTT MOQGAD      TELAPSE       39.70 TCPU      936.33
 TTTTTTTTTTTTTTTTTTTTTTTTTTTTTT SHELLXN     TELAPSE       47.88 TCPU     1197.31
 TTTTTTTTTTTTTTTTTTTTTTTTTTTTTT MONMO3      TELAPSE       48.03 TCPU     1202.15
 NUMERICALLY INTEGRATED DENSITY    197.9999713368
 TTTTTTTTTTTTTTTTTTTTTTTTTTTTTT NUMDFT      TELAPSE       48.68 TCPU     1223.01
 CYC   3 ETOT(AU) -1.289109787059E+03 DETOT -9.39E-02 tst  7.38E-04 PX  6.60E-02
 TTTTTTTTTTTTTTTTTTTTTTTTTTTTTT DIIS        TELAPSE       48.74 TCPU     1224.89
 DIIS TEST: 0.14246E-01 AT SCF   CYCLE   3 - DIIS ACTIVE - HISTORY:     3 CYCLES
 TTTTTTTTTTTTTTTTTTTTTTTTTTTTTT FDIK        TELAPSE       49.20 TCPU     1239.72
 INSULATING STATE
 TOP OF VALENCE BANDS -    BAND     99; K    1; EIG -2.4322553E-01 AU
 BOTTOM OF VIRTUAL BANDS - BAND    100; K   17; EIG -9.4875543E-02 AU
 INDIRECT ENERGY BAND GAP:   4.0368 eV
 BOTTOM OF VIRTUAL BANDS - BAND    100; K    1; EIG -8.1852177E-02 AU
 TTTTTTTTTTTTTTTTTTTTTTTTTTTTTT PDIG        TELAPSE       49.55 TCPU     1245.93
 CHARGE NORMALIZATION FACTOR   1.00000000
 TOTAL ATOMIC CHARGES:
   4.4899923   4.5020450   4.5024527   4.5016912   4.5013694   4.4898892
   0.8695854   0.8697546   0.8733162   0.8732753   0.8612604   0.8613580
   0.8613521   0.8612503   0.8732413   0.8733703   0.8696725   0.8696936
   5.9382163   6.1748509   6.1755018   6.1665392   6.1668388   5.9398638
   5.9593957   6.1661346   6.1669885   6.1664643   6.1666119   5.9611078
   5.9384138   6.1662382   6.1671841   6.1750949   6.1751459   5.9395990
   8.4831051   8.4832969   8.4761796   8.4833227   8.4759518   8.4833846
 TTTTTTTTTTTTTTTTTTTTTTTTTTTTTT MOQGAD      TELAPSE       49.60 TCPU     1245.98
 TTTTTTTTTTTTTTTTTTTTTTTTTTTTTT SHELLXN     TELAPSE       57.78 TCPU     1506.99
 TTTTTTTTTTTTTTTTTTTTTTTTTTTTTT MONMO3      TELAPSE       57.93 TCPU     1511.82
 NUMERICALLY INTEGRATED DENSITY    197.9999712411
 TTTTTTTTTTTTTTTTTTTTTTTTTTTTTT NUMDFT      TELAPSE       58.59 TCPU     1532.74
 CYC   4 ETOT(AU) -1.289112823501E+03 DETOT -3.04E-03 tst  2.94E-05 PX  1.42E-02
 TTTTTTTTTTTTTTTTTTTTTTTTTTTTTT DIIS        TELAPSE       58.65 TCPU     1534.63
 DIIS TEST: 0.40591E-02 AT SCF   CYCLE   4 - DIIS ACTIVE - HISTORY:     4 CYCLES
 TTTTTTTTTTTTTTTTTTTTTTTTTTTTTT FDIK        TELAPSE       59.11 TCPU     1549.50
 INSULATING STATE
 TOP OF VALENCE BANDS -    BAND     99; K    1; EIG -2.4120154E-01 AU
 BOTTOM OF VIRTUAL BANDS - BAND    100; K   17; EIG -9.4532351E-02 AU
 INDIRECT ENERGY BAND GAP:   3.9911 eV
 BOTTOM OF VIRTUAL BANDS - BAND    100; K    1; EIG -8.1803298E-02 AU
 TTTTTTTTTTTTTTTTTTTTTTTTTTTTTT PDIG        TELAPSE       59.44 TCPU     1555.68
 CHARGE NORMALIZATION FACTOR   1.00000000
 TOTAL ATOMIC CHARGES:
   4.4933462   4.5037254   4.5041617   4.5034518   4.5031353   4.4932973
   0.8727739   0.8730370   0.8765013   0.8764592   0.8640139   0.8642724
   0.8641633   0.8641121   0.8763757   0.8765905   0.8729197   0.8729166
   5.9230025   6.1733307   6.1733454   6.1664739   6.1663510   5.9234572
   5.9370751   6.1683773   6.1681817   6.1682268   6.1683018   5.9370096
   5.9229251   6.1663977   6.1664962   6.1731314   6.1734379   5.9234381
   8.4913710   8.4917823   8.4895290   8.4916771   8.4894454   8.4919825
 TTTTTTTTTTTTTTTTTTTTTTTTTTTTTT MOQGAD      TELAPSE       59.49 TCPU     1555.73
 TTTTTTTTTTTTTTTTTTTTTTTTTTTTTT SHELLXN     TELAPSE       67.67 TCPU     1816.70
 TTTTTTTTTTTTTTTTTTTTTTTTTTTTTT MONMO3      TELAPSE       67.82 TCPU     1821.54
 NUMERICALLY INTEGRATED DENSITY    197.9999714229
 TTTTTTTTTTTTTTTTTTTTTTTTTTTTTT NUMDFT      TELAPSE       68.48 TCPU     1842.40
 CYC   5 ETOT(AU) -1.289113755743E+03 DETOT -9.32E-04 tst  6.38E-06 PX  6.80E-03
 TTTTTTTTTTTTTTTTTTTTTTTTTTTTTT DIIS        TELAPSE       68.54 TCPU     1844.54
 DIIS TEST: 0.60759E-04 AT SCF   CYCLE   5 - DIIS ACTIVE - HISTORY:     5 CYCLES
 TTTTTTTTTTTTTTTTTTTTTTTTTTTTTT FDIK        TELAPSE       69.01 TCPU     1859.48
 INSULATING STATE
 TOP OF VALENCE BANDS -    BAND     99; K    1; EIG -2.4101950E-01 AU
 BOTTOM OF VIRTUAL BANDS - BAND    100; K   17; EIG -9.3967336E-02 AU
 INDIRECT ENERGY BAND GAP:   4.0015 eV
 BOTTOM OF VIRTUAL BANDS - BAND    100; K    1; EIG -8.1413236E-02 AU
 TTTTTTTTTTTTTTTTTTTTTTTTTTTTTT PDIG        TELAPSE       69.35 TCPU     1865.68
 CHARGE NORMALIZATION FACTOR   1.00000000
 TOTAL ATOMIC CHARGES:
   4.4921730   4.5041536   4.5045675   4.5037822   4.5034679   4.4920328
   0.8736542   0.8738543   0.8772645   0.8771726   0.8650541   0.8651529
   0.8651402   0.8650572   0.8771607   0.8772805   0.8737496   0.8737815
   5.9224976   6.1726305   6.1731100   6.1656536   6.1660974   5.9240927
   5.9357156   6.1674982   6.1683604   6.1678548   6.1679607   5.9368781
   5.9227665   6.1654569   6.1663555   6.1727981   6.1728407   5.9237496
   8.4918241   8.4920356   8.4875437   8.4920904   8.4875059   8.4921841
 TTTTTTTTTTTTTTTTTTTTTTTTTTTTTT MOQGAD      TELAPSE       69.39 TCPU     1865.72
 TTTTTTTTTTTTTTTTTTTTTTTTTTTTTT SHELLXN     TELAPSE       77.57 TCPU     2126.65
 TTTTTTTTTTTTTTTTTTTTTTTTTTTTTT MONMO3      TELAPSE       77.72 TCPU     2131.49
 NUMERICALLY INTEGRATED DENSITY    197.9999713841
 TTTTTTTTTTTTTTTTTTTTTTTTTTTTTT NUMDFT      TELAPSE       78.38 TCPU     2152.37
 CYC   6 ETOT(AU) -1.289113771622E+03 DETOT -1.59E-05 tst  1.34E-07 PX  1.11E-03
 TTTTTTTTTTTTTTTTTTTTTTTTTTTTTT DIIS        TELAPSE       78.45 TCPU     2154.58
 DIIS TEST: 0.76664E-05 AT SCF   CYCLE   6 - DIIS ACTIVE - HISTORY:     6 CYCLES
 TTTTTTTTTTTTTTTTTTTTTTTTTTTTTT FDIK        TELAPSE       78.91 TCPU     2169.46
 INSULATING STATE
 TOP OF VALENCE BANDS -    BAND     99; K    1; EIG -2.4102395E-01 AU
 BOTTOM OF VIRTUAL BANDS - BAND    100; K   17; EIG -9.4072200E-02 AU
 INDIRECT ENERGY BAND GAP:   3.9988 eV
 BOTTOM OF VIRTUAL BANDS - BAND    100; K    1; EIG -8.1424090E-02 AU
 TTTTTTTTTTTTTTTTTTTTTTTTTTTTTT PDIG        TELAPSE       79.24 TCPU     2175.65
 CHARGE NORMALIZATION FACTOR   1.00000000
 TOTAL ATOMIC CHARGES:
   4.4927907   4.5039621   4.5043800   4.5036843   4.5033687   4.4927301
   0.8736140   0.8738691   0.8772707   0.8772368   0.8648771   0.8651327
   0.8650322   0.8649667   0.8771534   0.8773586   0.8737573   0.8737495
   5.9229904   6.1726679   6.1727378   6.1659105   6.1657302   5.9234429
   5.9370730   6.1677096   6.1675353   6.1675324   6.1676751   5.9371391
   5.9228939   6.1657852   6.1659217   6.1724849   6.1728168   5.9234565
   8.4912174   8.4916254   8.4887464   8.4915251   8.4886228   8.4918259
 TTTTTTTTTTTTTTTTTTTTTTTTTTTTTT MOQGAD      TELAPSE       79.29 TCPU     2175.70
 TTTTTTTTTTTTTTTTTTTTTTTTTTTTTT SHELLXN     TELAPSE       87.47 TCPU     2436.71
 TTTTTTTTTTTTTTTTTTTTTTTTTTTTTT MONMO3      TELAPSE       87.62 TCPU     2441.55
 NUMERICALLY INTEGRATED DENSITY    197.9999713860
 TTTTTTTTTTTTTTTTTTTTTTTTTTTTTT NUMDFT      TELAPSE       88.27 TCPU     2462.36
 CYC   7 ETOT(AU) -1.289113772848E+03 DETOT -1.23E-06 tst  1.81E-08 PX  4.61E-04
 TTTTTTTTTTTTTTTTTTTTTTTTTTTTTT DIIS        TELAPSE       88.35 TCPU     2464.99
 DIIS TEST: 0.11980E-05 AT SCF   CYCLE   7 - DIIS ACTIVE - HISTORY:     7 CYCLES
 TTTTTTTTTTTTTTTTTTTTTTTTTTTTTT FDIK        TELAPSE       88.82 TCPU     2479.86
 INSULATING STATE
 TOP OF VALENCE BANDS -    BAND     99; K    1; EIG -2.4103218E-01 AU
 BOTTOM OF VIRTUAL BANDS - BAND    100; K   17; EIG -9.4083608E-02 AU
 INDIRECT ENERGY BAND GAP:   3.9987 eV
 BOTTOM OF VIRTUAL BANDS - BAND    100; K    1; EIG -8.1437743E-02 AU
 TTTTTTTTTTTTTTTTTTTTTTTTTTTTTT PDIG        TELAPSE       89.15 TCPU     2486.06
 CHARGE NORMALIZATION FACTOR   1.00000000
 TOTAL ATOMIC CHARGES:
   4.4927858   4.5040450   4.5044681   4.5037185   4.5034010   4.4926941
   0.8735921   0.8738251   0.8772613   0.8771844   0.8648939   0.8650662
   0.8650066   0.8649429   0.8771441   0.8773067   0.8737119   0.8737292
   5.9226550   6.1726606   6.1729154   6.1656913   6.1659050   5.9237531
   5.9365905   6.1675102   6.1678944   6.1676557   6.1677117   5.9371642
   5.9227868   6.1655674   6.1660935   6.1726611   6.1728108   5.9235384
   8.4914651   8.4917641   8.4884017   8.4917449   8.4883503   8.4919320
 TTTTTTTTTTTTTTTTTTTTTTTTTTTTTT MOQGAD      TELAPSE       89.20 TCPU     2486.10
 TTTTTTTTTTTTTTTTTTTTTTTTTTTTTT SHELLXN     TELAPSE       97.38 TCPU     2747.10
 TTTTTTTTTTTTTTTTTTTTTTTTTTTTTT MONMO3      TELAPSE       97.53 TCPU     2751.94
 NUMERICALLY INTEGRATED DENSITY    197.9999713834
 TTTTTTTTTTTTTTTTTTTTTTTTTTTTTT NUMDFT      TELAPSE       98.19 TCPU     2772.78
 CYC   8 ETOT(AU) -1.289113773023E+03 DETOT -1.76E-07 tst  3.14E-09 PX  1.25E-04
 TTTTTTTTTTTTTTTTTTTTTTTTTTTTTT DIIS        TELAPSE       98.27 TCPU     2775.35
 DIIS TEST: 0.83560E-07 AT SCF   CYCLE   8 - DIIS ACTIVE - HISTORY:     8 CYCLES
 TTTTTTTTTTTTTTTTTTTTTTTTTTTTTT FDIK        TELAPSE       98.73 TCPU     2790.27
 INSULATING STATE
 TOP OF VALENCE BANDS -    BAND     99; K    1; EIG -2.4103453E-01 AU
 BOTTOM OF VIRTUAL BANDS - BAND    100; K   17; EIG -9.4074269E-02 AU
 INDIRECT ENERGY BAND GAP:   3.9990 eV
 BOTTOM OF VIRTUAL BANDS - BAND    100; K    1; EIG -8.1437430E-02 AU
 TTTTTTTTTTTTTTTTTTTTTTTTTTTTTT PDIG        TELAPSE       99.06 TCPU     2796.46
 CHARGE NORMALIZATION FACTOR   1.00000000
 TOTAL ATOMIC CHARGES:
   4.4927319   4.5040398   4.5044582   4.5037299   4.5034155   4.4926463
   0.8735866   0.8738237   0.8772392   0.8771881   0.8648765   0.8650815
   0.8650104   0.8649370   0.8771274   0.8773045   0.8737145   0.8737194
   5.9228152   6.1726746   6.1728763   6.1658201   6.1658368   5.9236290
   5.9366075   6.1676642   6.1678195   6.1676501   6.1677953   5.9370328
   5.9228271   6.1656668   6.1660551   6.1726036   6.1728437   5.9235351
   8.4914293   8.4917766   8.4884099   8.4917246   8.4883153   8.4919610
 TTTTTTTTTTTTTTTTTTTTTTTTTTTTTT MOQGAD      TELAPSE       99.11 TCPU     2796.50
 TTTTTTTTTTTTTTTTTTTTTTTTTTTTTT SHELLXN     TELAPSE      107.29 TCPU     3057.53
 +++ ENERGIES IN A.U. +++
 ::: EXT EL-POLE                                  -1.4888373913613E+03
 ::: EXT EL-SPHEROPOLE                             1.6369050998118E+01
 ::: BIELET ZONE E-E                               2.1594015553435E+03
 ::: TOTAL E-E                                     6.8693321498033E+02
 ::: TOTAL E-N + N-E                              -3.1994962477470E+03
 ::: TOTAL N-N                                     7.7232109223237E+01
 ::: KINETIC ENERGY                                1.2799355052694E+03
 ::: PSEUDO TOTAL   ENERGY                        -1.1553954182741E+03
 ::: VIRIAL COEFFICIENT                            1.0511388763602E+00
 TTTTTTTTTTTTTTTTTTTTTTTTTTTTTT MONMO3      TELAPSE      107.44 TCPU     3062.36
 NUMERICALLY INTEGRATED DENSITY    197.9999713834
 EXCHANGE ENERGY: -0.126022857764E+03  CORRELATION ENERGY: -0.769549702687E+01
 TTTTTTTTTTTTTTTTTTTTTTTTTTTTTT NUMDFT      TELAPSE      108.09 TCPU     3083.18
 CYC   9 ETOT(AU) -1.289113773064E+03 DETOT -4.12E-08 tst  6.12E-10 PX  1.25E-04

 == SCF ENDED - CONVERGENCE ON ENERGY      E(AU) -1.2891137730645E+03 CYCLES   9


 ENERGY EXPRESSION=HARTREE+FOCK EXCH*0.00000+(HSESOL     EXCH)*1.00000+PBESOL     CORR


 TOTAL ENERGY(DFT)(AU)(  9) -1.2891137730645E+03 DE-4.1E-08 tester 6.1E-10
 TTTTTTTTTTTTTTTTTTTTTTTTTTTTTT EDFT        TELAPSE      108.09 TCPU     3083.19
 
 INFORMATION **** DFTD3 ENERGY **** CALCULATE DFTD3 ENERGY

           DFT-D V3(BJ)
 DF                                         hsesol3c  
 parameters
 s6       :    1.0000
 s8       :    0.0000
 a1       :    0.5196
 a2       :    4.9385
 k1 k3    :   16.0000   -4.0000
 Cutoff   :   50.2022
 CN-Cutoff:   21.1671
 ABC-Cutoff:   21.1671
 
 Edisp /kcal,au:   -26.6160 -0.04241528

 E6    /kcal :   -28.2219
 E8    /kcal :     0.0000
 E6(ABC) "   :   1.605935
 
 INFORMATION **** DFTD3 ENERGY **** NORMAL TERMINATION OF DFTD3 MODULE

 GCP ENERGY CALCULATION
  level        hsesol3c            basis:hsesol3c
  Nbf            474
  Atoms           42

  Parameters: 
  sigma     1.0000
  eta       1.4281
  alpha     0.2936
  beta      1.9467

  dmp_scal      4.0000
  dmp_exp       6.0000
 cutoffs: 
   distance [bohr] 60.0
   noise    [a.u.] 2.2E-16
 SR-damping   T
 ** gCP correction **
  Egcp:        0.0832522362 / (a.u.) ||      52.2416 / (kcal/mol)
 INFORMATION **** GCP **** NORMAL TERMINATION OF GCP MODULE

 *******************************************************************************

 DFT-D3-GCP DISPERSION AND COUNTERPOISE CORRECTION

 D3 DISPERSION ENERGY (AU)      -4.2415275778515E-02
 GCP ENERGY (AU)                 8.3252236194016E-02
 TOTAL ENERGY + DISP + GCP (AU) -1.2890729361041E+03

 *******************************************************************************

 EIGENVECTORS IN FORTRAN UNIT 10
 TTTTTTTTTTTTTTTTTTTTTTTTTTTTTT END         TELAPSE      109.78 TCPU     3090.85
 EEEEEEEEEE TERMINATION  DATE 19 02 2026 TIME 18:31:54.6
