 Default number of threads is:           32

         
 *******************************************************************************
 *                                                                             *
 *                               CRYSTAL23                                     *
 *                      public : 1.0.1 - October 2022                          *
 *                       HTTP://WWW.CRYSTAL.UNITO.IT                           *
 *                                                                             *
 *                              MAIN AUTHORS                                   *
 *                                                                             *
 *  R. DOVESI(1,11), V.R. SAUNDERS(2), C. ROETTI(1,11), R. ORLANDO(1,11),      *
 *  C.M. ZICOVICH-WILSON(1,3), F. PASCALE(4), B. CIVALLERI(1,11),              *
 *  K. DOLL(5), N.M. HARRISON(6), I.J. BUSH(7), Ph. D'ARCO(8),                 *
 *  M. LLUNELL(9), M. CAUSA'(10), Y. NOEL(8), L. MASCHIO(1,11), A. ERBA(1,11)  *
 *  M. RE'RAT(14), S. CASASSA(1,11), B.G. SEARLE(2), J.K. DESMARAIS(1)         *
 *                                                                             *
 *        CONTRIBUTIONS TO THE CODE HAVE ALSO BEEN GIVEN BY                    *
 *                                                                             *
 *  M. FERRABONE(1,11), M. DE LA PIERRE(1,11), M. FERRERO(1,11),               *
 *  J. BAIMA(1,11), E. ALBANESE(1,11), M.F. PEINTINGER(12), R. BAST(13),       *
 *  B. KIRTMAN(15), V. LACIVITA(1,11), R. DEMICHELIS(1,16)                     *
 *  G. BRANDEBURG(17), S. SALUSTRO(1,11), G. SANSONE(1,11)                     *
 *  M.T. RUGGIERO(18), L.E. DAGA(1), L. DONA'(1), A. COSSARD(1)                *
 *                                                                             *
 * (1) THEORETICAL CHEMISTRY GROUP - UNIVERSITA' DI TORINO - TORINO (ITALY)    *
 * (2) SCIENTIFIC COMPUTING DEPARTMENT - STFC DARESBURY (UK)                   *
 * (3) UNIVERSIDAD AUTONOMA DEL ESTADO DE MORELOS - CUERNAVACA (MEXICO)        *
 * (4) UNIVERSITE' DE LORRAINE - NANCY (FRANCE)                                *
 * (5) UNIVERSITAET STUTTGART- STUTTGART (GERMANY)                             *
 * (6) IMPERIAL COLLEGE - LONDON (UK)                                          *
 * (7) SCIENTIFIC COMPUTING DEPARTMENT - STFC RAL (UK)                         *
 * (8) UPMC - SORBONNE UNIVERSITES - PARIS (FRANCE)                            *
 * (9) UNIVERSIDAD DE BARCELONA - BARCELONA (SPAIN)                            *
 *(10) UNIVERSITA' DI NAPOLI "FEDERICO II" - NAPOLI (ITALY)                    *
 *(11) NIS - NANOSTRUCTURED INTERFACES AND SURFACES - TORINO (ITALY)           *
 *(12) MPI FUER CHEMISCHE ENERGIEKONVERSION - MUELHEIM AN DER RUHR (GERMANY)   *
 *(13) UNIVERSITY OF TROMSO - TROMSO (NORWAY)                                  *
 *(14) UNIVERSITE' DE PAU ET DES PAYS DE L'ADOUR - PAU (FRANCE)                *
 *(15) UNIVERSITY OF CALIFORNIA SANTA BARBARA - SANTA BARBARA (USA)            *
 *(16) CURTIN UNIVERSITY - PERTH (AUSTRALIA)                                   *
 *(17) UNIVERSITY COLLEGE LONDON - LONDON (UK)                                 *
 *(18) UNIVERSITY OF VERMONT - BURLINGTON (USA)                                *
 *                                                                             *
 *******************************************************************************
 EEEEEEEEEE STARTING  DATE 02 12 2025 TIME 08:03:55.8
 COF-5_z40_inc_L030                                                              

 CRYSTAL CALCULATION
 (INPUT ACCORDING TO THE INTERNATIONAL TABLES FOR X-RAY CRYSTALLOGRAPHY)
 CRYSTAL FAMILY                       :  TRICLINIC   
 CRYSTAL CLASS  (GROTH - 1921)        :  TRICLINIC PEDIAL                     

 SPACE GROUP (NONCENTROSYMMETRIC)     :  P 1             

 LATTICE PARAMETERS  (ANGSTROMS AND DEGREES) - CONVENTIONAL CELL
        A           B           C        ALPHA        BETA       GAMMA
    15.02070    15.04439     5.00000    58.71531    89.99943   120.05310


 NUMBER OF IRREDUCIBLE ATOMS IN THE CONVENTIONAL CELL:   42

 INPUT COORDINATES

 ATOM AT. N.              COORDINATES
   1   5     5.577626400000E-01  1.127347700000E-01  5.006478000000E-01
   2   5     7.165408800000E-01  2.717591900000E-01  5.006577900000E-01
   3   5     5.574744200000E-01  2.717760100000E-01  4.992278400000E-01
   4   5     1.703820600000E-01  4.979140300000E-01  5.054427500000E-01
   5   5     3.284893500000E-01  4.964815800000E-01  5.094866000000E-01
   6   5     3.294512700000E-01  6.571944500000E-01  5.035210300000E-01
   7   1     8.461171500000E-01  1.933101900000E-01  5.045461600000E-01
   8   1     4.190441000000E-02  5.778717400000E-01  4.929559600000E-01
   9   1     8.475381100000E-01  4.806041200000E-01  4.928176600000E-01
  10   1     4.060639000000E-02  2.906233400000E-01  5.041147400000E-01
  11   1     5.361317400000E-01  7.870619800000E-01  5.042368000000E-01
  12   1     3.511070700000E-01 -1.530827000000E-02  4.945881600000E-01
  13   1     2.526157600000E-01  7.906788200000E-01  4.958950000000E-01
  14   1     6.344484000000E-01 -1.881919000000E-02  5.023755000000E-01
  15   1     5.364739200000E-01  5.758824900000E-01  4.977924500000E-01
  16   1     3.482064800000E-01  1.923610700000E-01  5.060754900000E-01
  17   1     2.508846000000E-01  2.883666000000E-01  5.057106200000E-01
  18   1     6.341574600000E-01  4.798082000000E-01  4.987258900000E-01
  19   6     8.358622800000E-01  3.312458700000E-01  5.004078000000E-01
  20   6     8.901824100000E-01  2.776625200000E-01  5.021738800000E-01
  21   6    -2.061770000000E-03  4.934716200000E-01  4.957810500000E-01
  22   6     8.909207900000E-01  4.398690400000E-01  4.961182100000E-01
  23   6    -2.712570000000E-03  3.313757700000E-01  5.015301700000E-01
  24   6     5.204102000000E-02  4.395508500000E-01  4.993469300000E-01
  25   6     3.886029100000E-01  7.769464500000E-01  5.018892500000E-01
  26   6     4.964310800000E-01  8.313386000000E-01  5.022794200000E-01
  27   6     3.905813200000E-01 -5.990075000000E-02  4.970031200000E-01
  28   6     3.363337400000E-01  8.328863100000E-01  4.981217800000E-01
  29   6     5.506804800000E-01 -6.146372000000E-02  5.008420300000E-01
  30   6     4.981887000000E-01 -6.096280000000E-03  4.992178000000E-01
  31   6     3.884231400000E-01  4.383307500000E-01  4.999890000000E-01
  32   6     4.963360500000E-01  4.917127900000E-01  4.994375300000E-01
  33   6     3.889757600000E-01  2.766412200000E-01  5.039610100000E-01
  34   6     3.351445500000E-01  3.298268700000E-01  5.033530700000E-01
  35   6     5.500412600000E-01  4.384320800000E-01  5.003758800000E-01
  36   6     4.971431500000E-01  3.304226700000E-01  5.016177100000E-01
  37   8     5.047649400000E-01  1.657875300000E-01  4.996177000000E-01
  38   8     6.635788700000E-01  1.653958900000E-01  5.026077100000E-01
  39   8     6.637095900000E-01  3.251809300000E-01  4.980880500000E-01
  40   8     2.235313600000E-01  6.043950500000E-01  5.027543800000E-01
  41   8     2.224263200000E-01  4.436084000000E-01  5.102420400000E-01
  42   8     3.820542300000E-01  6.035359700000E-01  5.052260800000E-01

 *******************************************************************************

 << INFORMATION >>: FROM NOW ON, ALL COORDINATES REFER TO THE PRIMITIVE CELL

 *******************************************************************************

 LATTICE PARAMETERS  (ANGSTROMS AND DEGREES) - PRIMITIVE CELL
       A          B          C        ALPHA      BETA     GAMMA        VOLUME
   15.02070   15.04439    5.00000    58.71531  89.99943 120.05310    782.423768

 COORDINATES OF THE EQUIVALENT ATOMS (FRACTIONAL UNITS)

 N. ATOM EQUIV AT. N.          X                  Y                  Z

   1   1   1    5 B    -4.42237360000E-01  1.12734770000E-01 -4.99352200000E-01

   2   2   1    5 B    -2.83459120000E-01  2.71759190000E-01 -4.99342210000E-01

   3   3   1    5 B    -4.42525580000E-01  2.71776010000E-01  4.99227840000E-01

   4   4   1    5 B     1.70382060000E-01  4.97914030000E-01 -4.94557250000E-01

   5   5   1    5 B     3.28489350000E-01  4.96481580000E-01 -4.90513400000E-01

   6   6   1    5 B     3.29451270000E-01 -3.42805550000E-01 -4.96478970000E-01

   7   7   1    1 H    -1.53882850000E-01  1.93310190000E-01 -4.95453840000E-01

   8   8   1    1 H     4.19044100000E-02 -4.22128260000E-01  4.92955960000E-01

   9   9   1    1 H    -1.52461890000E-01  4.80604120000E-01  4.92817660000E-01

  10  10   1    1 H     4.06063900000E-02  2.90623340000E-01 -4.95885260000E-01

  11  11   1    1 H    -4.63868260000E-01 -2.12938020000E-01 -4.95763200000E-01

  12  12   1    1 H     3.51107070000E-01 -1.53082700000E-02  4.94588160000E-01

  13  13   1    1 H     2.52615760000E-01 -2.09321180000E-01  4.95895000000E-01

  14  14   1    1 H    -3.65551600000E-01 -1.88191900000E-02 -4.97624500000E-01

  15  15   1    1 H    -4.63526080000E-01 -4.24117510000E-01  4.97792450000E-01

  16  16   1    1 H     3.48206480000E-01  1.92361070000E-01 -4.93924510000E-01

  17  17   1    1 H     2.50884600000E-01  2.88366600000E-01 -4.94289380000E-01

  18  18   1    1 H    -3.65842540000E-01  4.79808200000E-01  4.98725890000E-01

  19  19   1    6 C    -1.64137720000E-01  3.31245870000E-01 -4.99592200000E-01

  20  20   1    6 C    -1.09817590000E-01  2.77662520000E-01 -4.97826120000E-01

  21  21   1    6 C    -2.06177000000E-03  4.93471620000E-01  4.95781050000E-01

  22  22   1    6 C    -1.09079210000E-01  4.39869040000E-01  4.96118210000E-01

  23  23   1    6 C    -2.71257000000E-03  3.31375770000E-01 -4.98469830000E-01

  24  24   1    6 C     5.20410200000E-02  4.39550850000E-01  4.99346930000E-01

  25  25   1    6 C     3.88602910000E-01 -2.23053550000E-01 -4.98110750000E-01

  26  26   1    6 C     4.96431080000E-01 -1.68661400000E-01 -4.97720580000E-01

  27  27   1    6 C     3.90581320000E-01 -5.99007500000E-02  4.97003120000E-01

  28  28   1    6 C     3.36333740000E-01 -1.67113690000E-01  4.98121780000E-01

  29  29   1    6 C    -4.49319520000E-01 -6.14637200000E-02 -4.99157970000E-01

  30  30   1    6 C     4.98188700000E-01 -6.09628000000E-03  4.99217800000E-01

  31  31   1    6 C     3.88423140000E-01  4.38330750000E-01  4.99989000000E-01

  32  32   1    6 C     4.96336050000E-01  4.91712790000E-01  4.99437530000E-01

  33  33   1    6 C     3.88975760000E-01  2.76641220000E-01 -4.96038990000E-01

  34  34   1    6 C     3.35144550000E-01  3.29826870000E-01 -4.96646930000E-01

  35  35   1    6 C    -4.49958740000E-01  4.38432080000E-01 -4.99624120000E-01

  36  36   1    6 C     4.97143150000E-01  3.30422670000E-01 -4.98382290000E-01

  37  37   1    8 O    -4.95235060000E-01  1.65787530000E-01  4.99617700000E-01

  38  38   1    8 O    -3.36421130000E-01  1.65395890000E-01 -4.97392290000E-01

  39  39   1    8 O    -3.36290410000E-01  3.25180930000E-01  4.98088050000E-01

  40  40   1    8 O     2.23531360000E-01 -3.95604950000E-01 -4.97245620000E-01

  41  41   1    8 O     2.22426320000E-01  4.43608400000E-01 -4.89757960000E-01

  42  42   1    8 O     3.82054230000E-01 -3.96464030000E-01 -4.94773920000E-01

 NUMBER OF SYMMETRY OPERATORS         :    1
 *******************************************************************************
 * GEOMETRY EDITING - INPUT COORDINATES ARE GIVEN IN ANGSTROM         
 *******************************************************************************

 GCALCO - MAX INDICES DIRECT LATTICE VECTOR     9    11    30
 NO.OF VECTORS CREATED 6999 STARS 3500 RMAX   206.70929 BOHR

 GEOMETRY FOR WAVE FUNCTION - DIMENSIONALITY OF THE SYSTEM    3
 (NON PERIODIC DIRECTION: LATTICE PARAMETER FORMALLY SET TO 500)
 *******************************************************************************
 LATTICE PARAMETERS (ANGSTROMS AND DEGREES) - BOHR = 0.5291772083 ANGSTROM
 PRIMITIVE CELL - CENTRING CODE 1/0 VOLUME=   782.423768 - DENSITY  0.828 g/cm^3
         A              B              C           ALPHA      BETA       GAMMA 
    15.02070100    15.04438700     5.00000000    58.715307  89.999429 120.053104
 *******************************************************************************
 ATOMS IN THE ASYMMETRIC UNIT   42 - ATOMS IN THE UNIT CELL:   42
     ATOM                 X/A                 Y/B                 Z/C    
 *******************************************************************************
      1 T   5 B    -4.422373600000E-01  1.127347700000E-01 -4.993522000000E-01
      2 T   5 B    -2.834591200000E-01  2.717591900000E-01 -4.993422100000E-01
      3 T   5 B    -4.425255800000E-01  2.717760100000E-01  4.992278400000E-01
      4 T   5 B     1.703820600000E-01  4.979140300000E-01 -4.945572500000E-01
      5 T   5 B     3.284893500000E-01  4.964815800000E-01 -4.905134000000E-01
      6 T   5 B     3.294512700000E-01 -3.428055500000E-01 -4.964789700000E-01
      7 T   1 H    -1.538828500000E-01  1.933101900000E-01 -4.954538400000E-01
      8 T   1 H     4.190441000000E-02 -4.221282600000E-01  4.929559600000E-01
      9 T   1 H    -1.524618900000E-01  4.806041200000E-01  4.928176600000E-01
     10 T   1 H     4.060639000000E-02  2.906233400000E-01 -4.958852600000E-01
     11 T   1 H    -4.638682600000E-01 -2.129380200000E-01 -4.957632000000E-01
     12 T   1 H     3.511070700000E-01 -1.530827000000E-02  4.945881600000E-01
     13 T   1 H     2.526157600000E-01 -2.093211800000E-01  4.958950000000E-01
     14 T   1 H    -3.655516000000E-01 -1.881919000000E-02 -4.976245000000E-01
     15 T   1 H    -4.635260800000E-01 -4.241175100000E-01  4.977924500000E-01
     16 T   1 H     3.482064800000E-01  1.923610700000E-01 -4.939245100000E-01
     17 T   1 H     2.508846000000E-01  2.883666000000E-01 -4.942893800000E-01
     18 T   1 H    -3.658425400000E-01  4.798082000000E-01  4.987258900000E-01
     19 T   6 C    -1.641377200000E-01  3.312458700000E-01 -4.995922000000E-01
     20 T   6 C    -1.098175900000E-01  2.776625200000E-01 -4.978261200000E-01
     21 T   6 C    -2.061770000000E-03  4.934716200000E-01  4.957810500000E-01
     22 T   6 C    -1.090792100000E-01  4.398690400000E-01  4.961182100000E-01
     23 T   6 C    -2.712570000000E-03  3.313757700000E-01 -4.984698300000E-01
     24 T   6 C     5.204102000000E-02  4.395508500000E-01  4.993469300000E-01
     25 T   6 C     3.886029100000E-01 -2.230535500000E-01 -4.981107500000E-01
     26 T   6 C     4.964310800000E-01 -1.686614000000E-01 -4.977205800000E-01
     27 T   6 C     3.905813200000E-01 -5.990075000000E-02  4.970031200000E-01
     28 T   6 C     3.363337400000E-01 -1.671136900000E-01  4.981217800000E-01
     29 T   6 C    -4.493195200000E-01 -6.146372000000E-02 -4.991579700000E-01
     30 T   6 C     4.981887000000E-01 -6.096280000000E-03  4.992178000000E-01
     31 T   6 C     3.884231400000E-01  4.383307500000E-01  4.999890000000E-01
     32 T   6 C     4.963360500000E-01  4.917127900000E-01  4.994375300000E-01
     33 T   6 C     3.889757600000E-01  2.766412200000E-01 -4.960389900000E-01
     34 T   6 C     3.351445500000E-01  3.298268700000E-01 -4.966469300000E-01
     35 T   6 C    -4.499587400000E-01  4.384320800000E-01 -4.996241200000E-01
     36 T   6 C     4.971431500000E-01  3.304226700000E-01 -4.983822900000E-01
     37 T   8 O    -4.952350600000E-01  1.657875300000E-01  4.996177000000E-01
     38 T   8 O    -3.364211300000E-01  1.653958900000E-01 -4.973922900000E-01
     39 T   8 O    -3.362904100000E-01  3.251809300000E-01  4.980880500000E-01
     40 T   8 O     2.235313600000E-01 -3.956049500000E-01 -4.972456200000E-01
     41 T   8 O     2.224263200000E-01  4.436084000000E-01 -4.897579600000E-01
     42 T   8 O     3.820542300000E-01 -3.964640300000E-01 -4.947739200000E-01

 T = ATOM BELONGING TO THE ASYMMETRIC UNIT

 ****    1 SYMMOPS - TRANSLATORS IN FRACTIONAL UNITS
 **** MATRICES AND TRANSLATORS IN THE CRYSTALLOGRAPHIC REFERENCE FRAME
   V INV                    ROTATION MATRICES                   TRANSLATORS
   1   1  1.00  0.00  0.00  0.00  1.00  0.00 -0.00  0.00  1.00  0.00  0.00  0.00

 DIRECT LATTICE VECTORS CARTESIAN COMPONENTS (ANGSTROM)
          X                    Y                    Z
   0.130013421718E+02  -0.752240388864E+01   0.000000000000E+00
   0.000000000000E+00   0.150443870000E+02   0.000000000000E+00
   0.150233141795E+01   0.259645409108E+01   0.400017830397E+01


 CARTESIAN COORDINATES - PRIMITIVE CELL
 *******************************************************************************
 *      ATOM          X(ANGSTROM)         Y(ANGSTROM)         Z(ANGSTROM)
 *******************************************************************************
    1     5 B    -6.499871737185E+00  3.726168482223E+00 -1.997497836480E+00
    2     5 B    -4.435526501222E+00  4.924225287722E+00 -1.997457874699E+00
    3     5 B     6.495589937228E+00 -1.405076196601E+00 -2.003177929664E+00
    4     5 B     1.472206567341E+00  4.925033494315E+00 -1.978317181521E+00
    5     5 B     3.533888747388E+00  3.724635939915E+00 -1.962141060487E+00
    6     5 B     2.035101317262E+00  3.523283181615E+00 -5.986182708142E+00
    7     1 H    -2.745019457194E+00  2.779379108830E+00 -1.981903701387E+00
    8     1 H     1.285396799290E+00 -5.385945284748E+00  1.971911736005E+00
    9     1 H    -1.241833746106E+00 -5.387534281257E+00  1.971358511345E+00
   10     1 H    -2.170464350462E-01  2.779249020120E+00 -1.983629458311E+00
   11     1 H    -5.273379184158E+00  1.595110125181E+00  2.017037107423E+00
   12     1 H     5.307898487713E+00 -1.587297275447E+00  1.978440827033E+00
   13     1 H     4.029342572247E+00 -3.761818013077E+00  1.983668420047E+00
   14     1 H    -3.997926935781E+00  3.771098522186E+00  2.009591575546E+00
   15     1 H    -5.278611934367E+00 -1.601262323926E+00  1.991258558370E+00
   16     1 H     3.785113283440E+00 -1.007847713062E+00 -1.975786108701E+00
   17     1 H     2.519250065095E+00  1.167643754756E+00 -1.977245653759E+00
   18     1 H    -4.007192470038E+00 -3.779032530482E+00  1.994992484806E+00
   19     6 C    -2.884563719238E+00  4.920933072071E+00 -1.998457879273E+00
   20     6 C    -2.175675884822E+00  3.710772006412E+00 -1.991393244374E+00
   21     6 C    -7.843097473606E-01  6.130306135935E+00 -2.016965704241E+00
   22     6 C    -6.728421591363E-01 -6.318140903434E+00  1.984561299847E+00
   23     6 C    -7.841339372444E-01  3.711496344036E+00 -1.993968199150E+00
   24     6 C    -7.554372856636E-02  4.921376810549E+00 -2.002701548430E+00
   25     6 C    -7.194978781310E+00  2.546604315828E+00  2.007646488846E+00
   26     6 C    -5.792481682735E+00  2.554786883370E+00  2.009207238415E+00
   27     6 C     5.824744789219E+00 -2.548834720786E+00  1.988101097630E+00
   28     6 C     5.121134037712E+00 -3.750810925479E+00  1.992575937091E+00
   29     6 C    -5.089326106878E+00  3.755692252129E+00  2.003457422122E+00
   30     6 C    -5.774229831622E+00  4.979308578054E+00  1.996960212516E+00
   31     6 C     4.298839915954E+00  2.374286091691E+00 -2.000133153946E+00
   32     6 C     5.701024092909E+00  2.364189799944E+00 -2.002339132276E+00
   33     6 C     4.311991993080E+00 -5.207766069987E-02 -1.984244405721E+00
   34     6 C     3.611200684987E+00  1.151429455881E+00 -1.986676274119E+00
   35     6 C    -5.098337136611E+00 -3.764470739057E+00  2.001592739006E+00
   36     6 C     5.714792829086E+00 -6.273177951061E-02 -1.993618023541E+00
   37     8 O     5.810881650978E+00 -2.602093656351E+00 -2.001618420151E+00
   38     8 O    -5.121174289258E+00  3.727519147661E+00 -1.989657847020E+00
   39     8 O    -2.121601945125E+00 -3.732810109943E+00  5.992619315047E+00
   40     8 O     2.159179980118E+00  6.120184437066E+00 -1.989071140868E+00
   41     8 O     2.156061923829E+00  3.729001772666E+00 -1.959119165789E+00
   42     8 O     4.223903367605E+00  4.921204706933E+00 -1.979183900154E+00

 *******************************************************************************
 STARTING BASIS SET HANDLING 
 *******************************************************************************

 Loading internal basis set: SOLDEF2MSVP         

 Please cite in your publication:
 L. Dona', J. G. Brandenburg and B. Civalleri, J. Chem. Phys., 151, 121101 (2019
 )                                                                              
                                                                                
                    

 *******************************************************************************
 LOCAL ATOMIC FUNCTIONS BASIS SET
 *******************************************************************************
   ATOM   X(AU)   Y(AU)   Z(AU)  N. TYPE  EXPONENT  S COEF   P COEF   D/F/G COEF
 *******************************************************************************
   1 B  -12.283   7.041  -3.775
                                  1 S  
                                         2.410E+03 1.755E-03 0.000E+00 0.000E+00
                                         3.619E+02 1.344E-02 0.000E+00 0.000E+00
                                         8.231E+01 6.637E-02 0.000E+00 0.000E+00
                                         2.311E+01 2.303E-01 0.000E+00 0.000E+00
                                         7.252E+00 5.150E-01 0.000E+00 0.000E+00
                                  2 S  
                                         2.367E+00 1.000E+00 0.000E+00 0.000E+00
                                  3 S  
                                         5.533E-01 1.000E+00 0.000E+00 0.000E+00
                                  4 S  
                                         1.716E-01 1.000E+00 0.000E+00 0.000E+00
                           5-     7 P  
                                         6.002E+00 0.000E+00-3.555E-02 0.000E+00
                                         1.240E+00 0.000E+00-1.983E-01 0.000E+00
                                         3.367E-01 0.000E+00-5.048E-01 0.000E+00
                           8-    10 P  
                                         1.256E-01 0.000E+00 1.000E+00 0.000E+00
                          11-    15 D  
                                         8.880E-01 0.000E+00 0.000E+00 1.000E+00
   2 B   -8.382   9.305  -3.775
   3 B   12.275  -2.655  -3.785
   4 B    2.782   9.307  -3.738
   5 B    6.678   7.039  -3.708
   6 B    3.846   6.658 -11.312
   7 H   -5.187   5.252  -3.745
                                 91 S  
                                         1.874E+01 1.968E-02 0.000E+00 0.000E+00
                                         2.826E+00 1.380E-01 0.000E+00 0.000E+00
                                         6.401E-01 4.783E-01 0.000E+00 0.000E+00
                                 92 S  
                                         1.756E-01 1.000E+00 0.000E+00 0.000E+00
   8 H    2.429 -10.178   3.726
   9 H   -2.347 -10.181   3.725
  10 H   -0.410   5.252  -3.749
  11 H   -9.965   3.014   3.812
  12 H   10.030  -3.000   3.739
  13 H    7.614  -7.109   3.749
  14 H   -7.555   7.126   3.798
  15 H   -9.975  -3.026   3.763
  16 H    7.153  -1.905  -3.734
  17 H    4.761   2.207  -3.736
  18 H   -7.572  -7.141   3.770
  19 C   -5.451   9.299  -3.777
                                115 S  
                                         3.624E+03 1.634E-03 0.000E+00 0.000E+00
                                         5.440E+02 1.252E-02 0.000E+00 0.000E+00
                                         1.237E+02 6.211E-02 0.000E+00 0.000E+00
                                         3.476E+01 2.182E-01 0.000E+00 0.000E+00
                                         1.093E+01 4.980E-01 0.000E+00 0.000E+00
                                116 S  
                                         3.574E+00 1.000E+00 0.000E+00 0.000E+00
                                117 S  
                                         7.742E-01 1.000E+00 0.000E+00 0.000E+00
                                118 S  
                                         2.330E-01 1.000E+00 0.000E+00 0.000E+00
                         119-   121 P  
                                         9.443E+00 0.000E+00 3.790E-02 0.000E+00
                                         2.002E+00 0.000E+00 2.082E-01 0.000E+00
                                         5.463E-01 0.000E+00 5.047E-01 0.000E+00
                         122-   124 P  
                                         1.820E-01 0.000E+00 1.000E+00 0.000E+00
                         125-   129 D  
                                         8.880E-01 0.000E+00 0.000E+00 1.000E+00
  20 C   -4.111   7.012  -3.763
  21 C   -1.482  11.585  -3.812
  22 C   -1.271 -11.940   3.750
  23 C   -1.482   7.014  -3.768
  24 C   -0.143   9.300  -3.785
  25 C  -13.597   4.812   3.794
  26 C  -10.946   4.828   3.797
  27 C   11.007  -4.817   3.757
  28 C    9.678  -7.088   3.765
  29 C   -9.617   7.097   3.786
  30 C  -10.912   9.410   3.774
  31 C    8.124   4.487  -3.780
  32 C   10.773   4.468  -3.784
  33 C    8.148  -0.098  -3.750
  34 C    6.824   2.176  -3.754
  35 C   -9.634  -7.114   3.782
  36 C   10.799  -0.119  -3.767
  37 O   10.981  -4.917  -3.783
                                385 S  
                                         6.773E+03 1.727E-03 0.000E+00 0.000E+00
                                         1.017E+03 1.325E-02 0.000E+00 0.000E+00
                                         2.313E+02 6.603E-02 0.000E+00 0.000E+00
                                         6.501E+01 2.353E-01 0.000E+00 0.000E+00
                                         2.050E+01 5.498E-01 0.000E+00 0.000E+00
                                386 S  
                                         6.716E+00 1.000E+00 0.000E+00 0.000E+00
                                387 S  
                                         1.147E+00 1.000E+00 0.000E+00 0.000E+00
                                388 S  
                                         3.342E-01 1.000E+00 0.000E+00 0.000E+00
                         389-   391 P  
                                         1.769E+01 0.000E+00 4.359E-02 0.000E+00
                                         3.854E+00 0.000E+00 2.318E-01 0.000E+00
                                         1.047E+00 0.000E+00 5.146E-01 0.000E+00
                         392-   394 P  
                                         2.759E-01 0.000E+00 1.000E+00 0.000E+00
                         395-   399 D  
                                         8.000E-01 0.000E+00 0.000E+00 1.000E+00
  38 O   -9.678   7.044  -3.760
  39 O   -4.009  -7.054  11.324
  40 O    4.080  11.565  -3.759
  41 O    4.074   7.047  -3.702
  42 O    7.982   9.300  -3.740

 *******************************************************************************
 FINISHED BASIS SET HANDLING 
 *******************************************************************************

 INFORMATION **** SET_MPP **** PCRYSTAL CALCULATION
 INFORMATION **** READM2 **** NEW DEFAULT: FOCK/KS MATRIX MIXING SET TO 30 %
 INFORMATION **** READM2 **** NEW DEFAULT: FULL DIRECT SCF MODE
 INFORMATION **** READM2 **** NEW DEFAULT: COULOMB BIPOLAR BUFFER SET TO 32 Mb
 INFORMATION **** READM2 **** NEW DEFAULT: EXCHANGE BIPOLAR BUFFER SET TO 32 Mb

 *******************************************************************************
 NEW DEFAULT: DFT INTEGRATION GRID INCREASED TO XLGRID
 NEW DEFAULT: DIIS ACCELERATOR ACTIVE
 USE KEYWORD NODIIS TO TURN IT OFF
 *******************************************************************************

 WARNING **** RDDFTP **** HSEsol-HJS ACTIVE
 RANGE SEPARATION - OMEGA:   0.110000000000000     
 WARNING **** RDDFTP **** HSEsol-3c has to be combined with sol-def2-mSVP basis set
 *******************************************************************************
 N. OF ATOMS PER CELL        42  COULOMB OVERLAP TOL         (T1) 10**   -6
 NUMBER OF SHELLS           234  COULOMB PENETRATION TOL     (T2) 10**   -6
 NUMBER OF AO               474  EXCHANGE OVERLAP TOL        (T3) 10**   -6
 N. OF ELECTRONS PER CELL   198  EXCHANGE PSEUDO OVP (F(G))  (T4) 10**   -6
 CORE ELECTRONS PER CELL     60  EXCHANGE PSEUDO OVP (P(G))  (T5) 10**  -12
 N. OF SYMMETRY OPERATORS     1  POLE ORDER IN MONO ZONE                  4
 *******************************************************************************
 TYPE OF CALCULATION :  RESTRICTED CLOSED SHELL
 KOHN-SHAM HAMILTONIAN

 (EXCHANGE)[CORRELATION] FUNCTIONAL:(HSEsol GGA)[PBEsol]

 RANGE-SEPARATED HYBRID FUNCTIONAL 
 OMEGA (SHORT-RANGE)[LONG-RANGE]:(    0.1100)[    0.0000]

 HYBRID EXCHANGE - PERCENTAGE OF FOCK EXCHANGE    25.0000

 CAPPA:IS1  2;IS2  2;IS3  8; K PTS MONK NET  20; SYMMOPS:K SPACE   2;G SPACE   1

 *******************************************************************************
 MAX NUMBER OF SCF CYCLES      50  CONVERGENCE ON DELTAP        10**-16
 WEIGHT OF F(I) IN F(I+1)      30% CONVERGENCE ON ENERGY        10**- 6
 SHRINK. FACT.(MONKH.)    2  2  8  NUMBER OF K POINTS IN THE IBZ     20
 SHRINKING FACTOR(GILAT NET)    8  NUMBER OF K POINTS(GILAT NET)   1028
 *******************************************************************************
 *** K POINTS COORDINATES (OBLIQUE COORDINATES IN UNITS OF IS =  2)
   1-R(  0  0  0)   2-R(  1  0  0)   3-R(  0  1  0)   4-R(  1  1  0)
   5-C(  0  0  1)   6-C(  1  0  1)   7-C(  0  1  1)   8-C(  1  1  1)
   9-C(  0  0  2)  10-C(  1  0  2)  11-C(  0  1  2)  12-C(  1  1  2)
  13-C(  0  0  3)  14-C(  1  0  3)  15-C(  0  1  3)  16-C(  1  1  3)
  17-R(  0  0  4)  18-R(  1  0  4)  19-R(  0  1  4)  20-R(  1  1  4)

 DIRECT LATTICE VECTORS COMPON. (A.U.)     RECIP. LATTICE VECTORS COMPON. (A.U.) 
        X            Y            Z              X            Y            Z
   24.5689761  -14.2152832    0.0000000      0.2557366    0.0000000   -0.0960460
    0.0000000   28.4297713    0.0000000      0.1278719    0.2210072   -0.1914767
    2.8389949    4.9065872    7.5592415      0.0000000    0.0000000    0.8311926

 DISK SPACE FOR EIGENVECTORS (FTN 10)     7189632 REALS

 SYMMETRY ADAPTION OF THE BLOCH FUNCTIONS DISABLED
 TTTTTTTTTTTTTTTTTTTTTTTTTTTTTT gordsh1     TELAPSE        0.04 TCPU        0.04

 MATRIX SIZE: P(G)  317624, F(G)   66530, P(G) IRR  160117, F(G) IRR   67190
 MAX G-VECTOR INDEX FOR 1- AND 2-ELECTRON INTEGRALS  63

 TTTTTTTTTTTTTTTTTTTTTTTTTTTTTT INPUT       TELAPSE        0.33 TCPU        0.33

 NEIGHBORS OF THE NON-EQUIVALENT ATOMS

 N = NUMBER OF NEIGHBORS AT DISTANCE R
    ATOM  N     R/ANG      R/AU   NEIGHBORS (ATOM LABELS AND CELL INDICES)
   1 B    1     1.3787     2.6054   38 O    0 0 0
   1 B    1     1.3795     2.6068   37 O   -1 0 0
   1 B    1     1.5517     2.9323   30 C    0 0-1
   1 B    1     2.3868     4.5104    2 B    0 0 0
   1 B    1     2.3912     4.5187    3 B   -1 0 0
   1 B    1     2.5629     4.8432   27 C   -1 0-1

   2 B    1     1.3792     2.6064   38 O    0 0 0
   2 B    1     1.3798     2.6075   39 O    0 1-2
   2 B    1     1.5510     2.9309   19 C    0 0 0
   2 B    1     2.3868     4.5104    1 B    0 0 0
   2 B    1     2.3894     4.5154    3 B   -1 0 0
   2 B    1     2.5618     4.8411   22 C    0 1-1

   3 B    1     1.3790     2.6060   37 O    0 0 0
   3 B    1     1.3795     2.6069   39 O    1 1-2
   3 B    1     1.5529     2.9346   36 C    0 0 0
   3 B    1     2.3894     4.5154    2 B    1 0 0
   3 B    1     2.3912     4.5187    1 B    1 0 0
   3 B    1     2.5679     4.8526   35 C    1 1-1

   4 B    1     1.3779     2.6038   41 O    0 0 0
   4 B    1     1.3786     2.6051   40 O    0 0 0
   4 B    1     1.5479     2.9252   24 C    0 0 0
   4 B    1     2.3857     4.5084    5 B    0 0 0
   4 B    1     2.3859     4.5087    6 B    0 0 1
   4 B    1     2.5585     4.8349   21 C    0 0 0

   5 B    1     1.3778     2.6037   41 O    0 0 0
   5 B    1     1.3814     2.6104   42 O    0 0 0
   5 B    1     1.5524     2.9337   31 C    0 0 0
   5 B    1     2.3857     4.5084    4 B    0 0 0
   5 B    1     2.3952     4.5263    6 B    0 0 1
   5 B    1     2.5591     4.8360   32 C    0 0 0

   6 B    1     1.3783     2.6045   40 O    0 0-1
   6 B    1     1.3812     2.6101   42 O    0 0-1
   6 B    1     1.5546     2.9377   25 C    1 1-2
   6 B    1     2.3859     4.5087    4 B    0 0-1
   6 B    1     2.3952     4.5263    5 B    0 0-1
   6 B    1     2.5605     4.8387   26 C    1 1-2

   7 H    1     1.0917     2.0629   20 C    0 0 0
   7 H    1     2.1462     4.0557   19 C    0 0 0
   7 H    1     2.1712     4.1030   23 C    0 0 0
   7 H    1     2.5280     4.7772   10 H    0 0 0
   7 H    1     2.5583     4.8346   38 O    0 0 0
   7 H    1     2.7310     5.1609    2 B    0 0 0

   8 H    1     1.0909     2.0615   21 C    0-1 1
   8 H    1     2.1454     4.0543   24 C    0-1 1
   8 H    1     2.1688     4.0985   22 C    0 0 0
   8 H    1     2.5272     4.7758    9 H    0 0 0
   8 H    1     2.5563     4.8306   40 O    0-1 1
   8 H    1     2.7244     5.1483    4 B    0-1 1

   9 H    1     1.0909     2.0614   22 C    0 0 0
   9 H    1     2.1443     4.0521   19 C    0-1 1
   9 H    1     2.1694     4.0995   21 C    0-1 1
   9 H    1     2.5272     4.7758    8 H    0 0 0
   9 H    1     2.5616     4.8407   39 O    0 0-1
   9 H    1     2.7249     5.1493    2 B    0-1 1

  10 H    1     1.0912     2.0621   23 C    0 0 0
  10 H    1     2.1469     4.0570   24 C    0 0 0
  10 H    1     2.1689     4.0986   20 C    0 0 0
  10 H    1     2.5280     4.7772    7 H    0 0 0
  10 H    1     2.5562     4.8306   41 O    0 0 0
  10 H    1     2.7309     5.1607    4 B    0 0 0

  11 H    1     1.0911     2.0619   26 C    0 0 0
  11 H    1     2.1443     4.0521   25 C    0 0 0
  11 H    1     2.1684     4.0978   29 C    0 0 0
  11 H    1     2.5223     4.7664   14 H    0 0 0
  11 H    1     2.5622     4.8419   42 O   -1-1 1
  11 H    1     2.7179     5.1361    6 B   -1-1 2

  12 H    1     1.0917     2.0630   27 C    0 0 0
  12 H    1     2.1441     4.0518   30 C    1 0 0
  12 H    1     2.1716     4.1037   28 C    0 0 0
  12 H    1     2.5226     4.7669   13 H    0 0 0
  12 H    1     2.5541     4.8265   37 O    0 0 1
  12 H    1     2.7237     5.1471    1 B    1 0 1

  13 H    1     1.0919     2.0634   28 C    0 0 0
  13 H    1     2.1522     4.0671   25 C    1 0 0
  13 H    1     2.1668     4.0946   27 C    0 0 0
  13 H    1     2.5226     4.7669   12 H    0 0 0
  13 H    1     2.5923     4.8987   40 O    0-1 1
  13 H    1     2.7583     5.2124    6 B    0-1 2

  14 H    1     1.0915     2.0627   29 C    0 0 0
  14 H    1     2.1483     4.0597   30 C    0 0 0
  14 H    1     2.1679     4.0968   26 C    0 0 0
  14 H    1     2.5223     4.7664   11 H    0 0 0
  14 H    1     2.5809     4.8771   38 O    0 0 1
  14 H    1     2.7404     5.1785    1 B    0 0 1

  15 H    1     1.0916     2.0628   32 C   -1-1 1
  15 H    1     2.1436     4.0508   31 C   -1-1 1
  15 H    1     2.1707     4.1021   35 C    0 0 0
  15 H    1     2.5217     4.7654   18 H    0 0 0
  15 H    1     2.5568     4.8316   42 O   -1-1 1
  15 H    1     2.7166     5.1336    5 B   -1-1 1

  16 H    1     1.0914     2.0625   33 C    0 0 0
  16 H    1     2.1488     4.0606   36 C    0 0 0
  16 H    1     2.1663     4.0937   34 C    0 0 0
  16 H    1     2.5170     4.7564   17 H    0 0 0
  16 H    1     2.5780     4.8717   37 O    0 0 0
  16 H    1     2.7396     5.1770    3 B    0 0 0

  17 H    1     1.0921     2.0638   34 C    0 0 0
  17 H    1     2.1502     4.0633   31 C    0 0 0
  17 H    1     2.1683     4.0976   33 C    0 0 0
  17 H    1     2.5170     4.7564   16 H    0 0 0
  17 H    1     2.5870     4.8888   41 O    0 0 0
  17 H    1     2.7510     5.1986    5 B    0 0 0

  18 H    1     1.0913     2.0622   35 C    0 0 0
  18 H    1     2.1495     4.0619   36 C   -1-1 1
  18 H    1     2.1656     4.0923   32 C   -1-1 1
  18 H    1     2.5217     4.7654   15 H    0 0 0
  18 H    1     2.5789     4.8734   39 O    0 0-1
  18 H    1     2.7392     5.1763    3 B   -1-1 1

  19 C    1     1.4017     2.6489   22 C    0 1-1
  19 C    1     1.4025     2.6504   20 C    0 0 0
  19 C    1     1.5510     2.9309    2 B    0 0 0
  19 C    1     2.1443     4.0521    9 H    0 1-1
  19 C    1     2.1462     4.0557    7 H    0 0 0
  19 C    1     2.4236     4.5800   21 C    0 0 0

  20 C    1     1.0917     2.0629    7 H    0 0 0
  20 C    1     1.3915     2.6296   23 C    0 0 0
  20 C    1     1.4025     2.6504   19 C    0 0 0
  20 C    1     2.1689     4.0986   10 H    0 0 0
  20 C    1     2.4191     4.5715   22 C    0 1-1
  20 C    1     2.4241     4.5809   24 C    0 0 0

  21 C    1     1.0909     2.0615    8 H    0 1-1
  21 C    1     1.3909     2.6284   22 C    0 1-1
  21 C    1     1.4015     2.6484   24 C    0 0 0
  21 C    1     2.1694     4.0995    9 H    0 1-1
  21 C    1     2.4189     4.5711   23 C    0 0 0
  21 C    1     2.4236     4.5800   19 C    0 0 0

  22 C    1     1.0909     2.0614    9 H    0 0 0
  22 C    1     1.3909     2.6284   21 C    0-1 1
  22 C    1     1.4017     2.6489   19 C    0-1 1
  22 C    1     2.1688     4.0985    8 H    0 0 0
  22 C    1     2.4191     4.5715   20 C    0-1 1
  22 C    1     2.4226     4.5780   24 C    0-1 1

  23 C    1     1.0912     2.0621   10 H    0 0 0
  23 C    1     1.3915     2.6296   20 C    0 0 0
  23 C    1     1.4021     2.6497   24 C    0 0 0
  23 C    1     2.1712     4.1030    7 H    0 0 0
  23 C    1     2.4189     4.5711   21 C    0 0 0
  23 C    1     2.4237     4.5802   19 C    0 0 0

  24 C    1     1.4015     2.6484   21 C    0 0 0
  24 C    1     1.4021     2.6497   23 C    0 0 0
  24 C    1     1.5479     2.9252    4 B    0 0 0
  24 C    1     2.1454     4.0543    8 H    0 1-1
  24 C    1     2.1469     4.0570   10 H    0 0 0
  24 C    1     2.4226     4.5780   22 C    0 1-1

  25 C    1     1.4025     2.6504   26 C    0 0 0
  25 C    1     1.4037     2.6526   28 C   -1 0 0
  25 C    1     1.5546     2.9377    6 B   -1-1 2
  25 C    1     2.1443     4.0521   11 H    0 0 0
  25 C    1     2.1522     4.0671   13 H   -1 0 0
  25 C    1     2.4271     4.5866   27 C   -1 0 0

  26 C    1     1.0911     2.0619   11 H    0 0 0
  26 C    1     1.3916     2.6298   29 C    0 0 0
  26 C    1     1.4025     2.6504   25 C    0 0 0
  26 C    1     2.1679     4.0968   14 H    0 0 0
  26 C    1     2.4165     4.5665   28 C   -1 0 0
  26 C    1     2.4246     4.5819   30 C    0 0 0

  27 C    1     1.0917     2.0630   12 H    0 0 0
  27 C    1     1.3928     2.6320   28 C    0 0 0
  27 C    1     1.4024     2.6502   30 C    1 0 0
  27 C    1     2.1668     4.0946   13 H    0 0 0
  27 C    1     2.4166     4.5668   29 C    1 0 0
  27 C    1     2.4271     4.5866   25 C    1 0 0

  28 C    1     1.0919     2.0634   13 H    0 0 0
  28 C    1     1.3928     2.6320   27 C    0 0 0
  28 C    1     1.4037     2.6526   25 C    1 0 0
  28 C    1     2.1716     4.1037   12 H    0 0 0
  28 C    1     2.4165     4.5665   26 C    1 0 0
  28 C    1     2.4277     4.5877   30 C    1 0 0

  29 C    1     1.0915     2.0627   14 H    0 0 0
  29 C    1     1.3916     2.6298   26 C    0 0 0
  29 C    1     1.4023     2.6499   30 C    0 0 0
  29 C    1     2.1684     4.0978   11 H    0 0 0
  29 C    1     2.4166     4.5668   27 C   -1 0 0
  29 C    1     2.4281     4.5884   25 C    0 0 0

  30 C    1     1.4023     2.6499   29 C    0 0 0
  30 C    1     1.4024     2.6502   27 C   -1 0 0
  30 C    1     1.5517     2.9323    1 B    0 0 1
  30 C    1     2.1441     4.0518   12 H   -1 0 0
  30 C    1     2.1483     4.0597   14 H    0 0 0
  30 C    1     2.4246     4.5819   26 C    0 0 0

  31 C    1     1.4022     2.6498   32 C    0 0 0
  31 C    1     1.4030     2.6513   34 C    0 0 0
  31 C    1     1.5524     2.9337    5 B    0 0 0
  31 C    1     2.1436     4.0508   15 H    1 1-1
  31 C    1     2.1502     4.0633   17 H    0 0 0
  31 C    1     2.4265     4.5853   33 C    0 0 0

  32 C    1     1.0916     2.0628   15 H    1 1-1
  32 C    1     1.3918     2.6301   35 C    1 1-1
  32 C    1     1.4022     2.6498   31 C    0 0 0
  32 C    1     2.1656     4.0923   18 H    1 1-1
  32 C    1     2.4163     4.5661   34 C    0 0 0
  32 C    1     2.4270     4.5863   36 C    0 0 0

  33 C    1     1.0914     2.0625   16 H    0 0 0
  33 C    1     1.3927     2.6318   34 C    0 0 0
  33 C    1     1.4029     2.6510   36 C    0 0 0
  33 C    1     2.1683     4.0976   17 H    0 0 0
  33 C    1     2.4155     4.5646   35 C    1 1-1
  33 C    1     2.4265     4.5853   31 C    0 0 0

  34 C    1     1.0921     2.0638   17 H    0 0 0
  34 C    1     1.3927     2.6318   33 C    0 0 0
  34 C    1     1.4030     2.6513   31 C    0 0 0
  34 C    1     2.1663     4.0937   16 H    0 0 0
  34 C    1     2.4163     4.5661   32 C    0 0 0
  34 C    1     2.4289     4.5899   36 C    0 0 0

  35 C    1     1.0913     2.0622   18 H    0 0 0
  35 C    1     1.3918     2.6301   32 C   -1-1 1
  35 C    1     1.4029     2.6511   36 C   -1-1 1
  35 C    1     2.1707     4.1021   15 H    0 0 0
  35 C    1     2.4155     4.5646   33 C   -1-1 1
  35 C    1     2.4269     4.5861   31 C   -1-1 1

  36 C    1     1.4029     2.6510   33 C    0 0 0
  36 C    1     1.4029     2.6511   35 C    1 1-1
  36 C    1     1.5529     2.9346    3 B    0 0 0
  36 C    1     2.1488     4.0606   16 H    0 0 0
  36 C    1     2.1495     4.0619   18 H    1 1-1
  36 C    1     2.4270     4.5863   32 C    0 0 0

  37 O    1     1.3790     2.6060    3 B    0 0 0
  37 O    1     1.3795     2.6068    1 B    1 0 0
  37 O    1     2.3868     4.5105   39 O    1 1-2
  37 O    1     2.3885     4.5136   38 O    1 0 0
  37 O    1     2.5389     4.7979   30 C    1 0-1
  37 O    1     2.5412     4.8022   36 C    0 0 0

  38 O    1     1.3787     2.6054    1 B    0 0 0
  38 O    1     1.3792     2.6064    2 B    0 0 0
  38 O    1     2.3885     4.5136   37 O   -1 0 0
  38 O    1     2.3912     4.5188   39 O    0 1-2
  38 O    1     2.5351     4.7906   19 C    0 0 0
  38 O    1     2.5405     4.8008   30 C    0 0-1

  39 O    1     1.3795     2.6069    3 B   -1-1 2
  39 O    1     1.3798     2.6075    2 B    0-1 2
  39 O    1     2.3868     4.5105   37 O   -1-1 2
  39 O    1     2.3912     4.5188   38 O    0-1 2
  39 O    1     2.5416     4.8030   19 C    0-1 2
  39 O    1     2.5427     4.8050   36 C   -1-1 2

  40 O    1     1.3783     2.6045    6 B    0 0 1
  40 O    1     1.3786     2.6051    4 B    0 0 0
  40 O    1     2.3876     4.5119   42 O    0 0 0
  40 O    1     2.3914     4.5190   41 O    0 0 0
  40 O    1     2.5354     4.7912   25 C    1 1-1
  40 O    1     2.5360     4.7924   24 C    0 0 0

  41 O    1     1.3778     2.6037    5 B    0 0 0
  41 O    1     1.3779     2.6038    4 B    0 0 0
  41 O    1     2.3870     4.5108   42 O    0 0 0
  41 O    1     2.3914     4.5190   40 O    0 0 0
  41 O    1     2.5306     4.7821   24 C    0 0 0
  41 O    1     2.5354     4.7913   31 C    0 0 0

  42 O    1     1.3812     2.6101    6 B    0 0 1
  42 O    1     1.3814     2.6104    5 B    0 0 0
  42 O    1     2.3870     4.5108   41 O    0 0 0
  42 O    1     2.3876     4.5119   40 O    0 0 0
  42 O    1     2.5481     4.8152   31 C    0 0 0
  42 O    1     2.5522     4.8230   25 C    1 1-1


 SYMMETRY ALLOWED INTERNAL DEGREE(S) OF FREEDOM: 123
 TTTTTTTTTTTTTTTTTTTTTTTTTTTTTT SYMM        TELAPSE        0.33 TCPU        0.33
 TTTTTTTTTTTTTTTTTTTTTTTTTTTTTT INT_SCREEN  TELAPSE        0.36 TCPU        0.36

 DFT PARAMETERS

     ATOM       ELECTRONS   NET CHARGE   R(ANGSTROM)
   1   5  B       5.0000      0.0000     0.89000000
   7   1  H       1.0000      0.0000     1.11000000
  19   6  C       6.0000      0.0000     0.77000000
  37   8  O       8.0000      0.0000     0.74000000

 SIZE OF GRID=    1313971
 TTTTTTTTTTTTTTTTTTTTTTTTTTTTTT MAKE_GRID2  TELAPSE        9.10 TCPU        9.08
 BECKE WEIGHT FUNCTION
 RADSAFE =     2.00
 TOLERANCES - DENSITY:10**- 6; POTENTIAL:10**- 9; GRID WGT:10**-14

 RADIAL INTEGRATION  - INTERVALS (POINTS,UPPER LIMIT):            1( 75,  4.0*R)

 ANGULAR INTEGRATION - INTERVALS (ACCURACY LEVEL [N. POINTS] UPPER LIMIT):
  1(  4[  86]   0.2)  2(  8[ 194]   0.5)  3( 12[ 350]   0.9)  4( 16[ 974]   3.5)
  5( 12[ 350]9999.0)
 TTTTTTTTTTTTTTTTTTTTTTTTTTTTTT INT_CALC    TELAPSE        9.18 TCPU        9.16
 EEEEEEEEEE INT_CALC TERMINATION  DATE 02 12 2025 TIME 08:04:05.0

 *******************************************************************************
 COF-5_z40_inc_L030                                                              
 CRYSTAL - SCF - TYPE OF CALCULATION :  RESTRICTED CLOSED SHELL
 *******************************************************************************

 CAPPA:IS1  2;IS2  2;IS3  8; K PTS MONK NET  20; SYMMOPS:K SPACE   2;G SPACE   1

 TTTTTTTTTTTTTTTTTTTTTTTTTTTTTT SDIK        TELAPSE        9.81 TCPU       17.27

 AAAAAAAAAAAAAAAAAAAAAAAAAAAAAAAAAAAAAAAAAAAAAAAAAAAAAAAAAAAAAAAAAAAAAAAAAAAAAAA
         ATOMIC WAVEFUNCTION(S)


 NUCLEAR CHARGE  5.0  SYMMETRY SPECIES            S    P
 N. ELECTRONS    5.0  NUMBER OF PRIMITIVE GTOS    8    4
                      NUMBER OF CONTRACTED GTOS   4    2
                      NUMBER OF CLOSED SHELLS     2    0
                      OPEN SHELL OCCUPATION       0    1

  ZNUC  SCFIT    TOTAL HF ENERGY   KINETIC ENERGY   VIRIAL THEOREM ACCURACY
   5.0    11    -2.451164084E+01  2.462155050E+01 -1.995536038E+00  1.5E-06

 NUCLEAR CHARGE  1.0  SYMMETRY SPECIES            S
 N. ELECTRONS    1.0  NUMBER OF PRIMITIVE GTOS    4
                      NUMBER OF CONTRACTED GTOS   2
                      NUMBER OF CLOSED SHELLS     0
                      OPEN SHELL OCCUPATION       1

  ZNUC  SCFIT    TOTAL HF ENERGY   KINETIC ENERGY   VIRIAL THEOREM ACCURACY
   1.0     1    -4.977266687E-01  5.190767460E-01 -1.958869132E+00  0.0E+00

 NUCLEAR CHARGE  6.0  SYMMETRY SPECIES            S    P
 N. ELECTRONS    6.0  NUMBER OF PRIMITIVE GTOS    8    4
                      NUMBER OF CONTRACTED GTOS   4    2
                      NUMBER OF CLOSED SHELLS     2    0
                      OPEN SHELL OCCUPATION       0    2

  ZNUC  SCFIT    TOTAL HF ENERGY   KINETIC ENERGY   VIRIAL THEOREM ACCURACY
   6.0     9    -3.766704647E+01  3.775180683E+01 -1.997754800E+00  1.1E-06

 NUCLEAR CHARGE  8.0  SYMMETRY SPECIES            S    P
 N. ELECTRONS    8.0  NUMBER OF PRIMITIVE GTOS    8    4
                      NUMBER OF CONTRACTED GTOS   4    2
                      NUMBER OF CLOSED SHELLS     2    0
                      OPEN SHELL OCCUPATION       0    4

  ZNUC  SCFIT    TOTAL HF ENERGY   KINETIC ENERGY   VIRIAL THEOREM ACCURACY
   8.0    12    -7.477373220E+01  7.477365593E+01 -2.000001020E+00  3.8E-06

 AAAAAAAAAAAAAAAAAAAAAAAAAAAAAAAAAAAAAAAAAAAAAAAAAAAAAAAAAAAAAAAAAAAAAAAAAAAAAAA

 CHARGE NORMALIZATION FACTOR   1.00000000
 TOTAL ATOMIC CHARGES:
   5.0000000   5.0000000   5.0000000   5.0000000   5.0000000   5.0000000
   1.0000000   1.0000000   1.0000000   1.0000000   1.0000000   1.0000000
   1.0000000   1.0000000   1.0000000   1.0000000   1.0000000   1.0000000
   6.0000000   6.0000000   6.0000000   6.0000000   6.0000000   6.0000000
   6.0000000   6.0000000   6.0000000   6.0000000   6.0000000   6.0000000
   6.0000000   6.0000000   6.0000000   6.0000000   6.0000000   6.0000000
   8.0000000   8.0000000   8.0000000   8.0000000   8.0000000   8.0000000
 TTTTTTTTTTTTTTTTTTTTTTTTTTTTTT MOQGAD      TELAPSE        9.85 TCPU       18.70
 TTTTTTTTTTTTTTTTTTTTTTTTTTTTTT SHELLXN     TELAPSE       16.74 TCPU      238.52
 TTTTTTTTTTTTTTTTTTTTTTTTTTTTTT MONMO3      TELAPSE       16.88 TCPU      242.95
 NUMERICALLY INTEGRATED DENSITY    198.0000177745
 TTTTTTTTTTTTTTTTTTTTTTTTTTTTTT NUMDFT      TELAPSE       17.44 TCPU      260.86
 CYC   0 ETOT(AU) -1.295948170453E+03 DETOT -1.30E+03 tst  0.00E+00 PX  1.00E+00
 TTTTTTTTTTTTTTTTTTTTTTTTTTTTTT DIIS        TELAPSE       17.49 TCPU      262.38
 TTTTTTTTTTTTTTTTTTTTTTTTTTTTTT FDIK        TELAPSE       17.99 TCPU      278.25
 INSULATING STATE
 TOP OF VALENCE BANDS -    BAND     99; K   17; EIG -3.1213488E-01 AU
 TOP OF VALENCE BANDS -    BAND     99; K    1; EIG -3.1356000E-01 AU
 BOTTOM OF VIRTUAL BANDS - BAND    100; K    1; EIG -1.5890242E-01 AU
 INDIRECT ENERGY BAND GAP:   4.1697 eV
 TTTTTTTTTTTTTTTTTTTTTTTTTTTTTT PDIG        TELAPSE       18.28 TCPU      284.40
 CHARGE NORMALIZATION FACTOR   1.00000000
 TOTAL ATOMIC CHARGES:
   4.1544053   4.1622714   4.1634439   4.1651035   4.1623609   4.1536523
   0.7852196   0.7851870   0.7851574   0.7851726   0.7855413   0.7854594
   0.7864228   0.7859942   0.7849383   0.7855181   0.7853373   0.7855793
   6.0436841   6.2655595   6.2656145   6.2656667   6.2643677   6.0459664
   6.0428940   6.2663695   6.2646074   6.2670429   6.2669186   6.0464831
   6.0428882   6.2656348   6.2664986   6.2651511   6.2667949   6.0404044
   8.6938627   8.6930577   8.6936554   8.6926441   8.6923684   8.6951008
 TTTTTTTTTTTTTTTTTTTTTTTTTTTTTT MOQGAD      TELAPSE       18.33 TCPU      284.44
 TTTTTTTTTTTTTTTTTTTTTTTTTTTTTT SHELLXN     TELAPSE       25.50 TCPU      513.07
 TTTTTTTTTTTTTTTTTTTTTTTTTTTTTT MONMO3      TELAPSE       25.64 TCPU      517.46
 NUMERICALLY INTEGRATED DENSITY    198.0000157615
 TTTTTTTTTTTTTTTTTTTTTTTTTTTTTT NUMDFT      TELAPSE       26.20 TCPU      535.38
 CYC   1 ETOT(AU) -1.288818610545E+03 DETOT  7.13E+00 tst  0.00E+00 PX  1.00E+00
 TTTTTTTTTTTTTTTTTTTTTTTTTTTTTT DIIS        TELAPSE       26.25 TCPU      536.86
 DIIS TEST: 0.10986E+01 AT SCF   CYCLE   1 - MIX   30 %
 TTTTTTTTTTTTTTTTTTTTTTTTTTTTTT FDIK        TELAPSE       26.73 TCPU      552.27
 INSULATING STATE
 TOP OF VALENCE BANDS -    BAND     99; K   17; EIG -2.2214825E-01 AU
 TOP OF VALENCE BANDS -    BAND     99; K    1; EIG -2.2705924E-01 AU
 BOTTOM OF VIRTUAL BANDS - BAND    100; K    1; EIG -8.1172840E-02 AU
 INDIRECT ENERGY BAND GAP:   3.8361 eV
 TTTTTTTTTTTTTTTTTTTTTTTTTTTTTT PDIG        TELAPSE       27.03 TCPU      558.42
 CHARGE NORMALIZATION FACTOR   1.00000000
 TOTAL ATOMIC CHARGES:
   4.6854596   4.7031040   4.7035105   4.7040747   4.7032176   4.6855517
   0.9090031   0.9094173   0.9166150   0.9166637   0.9069925   0.9066036
   0.9076330   0.9078736   0.9085326   0.9090823   0.9163787   0.9165168
   5.8672544   6.1263062   6.1243494   6.1433649   6.1457453   5.8633586
   5.8854339   6.1358914   6.1387520   6.1411797   6.1393409   5.8810922
   5.8690209   6.1211570   6.1241800   6.1460397   6.1425582   5.8696574
   8.3318515   8.3304651   8.3476101   8.3290582   8.3447132   8.3353896
 TTTTTTTTTTTTTTTTTTTTTTTTTTTTTT MOQGAD      TELAPSE       27.08 TCPU      558.47
 TTTTTTTTTTTTTTTTTTTTTTTTTTTTTT SHELLXN     TELAPSE       34.24 TCPU      786.71
 TTTTTTTTTTTTTTTTTTTTTTTTTTTTTT MONMO3      TELAPSE       34.38 TCPU      791.10
 NUMERICALLY INTEGRATED DENSITY    198.0000232132
 TTTTTTTTTTTTTTTTTTTTTTTTTTTTTT NUMDFT      TELAPSE       34.94 TCPU      809.10
 CYC   2 ETOT(AU) -1.289013339670E+03 DETOT -1.95E-01 tst  3.95E-03 PX  1.59E-01
 TTTTTTTTTTTTTTTTTTTTTTTTTTTTTT DIIS        TELAPSE       34.99 TCPU      810.75
 DIIS TEST: 0.45455E+00 AT SCF   CYCLE   2 - DIIS ACTIVE - HISTORY:     2 CYCLES
 TTTTTTTTTTTTTTTTTTTTTTTTTTTTTT FDIK        TELAPSE       35.52 TCPU      827.38
 INSULATING STATE
 TOP OF VALENCE BANDS -    BAND     99; K   17; EIG -2.3529398E-01 AU
 TOP OF VALENCE BANDS -    BAND     99; K    1; EIG -2.3817593E-01 AU
 BOTTOM OF VIRTUAL BANDS - BAND    100; K    1; EIG -7.7388739E-02 AU
 INDIRECT ENERGY BAND GAP:   4.2968 eV
 TTTTTTTTTTTTTTTTTTTTTTTTTTTTTT PDIG        TELAPSE       35.81 TCPU      833.53
 CHARGE NORMALIZATION FACTOR   1.00000000
 TOTAL ATOMIC CHARGES:
   4.4838094   4.4980393   4.4986312   4.4997992   4.4978948   4.4833841
   0.8873224   0.8872355   0.8929143   0.8931923   0.8861951   0.8860803
   0.8877141   0.8871675   0.8861718   0.8873090   0.8933707   0.8928522
   5.8889848   6.1610944   6.1618217   6.1585241   6.1584589   5.8906970
   5.9026868   6.1594960   6.1598095   6.1622034   6.1621887   5.9037775
   5.8897688   6.1609470   6.1612291   6.1593080   6.1600988   5.8891559
   8.5147077   8.5141655   8.5117471   8.5136334   8.5095295   8.5168833
 TTTTTTTTTTTTTTTTTTTTTTTTTTTTTT MOQGAD      TELAPSE       35.86 TCPU      833.58
 TTTTTTTTTTTTTTTTTTTTTTTTTTTTTT SHELLXN     TELAPSE       43.04 TCPU     1062.27
 TTTTTTTTTTTTTTTTTTTTTTTTTTTTTT MONMO3      TELAPSE       43.18 TCPU     1066.66
 NUMERICALLY INTEGRATED DENSITY    198.0000215915
 TTTTTTTTTTTTTTTTTTTTTTTTTTTTTT NUMDFT      TELAPSE       43.74 TCPU     1084.61
 CYC   3 ETOT(AU) -1.289107523316E+03 DETOT -9.42E-02 tst  6.91E-04 PX  6.52E-02
 TTTTTTTTTTTTTTTTTTTTTTTTTTTTTT DIIS        TELAPSE       43.80 TCPU     1086.51
 DIIS TEST: 0.13486E-01 AT SCF   CYCLE   3 - DIIS ACTIVE - HISTORY:     3 CYCLES
 TTTTTTTTTTTTTTTTTTTTTTTTTTTTTT FDIK        TELAPSE       44.28 TCPU     1101.93
 INSULATING STATE
 TOP OF VALENCE BANDS -    BAND     99; K   17; EIG -2.4538896E-01 AU
 TOP OF VALENCE BANDS -    BAND     99; K    1; EIG -2.4994129E-01 AU
 BOTTOM OF VIRTUAL BANDS - BAND    100; K    1; EIG -8.5874706E-02 AU
 INDIRECT ENERGY BAND GAP:   4.3406 eV
 TTTTTTTTTTTTTTTTTTTTTTTTTTTTTT PDIG        TELAPSE       44.57 TCPU     1108.08
 CHARGE NORMALIZATION FACTOR   1.00000000
 TOTAL ATOMIC CHARGES:
   4.4905942   4.5023852   4.5028296   4.5040972   4.5021615   4.4903625
   0.8704670   0.8708737   0.8750809   0.8752723   0.8676285   0.8674659
   0.8688925   0.8687550   0.8699214   0.8706654   0.8753218   0.8753703
   5.9386848   6.1617745   6.1598107   6.1730273   6.1736537   5.9364357
   5.9530221   6.1690474   6.1699488   6.1714536   6.1704226   5.9515001
   5.9390742   6.1587351   6.1609030   6.1744232   6.1723947   5.9381442
   8.4766786   8.4753600   8.4879822   8.4742785   8.4858682   8.4792318
 TTTTTTTTTTTTTTTTTTTTTTTTTTTTTT MOQGAD      TELAPSE       44.62 TCPU     1108.12
 TTTTTTTTTTTTTTTTTTTTTTTTTTTTTT SHELLXN     TELAPSE       51.78 TCPU     1336.40
 TTTTTTTTTTTTTTTTTTTTTTTTTTTTTT MONMO3      TELAPSE       51.92 TCPU     1340.81
 NUMERICALLY INTEGRATED DENSITY    198.0000213497
 TTTTTTTTTTTTTTTTTTTTTTTTTTTTTT NUMDFT      TELAPSE       52.49 TCPU     1358.74
 CYC   4 ETOT(AU) -1.289110374211E+03 DETOT -2.85E-03 tst  2.91E-05 PX  1.35E-02
 TTTTTTTTTTTTTTTTTTTTTTTTTTTTTT DIIS        TELAPSE       52.55 TCPU     1360.67
 DIIS TEST: 0.41459E-02 AT SCF   CYCLE   4 - DIIS ACTIVE - HISTORY:     4 CYCLES
 TTTTTTTTTTTTTTTTTTTTTTTTTTTTTT FDIK        TELAPSE       53.05 TCPU     1376.75
 INSULATING STATE
 TOP OF VALENCE BANDS -    BAND     99; K   17; EIG -2.4357981E-01 AU
 TOP OF VALENCE BANDS -    BAND     99; K    1; EIG -2.4756732E-01 AU
 BOTTOM OF VIRTUAL BANDS - BAND    100; K    1; EIG -8.5379718E-02 AU
 INDIRECT ENERGY BAND GAP:   4.3048 eV
 TTTTTTTTTTTTTTTTTTTTTTTTTTTTTT PDIG        TELAPSE       53.34 TCPU     1382.90
 CHARGE NORMALIZATION FACTOR   1.00000000
 TOTAL ATOMIC CHARGES:
   4.4903713   4.5050906   4.5056574   4.5067190   4.5049599   4.4900510
   0.8733018   0.8733316   0.8787585   0.8789398   0.8714295   0.8712377
   0.8727404   0.8723715   0.8724017   0.8733927   0.8790908   0.8787981
   5.9197138   6.1637824   6.1638624   6.1698004   6.1702460   5.9201870
   5.9333721   6.1680065   6.1688744   6.1707464   6.1703802   5.9333419
   5.9206986   6.1625346   6.1634412   6.1706953   6.1705532   5.9203035
   8.4894505   8.4885712   8.4926951   8.4878618   8.4903958   8.4918428
 TTTTTTTTTTTTTTTTTTTTTTTTTTTTTT MOQGAD      TELAPSE       53.39 TCPU     1382.95
 TTTTTTTTTTTTTTTTTTTTTTTTTTTTTT SHELLXN     TELAPSE       60.56 TCPU     1611.55
 TTTTTTTTTTTTTTTTTTTTTTTTTTTTTT MONMO3      TELAPSE       60.70 TCPU     1615.99
 NUMERICALLY INTEGRATED DENSITY    198.0000214057
 TTTTTTTTTTTTTTTTTTTTTTTTTTTTTT NUMDFT      TELAPSE       61.27 TCPU     1633.94
 CYC   5 ETOT(AU) -1.289111320928E+03 DETOT -9.47E-04 tst  6.29E-06 PX  6.54E-03
 TTTTTTTTTTTTTTTTTTTTTTTTTTTTTT DIIS        TELAPSE       61.34 TCPU     1636.16
 DIIS TEST: 0.64780E-04 AT SCF   CYCLE   5 - DIIS ACTIVE - HISTORY:     5 CYCLES
 TTTTTTTTTTTTTTTTTTTTTTTTTTTTTT FDIK        TELAPSE       61.83 TCPU     1651.85
 INSULATING STATE
 TOP OF VALENCE BANDS -    BAND     99; K   17; EIG -2.4331109E-01 AU
 TOP OF VALENCE BANDS -    BAND     99; K    1; EIG -2.4731375E-01 AU
 BOTTOM OF VIRTUAL BANDS - BAND    100; K    1; EIG -8.4848444E-02 AU
 INDIRECT ENERGY BAND GAP:   4.3120 eV
 TTTTTTTTTTTTTTTTTTTTTTTTTTTTTT PDIG        TELAPSE       62.12 TCPU     1658.00
 CHARGE NORMALIZATION FACTOR   1.00000000
 TOTAL ATOMIC CHARGES:
   4.4911590   4.5043994   4.5048963   4.5060920   4.5042474   4.4908876
   0.8742095   0.8744982   0.8796588   0.8798924   0.8724008   0.8722578
   0.8736997   0.8734600   0.8735194   0.8743576   0.8799242   0.8798546
   5.9201830   6.1637006   6.1622482   6.1695619   6.1699273   5.9188634
   5.9341925   6.1673520   6.1679290   6.1699009   6.1691992   5.9334021
   5.9206267   6.1613256   6.1630321   6.1709665   6.1694943   5.9195513
   8.4880817   8.4870534   8.4947435   8.4860493   8.4926619   8.4905388
 TTTTTTTTTTTTTTTTTTTTTTTTTTTTTT MOQGAD      TELAPSE       62.17 TCPU     1658.05
 TTTTTTTTTTTTTTTTTTTTTTTTTTTTTT SHELLXN     TELAPSE       69.34 TCPU     1886.33
 TTTTTTTTTTTTTTTTTTTTTTTTTTTTTT MONMO3      TELAPSE       69.48 TCPU     1890.82
 NUMERICALLY INTEGRATED DENSITY    198.0000214242
 TTTTTTTTTTTTTTTTTTTTTTTTTTTTTT NUMDFT      TELAPSE       70.04 TCPU     1908.84
 CYC   6 ETOT(AU) -1.289111338058E+03 DETOT -1.71E-05 tst  1.26E-07 PX  1.04E-03
 TTTTTTTTTTTTTTTTTTTTTTTTTTTTTT DIIS        TELAPSE       70.11 TCPU     1911.07
 DIIS TEST: 0.13587E-04 AT SCF   CYCLE   6 - DIIS ACTIVE - HISTORY:     6 CYCLES
 TTTTTTTTTTTTTTTTTTTTTTTTTTTTTT FDIK        TELAPSE       70.60 TCPU     1926.64
 INSULATING STATE
 TOP OF VALENCE BANDS -    BAND     99; K   17; EIG -2.4333402E-01 AU
 TOP OF VALENCE BANDS -    BAND     99; K    1; EIG -2.4731812E-01 AU
 BOTTOM OF VIRTUAL BANDS - BAND    100; K    1; EIG -8.4894860E-02 AU
 INDIRECT ENERGY BAND GAP:   4.3114 eV
 TTTTTTTTTTTTTTTTTTTTTTTTTTTTTT PDIG        TELAPSE       70.89 TCPU     1932.79
 CHARGE NORMALIZATION FACTOR   1.00000000
 TOTAL ATOMIC CHARGES:
   4.4907795   4.5047756   4.5053302   4.5064453   4.5046367   4.4904565
   0.8742621   0.8743578   0.8796125   0.8798032   0.8723327   0.8721449
   0.8736464   0.8733183   0.8734139   0.8743692   0.8799450   0.8796875
   5.9198357   6.1631160   6.1628880   6.1692460   6.1696761   5.9199028
   5.9337866   6.1672196   6.1681140   6.1699734   6.1694001   5.9335241
   5.9206416   6.1616125   6.1627449   6.1701907   6.1698203   5.9202291
   8.4887349   8.4877549   8.4931997   8.4870209   8.4909274   8.4911237
 TTTTTTTTTTTTTTTTTTTTTTTTTTTTTT MOQGAD      TELAPSE       70.94 TCPU     1932.83
 TTTTTTTTTTTTTTTTTTTTTTTTTTTTTT SHELLXN     TELAPSE       78.12 TCPU     2161.73
 TTTTTTTTTTTTTTTTTTTTTTTTTTTTTT MONMO3      TELAPSE       78.26 TCPU     2166.17
 NUMERICALLY INTEGRATED DENSITY    198.0000214249
 TTTTTTTTTTTTTTTTTTTTTTTTTTTTTT NUMDFT      TELAPSE       78.83 TCPU     2184.12
 CYC   7 ETOT(AU) -1.289111340384E+03 DETOT -2.33E-06 tst  4.45E-08 PX  6.25E-04
 TTTTTTTTTTTTTTTTTTTTTTTTTTTTTT DIIS        TELAPSE       78.90 TCPU     2186.64
 DIIS TEST: 0.11887E-05 AT SCF   CYCLE   7 - DIIS ACTIVE - HISTORY:     7 CYCLES
 TTTTTTTTTTTTTTTTTTTTTTTTTTTTTT FDIK        TELAPSE       79.39 TCPU     2202.31
 INSULATING STATE
 TOP OF VALENCE BANDS -    BAND     99; K   17; EIG -2.4333426E-01 AU
 TOP OF VALENCE BANDS -    BAND     99; K    1; EIG -2.4733206E-01 AU
 BOTTOM OF VIRTUAL BANDS - BAND    100; K    1; EIG -8.4917470E-02 AU
 INDIRECT ENERGY BAND GAP:   4.3107 eV
 TTTTTTTTTTTTTTTTTTTTTTTTTTTTTT PDIG        TELAPSE       79.69 TCPU     2208.45
 CHARGE NORMALIZATION FACTOR   1.00000000
 TOTAL ATOMIC CHARGES:
   4.4908747   4.5048081   4.5053414   4.5064742   4.5046632   4.4905788
   0.8741957   0.8743572   0.8795831   0.8797901   0.8722864   0.8721239
   0.8736058   0.8732913   0.8733987   0.8743160   0.8798844   0.8797036
   5.9200011   6.1632983   6.1625951   6.1693323   6.1697570   5.9195648
   5.9338131   6.1673608   6.1680397   6.1699370   6.1694692   5.9334129
   5.9207442   6.1614909   6.1627685   6.1704964   6.1696660   5.9199567
   8.4886091   8.4876803   8.4935310   8.4868015   8.4913427   8.4910551
 TTTTTTTTTTTTTTTTTTTTTTTTTTTTTT MOQGAD      TELAPSE       79.73 TCPU     2208.50
 TTTTTTTTTTTTTTTTTTTTTTTTTTTTTT SHELLXN     TELAPSE       86.91 TCPU     2437.12
 TTTTTTTTTTTTTTTTTTTTTTTTTTTTTT MONMO3      TELAPSE       87.05 TCPU     2441.52
 NUMERICALLY INTEGRATED DENSITY    198.0000214241
 TTTTTTTTTTTTTTTTTTTTTTTTTTTTTT NUMDFT      TELAPSE       87.61 TCPU     2459.54
 CYC   8 ETOT(AU) -1.289111340464E+03 DETOT -8.01E-08 tst  2.15E-09 PX  1.58E-04
 TTTTTTTTTTTTTTTTTTTTTTTTTTTTTT DIIS        TELAPSE       87.69 TCPU     2462.18
 DIIS TEST: 0.65485E-07 AT SCF   CYCLE   8 - DIIS ACTIVE - HISTORY:     8 CYCLES
 TTTTTTTTTTTTTTTTTTTTTTTTTTTTTT FDIK        TELAPSE       88.19 TCPU     2478.01
 INSULATING STATE
 TOP OF VALENCE BANDS -    BAND     99; K   17; EIG -2.4333804E-01 AU
 TOP OF VALENCE BANDS -    BAND     99; K    1; EIG -2.4733135E-01 AU
 BOTTOM OF VIRTUAL BANDS - BAND    100; K    1; EIG -8.4913374E-02 AU
 INDIRECT ENERGY BAND GAP:   4.3110 eV
 TTTTTTTTTTTTTTTTTTTTTTTTTTTTTT PDIG        TELAPSE       88.48 TCPU     2484.15
 CHARGE NORMALIZATION FACTOR   1.00000000
 TOTAL ATOMIC CHARGES:
   4.4908887   4.5047792   4.5053159   4.5064466   4.5046339   4.4905798
   0.8741974   0.8743385   0.8795823   0.8797844   0.8722995   0.8721193
   0.8736046   0.8733021   0.8733862   0.8743124   0.8798976   0.8796857
   5.9198938   6.1632540   6.1627428   6.1693448   6.1697456   5.9196334
   5.9338413   6.1672634   6.1681123   6.1700033   6.1693694   5.9334560
   5.9206031   6.1615392   6.1628259   6.1703943   6.1697639   5.9200563
   8.4886217   8.4876213   8.4935692   8.4868333   8.4913411   8.4910163
 TTTTTTTTTTTTTTTTTTTTTTTTTTTTTT MOQGAD      TELAPSE       88.53 TCPU     2484.20
 TTTTTTTTTTTTTTTTTTTTTTTTTTTTTT SHELLXN     TELAPSE       95.71 TCPU     2712.93
 +++ ENERGIES IN A.U. +++
 ::: EXT EL-POLE                                  -1.2819339646291E+03
 ::: EXT EL-SPHEROPOLE                             1.4304527040982E+01
 ::: BIELET ZONE E-E                               2.1054103065125E+03
 ::: TOTAL E-E                                     8.3778086892432E+02
 ::: TOTAL E-N + N-E                              -3.5050271378108E+03
 ::: TOTAL N-N                                     2.3193979169049E+02
 ::: KINETIC ENERGY                                1.2799064656296E+03
 ::: PSEUDO TOTAL   ENERGY                        -1.1554000115663E+03
 ::: VIRIAL COEFFICIENT                            1.0511255791537E+00
 TTTTTTTTTTTTTTTTTTTTTTTTTTTTTT MONMO3      TELAPSE       95.85 TCPU     2717.35
 NUMERICALLY INTEGRATED DENSITY    198.0000214245
 EXCHANGE ENERGY: -0.126021738366E+03  CORRELATION ENERGY: -0.768959058351E+01
 TTTTTTTTTTTTTTTTTTTTTTTTTTTTTT NUMDFT      TELAPSE       96.41 TCPU     2735.29
 CYC   9 ETOT(AU) -1.289111340516E+03 DETOT -5.15E-08 tst  5.14E-10 PX  1.58E-04

 == SCF ENDED - CONVERGENCE ON ENERGY      E(AU) -1.2891113405160E+03 CYCLES   9


 ENERGY EXPRESSION=HARTREE+FOCK EXCH*0.00000+(HSESOL     EXCH)*1.00000+PBESOL     CORR


 TOTAL ENERGY(DFT)(AU)(  9) -1.2891113405160E+03 DE-5.2E-08 tester 5.1E-10
 TTTTTTTTTTTTTTTTTTTTTTTTTTTTTT EDFT        TELAPSE       96.41 TCPU     2735.30
 
 INFORMATION **** DFTD3 ENERGY **** CALCULATE DFTD3 ENERGY

           DFT-D V3(BJ)
 DF                                         hsesol3c  
 parameters
 s6       :    1.0000
 s8       :    0.0000
 a1       :    0.5196
 a2       :    4.9385
 k1 k3    :   16.0000   -4.0000
 Cutoff   :   50.2022
 CN-Cutoff:   21.1671
 ABC-Cutoff:   21.1671
 
 Edisp /kcal,au:   -24.9913 -0.03982623

 E6    /kcal :   -26.5191
 E8    /kcal :     0.0000
 E6(ABC) "   :   1.527766
 
 INFORMATION **** DFTD3 ENERGY **** NORMAL TERMINATION OF DFTD3 MODULE

 GCP ENERGY CALCULATION
  level        hsesol3c            basis:hsesol3c
  Nbf            474
  Atoms           42

  Parameters: 
  sigma     1.0000
  eta       1.4281
  alpha     0.2936
  beta      1.9467

  dmp_scal      4.0000
  dmp_exp       6.0000
 cutoffs: 
   distance [bohr] 60.0
   noise    [a.u.] 2.2E-16
 SR-damping   T
 ** gCP correction **
  Egcp:        0.0829813387 / (a.u.) ||      52.0716 / (kcal/mol)
 INFORMATION **** GCP **** NORMAL TERMINATION OF GCP MODULE

 *******************************************************************************

 DFT-D3-GCP DISPERSION AND COUNTERPOISE CORRECTION

 D3 DISPERSION ENERGY (AU)      -3.9826227086444E-02
 GCP ENERGY (AU)                 8.2981338690905E-02
 TOTAL ENERGY + DISP + GCP (AU) -1.2890681854044E+03

 *******************************************************************************

 EIGENVECTORS IN FORTRAN UNIT 10
 TTTTTTTTTTTTTTTTTTTTTTTTTTTTTT END         TELAPSE       97.53 TCPU     2742.39
 EEEEEEEEEE TERMINATION  DATE 02 12 2025 TIME 08:05:33.3
