 Default number of threads is:           32

         
 *******************************************************************************
 *                                                                             *
 *                               CRYSTAL23                                     *
 *                      public : 1.0.1 - October 2022                          *
 *                       HTTP://WWW.CRYSTAL.UNITO.IT                           *
 *                                                                             *
 *                              MAIN AUTHORS                                   *
 *                                                                             *
 *  R. DOVESI(1,11), V.R. SAUNDERS(2), C. ROETTI(1,11), R. ORLANDO(1,11),      *
 *  C.M. ZICOVICH-WILSON(1,3), F. PASCALE(4), B. CIVALLERI(1,11),              *
 *  K. DOLL(5), N.M. HARRISON(6), I.J. BUSH(7), Ph. D'ARCO(8),                 *
 *  M. LLUNELL(9), M. CAUSA'(10), Y. NOEL(8), L. MASCHIO(1,11), A. ERBA(1,11)  *
 *  M. RE'RAT(14), S. CASASSA(1,11), B.G. SEARLE(2), J.K. DESMARAIS(1)         *
 *                                                                             *
 *        CONTRIBUTIONS TO THE CODE HAVE ALSO BEEN GIVEN BY                    *
 *                                                                             *
 *  M. FERRABONE(1,11), M. DE LA PIERRE(1,11), M. FERRERO(1,11),               *
 *  J. BAIMA(1,11), E. ALBANESE(1,11), M.F. PEINTINGER(12), R. BAST(13),       *
 *  B. KIRTMAN(15), V. LACIVITA(1,11), R. DEMICHELIS(1,16)                     *
 *  G. BRANDEBURG(17), S. SALUSTRO(1,11), G. SANSONE(1,11)                     *
 *  M.T. RUGGIERO(18), L.E. DAGA(1), L. DONA'(1), A. COSSARD(1)                *
 *                                                                             *
 * (1) THEORETICAL CHEMISTRY GROUP - UNIVERSITA' DI TORINO - TORINO (ITALY)    *
 * (2) SCIENTIFIC COMPUTING DEPARTMENT - STFC DARESBURY (UK)                   *
 * (3) UNIVERSIDAD AUTONOMA DEL ESTADO DE MORELOS - CUERNAVACA (MEXICO)        *
 * (4) UNIVERSITE' DE LORRAINE - NANCY (FRANCE)                                *
 * (5) UNIVERSITAET STUTTGART- STUTTGART (GERMANY)                             *
 * (6) IMPERIAL COLLEGE - LONDON (UK)                                          *
 * (7) SCIENTIFIC COMPUTING DEPARTMENT - STFC RAL (UK)                         *
 * (8) UPMC - SORBONNE UNIVERSITES - PARIS (FRANCE)                            *
 * (9) UNIVERSIDAD DE BARCELONA - BARCELONA (SPAIN)                            *
 *(10) UNIVERSITA' DI NAPOLI "FEDERICO II" - NAPOLI (ITALY)                    *
 *(11) NIS - NANOSTRUCTURED INTERFACES AND SURFACES - TORINO (ITALY)           *
 *(12) MPI FUER CHEMISCHE ENERGIEKONVERSION - MUELHEIM AN DER RUHR (GERMANY)   *
 *(13) UNIVERSITY OF TROMSO - TROMSO (NORWAY)                                  *
 *(14) UNIVERSITE' DE PAU ET DES PAYS DE L'ADOUR - PAU (FRANCE)                *
 *(15) UNIVERSITY OF CALIFORNIA SANTA BARBARA - SANTA BARBARA (USA)            *
 *(16) CURTIN UNIVERSITY - PERTH (AUSTRALIA)                                   *
 *(17) UNIVERSITY COLLEGE LONDON - LONDON (UK)                                 *
 *(18) UNIVERSITY OF VERMONT - BURLINGTON (USA)                                *
 *                                                                             *
 *******************************************************************************
 EEEEEEEEEE STARTING  DATE 19 02 2026 TIME 17:50:12.6
 cof-1_z31_L010_incl                                                             

 CRYSTAL CALCULATION
 (INPUT ACCORDING TO THE INTERNATIONAL TABLES FOR X-RAY CRYSTALLOGRAPHY)
 CRYSTAL FAMILY                       :  TRICLINIC   
 CRYSTAL CLASS  (GROTH - 1921)        :  TRICLINIC PEDIAL                     

 SPACE GROUP (NONCENTROSYMMETRIC)     :  P 1             

 LATTICE PARAMETERS  (ANGSTROMS AND DEGREES) - CONVENTIONAL CELL
        A           B           C        ALPHA        BETA       GAMMA
    15.02361    15.02392     3.25730    74.58089    89.99995   119.99596


 NUMBER OF IRREDUCIBLE ATOMS IN THE CONVENTIONAL CELL:   42

 INPUT COORDINATES

 ATOM AT. N.              COORDINATES
   1   5     5.944097300000E-01  1.887726900000E-01  5.015399200000E-01
   2   5     7.534653900000E-01  3.478323500000E-01  5.015399400000E-01
   3   5     5.945299400000E-01  3.480641200000E-01  4.983002100000E-01
   4   5     2.079844400000E-01  5.750876900000E-01  5.015399300000E-01
   5   5     3.670924100000E-01  5.750669200000E-01  5.015399200000E-01
   6   5     3.671971700000E-01  7.344551000000E-01  4.983002100000E-01
   7   1     8.840308900000E-01  2.709007200000E-01  4.948233100000E-01
   8   1     7.766126000000E-02  6.531030400000E-01  4.937962400000E-01
   9   1     8.840042200000E-01  5.561341800000E-01  4.936381700000E-01
  10   1     7.776747000000E-02  3.677436600000E-01  4.936775900000E-01
  11   1     6.716219300000E-01  5.817923000000E-02  5.051748100000E-01
  12   1     2.894797800000E-01  8.645334800000E-01  5.062019700000E-01
  13   1     3.864139700000E-01  5.813399000000E-02  5.063601400000E-01
  14   1     5.748577200000E-01  8.644343800000E-01  5.063204400000E-01
  15   1     6.720600000000E-01  5.560248700000E-01  4.948233700000E-01
  16   1     2.899885600000E-01  3.676589400000E-01  4.937961700000E-01
  17   1     3.868733800000E-01  2.708850100000E-01  4.936380400000E-01
  18   1     5.753221600000E-01  6.530166400000E-01  4.936777200000E-01
  19   6     8.727485400000E-01  4.076562500000E-01  4.981816600000E-01
  20   6     9.274703000000E-01  3.547441500000E-01  4.949813800000E-01
  21   6     3.437994000000E-02  5.691650700000E-01  4.947049100000E-01
  22   6     9.274120500000E-01  5.156081900000E-01  4.955346000000E-01
  23   6     3.446826000000E-02  4.083299500000E-01  4.934010300000E-01
  24   6     8.899431000000E-02  5.159486000000E-01  4.955740700000E-01
  25   6     5.347579800000E-01  6.960167000000E-02  5.018165100000E-01
  26   6     5.877734500000E-01  1.474320000000E-02  5.050167300000E-01
  27   6     3.733836500000E-01  9.078291600000E-01  5.052933000000E-01
  28   6     4.269044300000E-01  1.483263000000E-02  5.044636400000E-01
  29   6     5.342517300000E-01  9.076893600000E-01  5.065970600000E-01
  30   6     4.265462800000E-01  8.532248700000E-01  5.044240800000E-01
  31   6     5.349031000000E-01  4.075871100000E-01  4.981816600000E-01
  32   6     5.881914100000E-01  5.155842900000E-01  4.949814400000E-01
  33   6     3.738151900000E-01  4.081518000000E-01  4.947048500000E-01
  34   6     4.272472000000E-01  3.546060000000E-01  4.955345100000E-01
  35   6     5.347848700000E-01  5.691779700000E-01  4.934011100000E-01
  36   6     4.269184000000E-01  5.158712000000E-01  4.955740700000E-01
  37   8     5.415569600000E-01  2.420072800000E-01  4.991693800000E-01
  38   8     7.002393500000E-01  2.414896800000E-01  5.060044300000E-01
  39   8     7.006332800000E-01  4.012273200000E-01  4.956926300000E-01
  40   8     2.611447800000E-01  6.812877600000E-01  4.991694200000E-01
  41   8     2.609016200000E-01  5.218069600000E-01  5.060044300000E-01
  42   8     4.202177100000E-01  6.815392800000E-01  4.956926000000E-01

 *******************************************************************************

 << INFORMATION >>: FROM NOW ON, ALL COORDINATES REFER TO THE PRIMITIVE CELL

 *******************************************************************************

 LATTICE PARAMETERS  (ANGSTROMS AND DEGREES) - PRIMITIVE CELL
       A          B          C        ALPHA      BETA     GAMMA        VOLUME
   15.02361   15.02392    3.25730    74.58089  89.99995 119.99596    605.993866

 COORDINATES OF THE EQUIVALENT ATOMS (FRACTIONAL UNITS)

 N. ATOM EQUIV AT. N.          X                  Y                  Z

   1   1   1    5 B    -4.05590270000E-01  1.88772690000E-01 -4.98460080000E-01

   2   2   1    5 B    -2.46534610000E-01  3.47832350000E-01 -4.98460060000E-01

   3   3   1    5 B    -4.05470060000E-01  3.48064120000E-01  4.98300210000E-01

   4   4   1    5 B     2.07984440000E-01 -4.24912310000E-01 -4.98460070000E-01

   5   5   1    5 B     3.67092410000E-01 -4.24933080000E-01 -4.98460080000E-01

   6   6   1    5 B     3.67197170000E-01 -2.65544900000E-01  4.98300210000E-01

   7   7   1    1 H    -1.15969110000E-01  2.70900720000E-01  4.94823310000E-01

   8   8   1    1 H     7.76612600000E-02 -3.46896960000E-01  4.93796240000E-01

   9   9   1    1 H    -1.15995780000E-01 -4.43865820000E-01  4.93638170000E-01

  10  10   1    1 H     7.77674700000E-02  3.67743660000E-01  4.93677590000E-01

  11  11   1    1 H    -3.28378070000E-01  5.81792300000E-02 -4.94825190000E-01

  12  12   1    1 H     2.89479780000E-01 -1.35466520000E-01 -4.93798030000E-01

  13  13   1    1 H     3.86413970000E-01  5.81339900000E-02 -4.93639860000E-01

  14  14   1    1 H    -4.25142280000E-01 -1.35565620000E-01 -4.93679560000E-01

  15  15   1    1 H    -3.27940000000E-01 -4.43975130000E-01  4.94823370000E-01

  16  16   1    1 H     2.89988560000E-01  3.67658940000E-01  4.93796170000E-01

  17  17   1    1 H     3.86873380000E-01  2.70885010000E-01  4.93638040000E-01

  18  18   1    1 H    -4.24677840000E-01 -3.46983360000E-01  4.93677720000E-01

  19  19   1    6 C    -1.27251460000E-01  4.07656250000E-01  4.98181660000E-01

  20  20   1    6 C    -7.25297000000E-02  3.54744150000E-01  4.94981380000E-01

  21  21   1    6 C     3.43799400000E-02 -4.30834930000E-01  4.94704910000E-01

  22  22   1    6 C    -7.25879500000E-02 -4.84391810000E-01  4.95534600000E-01

  23  23   1    6 C     3.44682600000E-02  4.08329950000E-01  4.93401030000E-01

  24  24   1    6 C     8.89943100000E-02 -4.84051400000E-01  4.95574070000E-01

  25  25   1    6 C    -4.65242020000E-01  6.96016700000E-02 -4.98183490000E-01

  26  26   1    6 C    -4.12226550000E-01  1.47432000000E-02 -4.94983270000E-01

  27  27   1    6 C     3.73383650000E-01 -9.21708400000E-02 -4.94706700000E-01

  28  28   1    6 C     4.26904430000E-01  1.48326300000E-02 -4.95536360000E-01

  29  29   1    6 C    -4.65748270000E-01 -9.23106400000E-02 -4.93402940000E-01

  30  30   1    6 C     4.26546280000E-01 -1.46775130000E-01 -4.95575920000E-01

  31  31   1    6 C    -4.65096900000E-01  4.07587110000E-01  4.98181660000E-01

  32  32   1    6 C    -4.11808590000E-01 -4.84415710000E-01  4.94981440000E-01

  33  33   1    6 C     3.73815190000E-01  4.08151800000E-01  4.94704850000E-01

  34  34   1    6 C     4.27247200000E-01  3.54606000000E-01  4.95534510000E-01

  35  35   1    6 C    -4.65215130000E-01 -4.30822030000E-01  4.93401110000E-01

  36  36   1    6 C     4.26918400000E-01 -4.84128800000E-01  4.95574070000E-01

  37  37   1    8 O    -4.58443040000E-01  2.42007280000E-01  4.99169380000E-01

  38  38   1    8 O    -2.99760650000E-01  2.41489680000E-01 -4.93995570000E-01

  39  39   1    8 O    -2.99366720000E-01  4.01227320000E-01  4.95692630000E-01

  40  40   1    8 O     2.61144780000E-01 -3.18712240000E-01  4.99169420000E-01

  41  41   1    8 O     2.60901620000E-01 -4.78193040000E-01 -4.93995570000E-01

  42  42   1    8 O     4.20217710000E-01 -3.18460720000E-01  4.95692600000E-01

 NUMBER OF SYMMETRY OPERATORS         :    1
 *******************************************************************************
 * GEOMETRY EDITING - INPUT COORDINATES ARE GIVEN IN ANGSTROM         
 *******************************************************************************

 GCALCO - MAX INDICES DIRECT LATTICE VECTOR     9     9    38
 NO.OF VECTORS CREATED 6999 STARS 3500 RMAX   189.92184 BOHR

 GEOMETRY FOR WAVE FUNCTION - DIMENSIONALITY OF THE SYSTEM    3
 (NON PERIODIC DIRECTION: LATTICE PARAMETER FORMALLY SET TO 500)
 *******************************************************************************
 LATTICE PARAMETERS (ANGSTROMS AND DEGREES) - BOHR = 0.5291772083 ANGSTROM
 PRIMITIVE CELL - CENTRING CODE 1/0 VOLUME=   605.993866 - DENSITY  1.069 g/cm^3
         A              B              C           ALPHA      BETA       GAMMA 
    15.02361100    15.02391600     3.25729900    74.580890  89.999946 119.995964
 *******************************************************************************
 ATOMS IN THE ASYMMETRIC UNIT   42 - ATOMS IN THE UNIT CELL:   42
     ATOM                 X/A                 Y/B                 Z/C    
 *******************************************************************************
      1 T   5 B    -4.055902700000E-01  1.887726900000E-01 -4.984600800000E-01
      2 T   5 B    -2.465346100000E-01  3.478323500000E-01 -4.984600600000E-01
      3 T   5 B    -4.054700600000E-01  3.480641200000E-01  4.983002100000E-01
      4 T   5 B     2.079844400000E-01 -4.249123100000E-01 -4.984600700000E-01
      5 T   5 B     3.670924100000E-01 -4.249330800000E-01 -4.984600800000E-01
      6 T   5 B     3.671971700000E-01 -2.655449000000E-01  4.983002100000E-01
      7 T   1 H    -1.159691100000E-01  2.709007200000E-01  4.948233100000E-01
      8 T   1 H     7.766126000000E-02 -3.468969600000E-01  4.937962400000E-01
      9 T   1 H    -1.159957800000E-01 -4.438658200000E-01  4.936381700000E-01
     10 T   1 H     7.776747000000E-02  3.677436600000E-01  4.936775900000E-01
     11 T   1 H    -3.283780700000E-01  5.817923000000E-02 -4.948251900000E-01
     12 T   1 H     2.894797800000E-01 -1.354665200000E-01 -4.937980300000E-01
     13 T   1 H     3.864139700000E-01  5.813399000000E-02 -4.936398600000E-01
     14 T   1 H    -4.251422800000E-01 -1.355656200000E-01 -4.936795600000E-01
     15 T   1 H    -3.279400000000E-01 -4.439751300000E-01  4.948233700000E-01
     16 T   1 H     2.899885600000E-01  3.676589400000E-01  4.937961700000E-01
     17 T   1 H     3.868733800000E-01  2.708850100000E-01  4.936380400000E-01
     18 T   1 H    -4.246778400000E-01 -3.469833600000E-01  4.936777200000E-01
     19 T   6 C    -1.272514600000E-01  4.076562500000E-01  4.981816600000E-01
     20 T   6 C    -7.252970000000E-02  3.547441500000E-01  4.949813800000E-01
     21 T   6 C     3.437994000000E-02 -4.308349300000E-01  4.947049100000E-01
     22 T   6 C    -7.258795000000E-02 -4.843918100000E-01  4.955346000000E-01
     23 T   6 C     3.446826000000E-02  4.083299500000E-01  4.934010300000E-01
     24 T   6 C     8.899431000000E-02 -4.840514000000E-01  4.955740700000E-01
     25 T   6 C    -4.652420200000E-01  6.960167000000E-02 -4.981834900000E-01
     26 T   6 C    -4.122265500000E-01  1.474320000000E-02 -4.949832700000E-01
     27 T   6 C     3.733836500000E-01 -9.217084000000E-02 -4.947067000000E-01
     28 T   6 C     4.269044300000E-01  1.483263000000E-02 -4.955363600000E-01
     29 T   6 C    -4.657482700000E-01 -9.231064000000E-02 -4.934029400000E-01
     30 T   6 C     4.265462800000E-01 -1.467751300000E-01 -4.955759200000E-01
     31 T   6 C    -4.650969000000E-01  4.075871100000E-01  4.981816600000E-01
     32 T   6 C    -4.118085900000E-01 -4.844157100000E-01  4.949814400000E-01
     33 T   6 C     3.738151900000E-01  4.081518000000E-01  4.947048500000E-01
     34 T   6 C     4.272472000000E-01  3.546060000000E-01  4.955345100000E-01
     35 T   6 C    -4.652151300000E-01 -4.308220300000E-01  4.934011100000E-01
     36 T   6 C     4.269184000000E-01 -4.841288000000E-01  4.955740700000E-01
     37 T   8 O    -4.584430400000E-01  2.420072800000E-01  4.991693800000E-01
     38 T   8 O    -2.997606500000E-01  2.414896800000E-01 -4.939955700000E-01
     39 T   8 O    -2.993667200000E-01  4.012273200000E-01  4.956926300000E-01
     40 T   8 O     2.611447800000E-01 -3.187122400000E-01  4.991694200000E-01
     41 T   8 O     2.609016200000E-01 -4.781930400000E-01 -4.939955700000E-01
     42 T   8 O     4.202177100000E-01 -3.184607200000E-01  4.956926000000E-01

 T = ATOM BELONGING TO THE ASYMMETRIC UNIT

 ****    1 SYMMOPS - TRANSLATORS IN FRACTIONAL UNITS
 **** MATRICES AND TRANSLATORS IN THE CRYSTALLOGRAPHIC REFERENCE FRAME
   V INV                    ROTATION MATRICES                   TRANSLATORS
   1   1  1.00  0.00  0.00  0.00  1.00  0.00 -0.00 -0.00  1.00  0.00  0.00  0.00

 DIRECT LATTICE VECTORS CARTESIAN COMPONENTS (ANGSTROM)
          X                    Y                    Z
   0.130113578931E+02  -0.751088897922E+01   0.000000000000E+00
   0.000000000000E+00   0.150239160000E+02   0.000000000000E+00
   0.499932387115E+00   0.866043035335E+00   0.310000545881E+01


 CARTESIAN COORDINATES - PRIMITIVE CELL
 *******************************************************************************
 *      ATOM          X(ANGSTROM)         Y(ANGSTROM)         Z(ANGSTROM)
 *******************************************************************************
    1     5 B    -5.526476498588E+00  5.450760645998E+00 -1.545228969000E+00
    2     5 B    -3.456946371413E+00  6.645810230371E+00 -1.545228907000E+00
    3     5 B     7.484825853847E+00  3.293441183752E-01 -1.555272087685E+00
    4     5 B     2.456963652350E+00  6.646233236933E+00 -1.545228938000E+00
    5     5 B     4.527174388659E+00  5.450878883159E+00 -1.545228969000E+00
    6     5 B     5.026850209673E+00 -6.315952022804E+00  1.544733371127E+00
    7     1 H    -1.761469783296E+00  4.503516017860E+00 -1.566050496664E+00
    8     1 H     1.257343181298E+00 -5.367407095015E+00  1.530771039541E+00
    9     1 H    -1.262476898965E+00 -5.369859470210E+00  1.530281021678E+00
   10     1 H     7.587334135262E-01  4.502350027194E+00 -1.569602234919E+00
   11     1 H    -4.520023731443E+00  2.911951181936E+00 -1.533960790158E+00
   12     1 H     4.019591779608E+00 -3.771095416009E+00  1.569228870261E+00
   13     1 H     4.780983904962E+00 -2.456425608900E+00 -1.530286260687E+00
   14     1 H    -5.278552374336E+00  1.594965268793E+00  1.569596127908E+00
   15     1 H    -4.019566478884E+00 -3.778585794055E+00  1.533955148148E+00
   16     1 H     3.520077249953E+00  2.907210850375E+00 -1.569234636271E+00
   17     1 H     4.780601263069E+00  7.254593808884E-01 -1.569724840135E+00
   18     1 H    -5.278829884465E+00 -1.595794594758E+00  1.530403626894E+00
   19     6 C    -1.906589529088E+00  6.645768567018E+00 -1.555639593332E+00
   20     6 C    -1.196185048810E+00  5.437040976922E+00 -1.565560478802E+00
   21     6 C     6.946487102558E-01 -6.302615968787E+00  1.533587921501E+00
   22     6 C    -6.967340006970E-01 -6.303107541752E+00  1.536159965030E+00
   23     6 C     1.952136344286E-01  5.437091085241E+00 -1.570459572428E+00
   24     6 C     9.057579585478E-01  6.646287481007E+00 -1.563723136566E+00
   25     6 C     6.708869402571E+00 -3.402266516824E+00 -1.544371538490E+00
   26     6 C    -5.611085342823E+00  2.889011636116E+00 -1.534450839020E+00
   27     6 C     5.110840787228E+00 -3.751604356348E+00  1.566411988301E+00
   28     6 C     5.306871649504E+00 -3.412743404620E+00 -1.536165421040E+00
   29     6 C    -5.806753151531E+00  2.550051102500E+00  1.570453651418E+00
   30     6 C     5.802124241465E+00 -4.972026016248E+00  1.563717401556E+00
   31     6 C     6.708940431591E+00  1.671360426224E+00 -1.555639593332E+00
   32     6 C    -5.110731695048E+00 -3.756097107211E+00  1.534445166010E+00
   33     6 C     4.611229812414E+00  2.886746622168E+00 -1.566417723311E+00
   34     6 C     5.306867591373E+00  1.681675647034E+00 -1.563845772782E+00
   35     6 C    -5.806413358967E+00 -2.551148201846E+00  1.529546134384E+00
   36     6 C     5.302609234223E+00  4.107014306516E+00 -1.563723136566E+00
   37     8 O     6.796009978639E+00 -8.654180267070E-01 -1.552577655940E+00
   38     8 O    -4.147257483940E+00  5.451768206790E+00 -1.531388963629E+00
   39     8 O    -3.647354735399E+00 -6.318109099544E+00  1.536649858893E+00
   40     8 O     3.647399154199E+00 -6.317433172371E+00  1.547427926872E+00
   41     8 O     3.147719968164E+00  5.452159410053E+00 -1.531388963629E+00
   42     8 O    -7.295942090452E+00 -5.555703765709E-04  1.536649765893E+00

 *******************************************************************************
 STARTING BASIS SET HANDLING 
 *******************************************************************************

 Loading internal basis set: SOLDEF2MSVP         

 Please cite in your publication:
 L. Dona', J. G. Brandenburg and B. Civalleri, J. Chem. Phys., 151, 121101 (2019
 )                                                                              
                                                                                
                    

 *******************************************************************************
 LOCAL ATOMIC FUNCTIONS BASIS SET
 *******************************************************************************
   ATOM   X(AU)   Y(AU)   Z(AU)  N. TYPE  EXPONENT  S COEF   P COEF   D/F/G COEF
 *******************************************************************************
   1 B  -10.444  10.300  -2.920
                                  1 S  
                                         2.410E+03 1.755E-03 0.000E+00 0.000E+00
                                         3.619E+02 1.344E-02 0.000E+00 0.000E+00
                                         8.231E+01 6.637E-02 0.000E+00 0.000E+00
                                         2.311E+01 2.303E-01 0.000E+00 0.000E+00
                                         7.252E+00 5.150E-01 0.000E+00 0.000E+00
                                  2 S  
                                         2.367E+00 1.000E+00 0.000E+00 0.000E+00
                                  3 S  
                                         5.533E-01 1.000E+00 0.000E+00 0.000E+00
                                  4 S  
                                         1.716E-01 1.000E+00 0.000E+00 0.000E+00
                           5-     7 P  
                                         6.002E+00 0.000E+00-3.555E-02 0.000E+00
                                         1.240E+00 0.000E+00-1.983E-01 0.000E+00
                                         3.367E-01 0.000E+00-5.048E-01 0.000E+00
                           8-    10 P  
                                         1.256E-01 0.000E+00 1.000E+00 0.000E+00
                          11-    15 D  
                                         8.880E-01 0.000E+00 0.000E+00 1.000E+00
   2 B   -6.533  12.559  -2.920
   3 B   14.144   0.622  -2.939
   4 B    4.643  12.560  -2.920
   5 B    8.555  10.301  -2.920
   6 B    9.499 -11.935   2.919
   7 H   -3.329   8.510  -2.959
                                 91 S  
                                         1.874E+01 1.968E-02 0.000E+00 0.000E+00
                                         2.826E+00 1.380E-01 0.000E+00 0.000E+00
                                         6.401E-01 4.783E-01 0.000E+00 0.000E+00
                                 92 S  
                                         1.756E-01 1.000E+00 0.000E+00 0.000E+00
   8 H    2.376 -10.143   2.893
   9 H   -2.386 -10.148   2.892
  10 H    1.434   8.508  -2.966
  11 H   -8.542   5.503  -2.899
  12 H    7.596  -7.126   2.965
  13 H    9.035  -4.642  -2.892
  14 H   -9.975   3.014   2.966
  15 H   -7.596  -7.140   2.899
  16 H    6.652   5.494  -2.965
  17 H    9.034   1.371  -2.966
  18 H   -9.976  -3.016   2.892
  19 C   -3.603  12.559  -2.940
                                115 S  
                                         3.624E+03 1.634E-03 0.000E+00 0.000E+00
                                         5.440E+02 1.252E-02 0.000E+00 0.000E+00
                                         1.237E+02 6.211E-02 0.000E+00 0.000E+00
                                         3.476E+01 2.182E-01 0.000E+00 0.000E+00
                                         1.093E+01 4.980E-01 0.000E+00 0.000E+00
                                116 S  
                                         3.574E+00 1.000E+00 0.000E+00 0.000E+00
                                117 S  
                                         7.742E-01 1.000E+00 0.000E+00 0.000E+00
                                118 S  
                                         2.330E-01 1.000E+00 0.000E+00 0.000E+00
                         119-   121 P  
                                         9.443E+00 0.000E+00 3.790E-02 0.000E+00
                                         2.002E+00 0.000E+00 2.082E-01 0.000E+00
                                         5.463E-01 0.000E+00 5.047E-01 0.000E+00
                         122-   124 P  
                                         1.820E-01 0.000E+00 1.000E+00 0.000E+00
                         125-   129 D  
                                         8.880E-01 0.000E+00 0.000E+00 1.000E+00
  20 C   -2.260  10.275  -2.958
  21 C    1.313 -11.910   2.898
  22 C   -1.317 -11.911   2.903
  23 C    0.369  10.275  -2.968
  24 C    1.712  12.560  -2.955
  25 C   12.678  -6.429  -2.918
  26 C  -10.603   5.459  -2.900
  27 C    9.658  -7.090   2.960
  28 C   10.029  -6.449  -2.903
  29 C  -10.973   4.819   2.968
  30 C   10.964  -9.396   2.955
  31 C   12.678   3.158  -2.940
  32 C   -9.658  -7.098   2.900
  33 C    8.714   5.455  -2.960
  34 C   10.029   3.178  -2.955
  35 C  -10.973  -4.821   2.890
  36 C   10.020   7.761  -2.955
  37 O   12.843  -1.635  -2.934
                                385 S  
                                         6.773E+03 1.727E-03 0.000E+00 0.000E+00
                                         1.017E+03 1.325E-02 0.000E+00 0.000E+00
                                         2.313E+02 6.603E-02 0.000E+00 0.000E+00
                                         6.501E+01 2.353E-01 0.000E+00 0.000E+00
                                         2.050E+01 5.498E-01 0.000E+00 0.000E+00
                                386 S  
                                         6.716E+00 1.000E+00 0.000E+00 0.000E+00
                                387 S  
                                         1.147E+00 1.000E+00 0.000E+00 0.000E+00
                                388 S  
                                         3.342E-01 1.000E+00 0.000E+00 0.000E+00
                         389-   391 P  
                                         1.769E+01 0.000E+00 4.359E-02 0.000E+00
                                         3.854E+00 0.000E+00 2.318E-01 0.000E+00
                                         1.047E+00 0.000E+00 5.146E-01 0.000E+00
                         392-   394 P  
                                         2.759E-01 0.000E+00 1.000E+00 0.000E+00
                         395-   399 D  
                                         8.000E-01 0.000E+00 0.000E+00 1.000E+00
  38 O   -7.837  10.302  -2.894
  39 O   -6.893 -11.939   2.904
  40 O    6.893 -11.938   2.924
  41 O    5.948  10.303  -2.894
  42 O  -13.787  -0.001   2.904

 *******************************************************************************
 FINISHED BASIS SET HANDLING 
 *******************************************************************************

 INFORMATION **** SET_MPP **** PCRYSTAL CALCULATION
 INFORMATION **** READM2 **** NEW DEFAULT: FOCK/KS MATRIX MIXING SET TO 30 %
 INFORMATION **** READM2 **** NEW DEFAULT: FULL DIRECT SCF MODE
 INFORMATION **** READM2 **** NEW DEFAULT: COULOMB BIPOLAR BUFFER SET TO 32 Mb
 INFORMATION **** READM2 **** NEW DEFAULT: EXCHANGE BIPOLAR BUFFER SET TO 32 Mb

 *******************************************************************************
 NEW DEFAULT: DFT INTEGRATION GRID INCREASED TO XLGRID
 NEW DEFAULT: DIIS ACCELERATOR ACTIVE
 USE KEYWORD NODIIS TO TURN IT OFF
 *******************************************************************************

 WARNING **** RDDFTP **** HSEsol-HJS ACTIVE
 RANGE SEPARATION - OMEGA:   0.110000000000000     
 WARNING **** RDDFTP **** HSEsol-3c has to be combined with sol-def2-mSVP basis set
 *******************************************************************************
 N. OF ATOMS PER CELL        42  COULOMB OVERLAP TOL         (T1) 10**   -6
 NUMBER OF SHELLS           234  COULOMB PENETRATION TOL     (T2) 10**   -6
 NUMBER OF AO               474  EXCHANGE OVERLAP TOL        (T3) 10**   -6
 N. OF ELECTRONS PER CELL   198  EXCHANGE PSEUDO OVP (F(G))  (T4) 10**   -6
 CORE ELECTRONS PER CELL     60  EXCHANGE PSEUDO OVP (P(G))  (T5) 10**  -12
 N. OF SYMMETRY OPERATORS     1  POLE ORDER IN MONO ZONE                  4
 *******************************************************************************
 TYPE OF CALCULATION :  RESTRICTED CLOSED SHELL
 KOHN-SHAM HAMILTONIAN

 (EXCHANGE)[CORRELATION] FUNCTIONAL:(HSEsol GGA)[PBEsol]

 RANGE-SEPARATED HYBRID FUNCTIONAL 
 OMEGA (SHORT-RANGE)[LONG-RANGE]:(    0.1100)[    0.0000]

 HYBRID EXCHANGE - PERCENTAGE OF FOCK EXCHANGE    25.0000

 CAPPA:IS1  2;IS2  2;IS3  8; K PTS MONK NET  20; SYMMOPS:K SPACE   2;G SPACE   1

 *******************************************************************************
 MAX NUMBER OF SCF CYCLES      50  CONVERGENCE ON DELTAP        10**-16
 WEIGHT OF F(I) IN F(I+1)      30% CONVERGENCE ON ENERGY        10**- 6
 SHRINK. FACT.(MONKH.)    2  2  8  NUMBER OF K POINTS IN THE IBZ     20
 SHRINKING FACTOR(GILAT NET)    8  NUMBER OF K POINTS(GILAT NET)   1028
 *******************************************************************************
 *** K POINTS COORDINATES (OBLIQUE COORDINATES IN UNITS OF IS =  2)
   1-R(  0  0  0)   2-R(  1  0  0)   3-R(  0  1  0)   4-R(  1  1  0)
   5-C(  0  0  1)   6-C(  1  0  1)   7-C(  0  1  1)   8-C(  1  1  1)
   9-C(  0  0  2)  10-C(  1  0  2)  11-C(  0  1  2)  12-C(  1  1  2)
  13-C(  0  0  3)  14-C(  1  0  3)  15-C(  0  1  3)  16-C(  1  1  3)
  17-R(  0  0  4)  18-R(  1  0  4)  19-R(  0  1  4)  20-R(  1  1  4)

 DIRECT LATTICE VECTORS COMPON. (A.U.)     RECIP. LATTICE VECTORS COMPON. (A.U.) 
        X            Y            Z              X            Y            Z
   24.5879030  -14.1935232    0.0000000      0.2555397    0.0000000   -0.0412104
    0.0000000   28.3910867    0.0000000      0.1277517    0.2213084   -0.0824288
    0.9447353    1.6365842    5.8581613      0.0000000    0.0000000    1.0725525

 DISK SPACE FOR EIGENVECTORS (FTN 10)     7189632 REALS

 SYMMETRY ADAPTION OF THE BLOCH FUNCTIONS DISABLED
 TTTTTTTTTTTTTTTTTTTTTTTTTTTTTT gordsh1     TELAPSE        0.05 TCPU        0.05

 MATRIX SIZE: P(G)  435080, F(G)   88833, P(G) IRR  220051, F(G) IRR   89781
 MAX G-VECTOR INDEX FOR 1- AND 2-ELECTRON INTEGRALS 121

 TTTTTTTTTTTTTTTTTTTTTTTTTTTTTT INPUT       TELAPSE        0.31 TCPU        0.31

 NEIGHBORS OF THE NON-EQUIVALENT ATOMS

 N = NUMBER OF NEIGHBORS AT DISTANCE R
    ATOM  N     R/ANG      R/AU   NEIGHBORS (ATOM LABELS AND CELL INDICES)
   1 B    1     1.3791     2.6061   37 O   -1 0 0
   1 B    1     1.3793     2.6065   38 O    0 0 0
   1 B    1     1.5503     2.9297   25 C   -1 0 0
   1 B    1     2.3895     4.5155    3 B   -1 0 0
   1 B    1     2.3898     4.5160    2 B    0 0 0
   1 B    1     2.5632     4.8437   26 C    0 0 0

   2 B    1     1.3793     2.6065   39 O    0 1-1
   2 B    1     1.3793     2.6065   38 O    0 0 0
   2 B    1     1.5504     2.9298   19 C    0 0 0
   2 B    1     2.3895     4.5156    3 B   -1 0 0
   2 B    1     2.3898     4.5160    1 B    0 0 0
   2 B    1     2.5634     4.8440   22 C    0 1-1

   3 B    1     1.3791     2.6061   37 O    0 0 0
   3 B    1     1.3793     2.6064   39 O    1 1-1
   3 B    1     1.5502     2.9294   31 C    0 0 0
   3 B    1     2.3895     4.5155    1 B    1 0 0
   3 B    1     2.3895     4.5156    2 B    1 0 0
   3 B    1     2.5629     4.8433   32 C    1 1-1

   4 B    1     1.3795     2.6068   40 O    0 1-1
   4 B    1     1.3795     2.6070   41 O    0 0 0
   4 B    1     1.5513     2.9316   24 C    0 0 0
   4 B    1     2.3905     4.5174    6 B    0 1-1
   4 B    1     2.3905     4.5175    5 B    0 0 0
   4 B    1     2.5648     4.8468   23 C    0 0 0

   5 B    1     1.3795     2.6069   41 O    0 0 0
   5 B    1     1.3797     2.6072   42 O    1 1-1
   5 B    1     1.5516     2.9322   36 C    0 0 0
   5 B    1     2.3905     4.5175    4 B    0 0 0
   5 B    1     2.3911     4.5185    6 B    0 1-1
   5 B    1     2.5651     4.8473   35 C    1 1-1

   6 B    1     1.3795     2.6068   40 O    0 0 0
   6 B    1     1.3796     2.6071   42 O    1 0 0
   6 B    1     1.5516     2.9322   30 C    0 0 0
   6 B    1     2.3905     4.5174    4 B    0-1 1
   6 B    1     2.3911     4.5185    5 B    0-1 1
   6 B    1     2.5651     4.8473   29 C    1 0 0

   7 H    1     1.0913     2.0623   20 C    0 0 0
   7 H    1     2.1472     4.0576   19 C    0 0 0
   7 H    1     2.1680     4.0969   23 C    0 0 0
   7 H    1     2.5202     4.7625   10 H    0 0 0
   7 H    1     2.5676     4.8520   38 O    0 0 0
   7 H    1     2.7321     5.1630    2 B    0 0 0

   8 H    1     1.0914     2.0625   21 C    0 0 0
   8 H    1     2.1493     4.0616   24 C    0-1 1
   8 H    1     2.1666     4.0942   22 C    0 0 0
   8 H    1     2.5198     4.7618    9 H    0 0 0
   8 H    1     2.5720     4.8604   40 O    0 0 0
   8 H    1     2.7362     5.1707    4 B    0-1 1

   9 H    1     1.0914     2.0624   22 C    0 0 0
   9 H    1     2.1471     4.0575   19 C    0-1 1
   9 H    1     2.1680     4.0970   21 C    0 0 0
   9 H    1     2.5198     4.7618    8 H    0 0 0
   9 H    1     2.5665     4.8500   39 O    0 0 0
   9 H    1     2.7315     5.1618    2 B    0-1 1

  10 H    1     1.0915     2.0626   23 C    0 0 0
  10 H    1     2.1490     4.0610   24 C    0 0 0
  10 H    1     2.1669     4.0948   20 C    0 0 0
  10 H    1     2.5202     4.7625    7 H    0 0 0
  10 H    1     2.5712     4.8588   41 O    0 0 0
  10 H    1     2.7351     5.1686    4 B    0 0 0

  11 H    1     1.0913     2.0623   26 C    0 0 0
  11 H    1     2.1469     4.0571   25 C   -1 0 0
  11 H    1     2.1680     4.0968   29 C    0 0-1
  11 H    1     2.5198     4.7617   14 H    0 0-1
  11 H    1     2.5670     4.8510   38 O    0 0 0
  11 H    1     2.7310     5.1609    1 B    0 0 0

  12 H    1     1.0914     2.0625   27 C    0 0 0
  12 H    1     2.1493     4.0617   30 C    0 0 0
  12 H    1     2.1664     4.0939   28 C    0 0 1
  12 H    1     2.5192     4.7606   13 H    0 0 1
  12 H    1     2.5735     4.8632   40 O    0 0 0
  12 H    1     2.7371     5.1723    6 B    0 0 0

  13 H    1     1.0914     2.0624   28 C    0 0 0
  13 H    1     2.1475     4.0581   25 C    0 0 0
  13 H    1     2.1679     4.0967   27 C    0 0-1
  13 H    1     2.5192     4.7606   12 H    0 0-1
  13 H    1     2.5675     4.8519   37 O    0 0 0
  13 H    1     2.7328     5.1643    1 B    1 0 0

  14 H    1     1.0914     2.0625   29 C    0 0 0
  14 H    1     2.1491     4.0612   30 C   -1 0 0
  14 H    1     2.1666     4.0942   26 C    0 0 1
  14 H    1     2.5198     4.7617   11 H    0 0 1
  14 H    1     2.5723     4.8609   42 O    0 0 0
  14 H    1     2.7355     5.1693    6 B   -1 0 0

  15 H    1     1.0914     2.0624   32 C    0 0 0
  15 H    1     2.1475     4.0582   31 C   -1-1 1
  15 H    1     2.1678     4.0966   35 C    0 0 0
  15 H    1     2.5200     4.7621   18 H    0 0 0
  15 H    1     2.5667     4.8503   39 O    0 0 0
  15 H    1     2.7315     5.1618    3 B   -1-1 1

  16 H    1     1.0913     2.0623   33 C    0 0 0
  16 H    1     2.1487     4.0605   36 C    0 0 0
  16 H    1     2.1667     4.0945   34 C    0 0 0
  16 H    1     2.5197     4.7616   17 H    0 0 0
  16 H    1     2.5723     4.8610   41 O    0 0 0
  16 H    1     2.7359     5.1701    5 B    0 0 0

  17 H    1     1.0915     2.0626   34 C    0 0 0
  17 H    1     2.1479     4.0589   31 C    0 0 0
  17 H    1     2.1679     4.0968   33 C    0 0 0
  17 H    1     2.5197     4.7616   16 H    0 0 0
  17 H    1     2.5677     4.8522   37 O    0 0 0
  17 H    1     2.7331     5.1648    3 B    0 0 0

  18 H    1     1.0914     2.0624   35 C    0 0 0
  18 H    1     2.1486     4.0602   36 C   -1-1 1
  18 H    1     2.1668     4.0947   32 C    0 0 0
  18 H    1     2.5200     4.7621   15 H    0 0 0
  18 H    1     2.5717     4.8598   42 O    0 0 0
  18 H    1     2.7349     5.1682    5 B   -1-1 1

  19 C    1     1.4020     2.6495   22 C    0 1-1
  19 C    1     1.4021     2.6495   20 C    0 0 0
  19 C    1     1.5504     2.9298    2 B    0 0 0
  19 C    1     2.1471     4.0575    9 H    0 1-1
  19 C    1     2.1472     4.0576    7 H    0 0 0
  19 C    1     2.4246     4.5817   21 C    0 1-1

  20 C    1     1.0913     2.0623    7 H    0 0 0
  20 C    1     1.3914     2.6294   23 C    0 0 0
  20 C    1     1.4021     2.6495   19 C    0 0 0
  20 C    1     2.1669     4.0948   10 H    0 0 0
  20 C    1     2.4177     4.5688   22 C    0 1-1
  20 C    1     2.4250     4.5825   24 C    0 0 0

  21 C    1     1.0914     2.0625    8 H    0 0 0
  21 C    1     1.3914     2.6293   22 C    0 0 0
  21 C    1     1.4026     2.6505   24 C    0-1 1
  21 C    1     2.1680     4.0970    9 H    0 0 0
  21 C    1     2.4182     4.5697   23 C    0-1 1
  21 C    1     2.4246     4.5817   19 C    0-1 1

  22 C    1     1.0914     2.0624    9 H    0 0 0
  22 C    1     1.3914     2.6293   21 C    0 0 0
  22 C    1     1.4020     2.6495   19 C    0-1 1
  22 C    1     2.1666     4.0942    8 H    0 0 0
  22 C    1     2.4177     4.5688   20 C    0-1 1
  22 C    1     2.4250     4.5826   24 C    0-1 1

  23 C    1     1.0915     2.0626   10 H    0 0 0
  23 C    1     1.3914     2.6294   20 C    0 0 0
  23 C    1     1.4025     2.6504   24 C    0 0 0
  23 C    1     2.1680     4.0969    7 H    0 0 0
  23 C    1     2.4182     4.5697   21 C    0 1-1
  23 C    1     2.4246     4.5818   19 C    0 0 0

  24 C    1     1.4025     2.6504   23 C    0 0 0
  24 C    1     1.4026     2.6505   21 C    0 1-1
  24 C    1     1.5513     2.9316    4 B    0 0 0
  24 C    1     2.1490     4.0610   10 H    0 0 0
  24 C    1     2.1493     4.0616    8 H    0 1-1
  24 C    1     2.4250     4.5825   20 C    0 0 0

  25 C    1     1.4020     2.6494   26 C    1 0 0
  25 C    1     1.4021     2.6495   28 C    0 0 0
  25 C    1     1.5503     2.9297    1 B    1 0 0
  25 C    1     2.1469     4.0571   11 H    1 0 0
  25 C    1     2.1475     4.0581   13 H    0 0 0
  25 C    1     2.4246     4.5818   27 C    0 0-1

  26 C    1     1.0913     2.0623   11 H    0 0 0
  26 C    1     1.3914     2.6293   29 C    0 0-1
  26 C    1     1.4020     2.6494   25 C   -1 0 0
  26 C    1     2.1666     4.0942   14 H    0 0-1
  26 C    1     2.4175     4.5684   28 C   -1 0 0
  26 C    1     2.4251     4.5828   30 C   -1 0-1

  27 C    1     1.0914     2.0625   12 H    0 0 0
  27 C    1     1.3915     2.6295   28 C    0 0 1
  27 C    1     1.4026     2.6505   30 C    0 0 0
  27 C    1     2.1679     4.0967   13 H    0 0 1
  27 C    1     2.4179     4.5691   29 C    1 0 0
  27 C    1     2.4246     4.5818   25 C    0 0 1

  28 C    1     1.0914     2.0624   13 H    0 0 0
  28 C    1     1.3915     2.6295   27 C    0 0-1
  28 C    1     1.4021     2.6495   25 C    0 0 0
  28 C    1     2.1664     4.0939   12 H    0 0-1
  28 C    1     2.4175     4.5684   26 C    1 0 0
  28 C    1     2.4253     4.5832   30 C    0 0-1

  29 C    1     1.0914     2.0625   14 H    0 0 0
  29 C    1     1.3914     2.6293   26 C    0 0 1
  29 C    1     1.4025     2.6504   30 C   -1 0 0
  29 C    1     2.1680     4.0968   11 H    0 0 1
  29 C    1     2.4179     4.5691   27 C   -1 0 0
  29 C    1     2.4247     4.5819   25 C   -1 0 1

  30 C    1     1.4025     2.6504   29 C    1 0 0
  30 C    1     1.4026     2.6505   27 C    0 0 0
  30 C    1     1.5516     2.9322    6 B    0 0 0
  30 C    1     2.1491     4.0612   14 H    1 0 0
  30 C    1     2.1493     4.0617   12 H    0 0 0
  30 C    1     2.4251     4.5828   26 C    1 0 1

  31 C    1     1.4021     2.6496   32 C    1 1-1
  31 C    1     1.4021     2.6497   34 C    0 0 0
  31 C    1     1.5502     2.9294    3 B    0 0 0
  31 C    1     2.1475     4.0582   15 H    1 1-1
  31 C    1     2.1479     4.0589   17 H    0 0 0
  31 C    1     2.4244     4.5814   33 C    0 0 0

  32 C    1     1.0914     2.0624   15 H    0 0 0
  32 C    1     1.3914     2.6293   35 C    0 0 0
  32 C    1     1.4021     2.6496   31 C   -1-1 1
  32 C    1     2.1668     4.0947   18 H    0 0 0
  32 C    1     2.4179     4.5692   34 C   -1-1 1
  32 C    1     2.4251     4.5827   36 C   -1-1 1

  33 C    1     1.0913     2.0623   16 H    0 0 0
  33 C    1     1.3914     2.6294   34 C    0 0 0
  33 C    1     1.4025     2.6504   36 C    0 0 0
  33 C    1     2.1679     4.0968   17 H    0 0 0
  33 C    1     2.4178     4.5690   35 C    1 1-1
  33 C    1     2.4244     4.5814   31 C    0 0 0

  34 C    1     1.0915     2.0626   17 H    0 0 0
  34 C    1     1.3914     2.6294   33 C    0 0 0
  34 C    1     1.4021     2.6497   31 C    0 0 0
  34 C    1     2.1667     4.0945   16 H    0 0 0
  34 C    1     2.4179     4.5692   32 C    1 1-1
  34 C    1     2.4253     4.5832   36 C    0 0 0

  35 C    1     1.0914     2.0624   18 H    0 0 0
  35 C    1     1.3914     2.6293   32 C    0 0 0
  35 C    1     1.4025     2.6503   36 C   -1-1 1
  35 C    1     2.1678     4.0966   15 H    0 0 0
  35 C    1     2.4178     4.5690   33 C   -1-1 1
  35 C    1     2.4245     4.5817   31 C   -1-1 1

  36 C    1     1.4025     2.6503   35 C    1 1-1
  36 C    1     1.4025     2.6504   33 C    0 0 0
  36 C    1     1.5516     2.9322    5 B    0 0 0
  36 C    1     2.1486     4.0602   18 H    1 1-1
  36 C    1     2.1487     4.0605   16 H    0 0 0
  36 C    1     2.4251     4.5827   32 C    1 1-1

  37 O    1     1.3791     2.6061    1 B    1 0 0
  37 O    1     1.3791     2.6061    3 B    0 0 0
  37 O    1     2.3880     4.5126   38 O    1 0 0
  37 O    1     2.3882     4.5130   39 O    1 1-1
  37 O    1     2.5383     4.7966   31 C    0 0 0
  37 O    1     2.5384     4.7968   25 C    0 0 0

  38 O    1     1.3793     2.6065    1 B    0 0 0
  38 O    1     1.3793     2.6065    2 B    0 0 0
  38 O    1     2.3880     4.5126   37 O   -1 0 0
  38 O    1     2.3882     4.5131   39 O    0 1-1
  38 O    1     2.5391     4.7981   19 C    0 0 0
  38 O    1     2.5395     4.7990   25 C   -1 0 0

  39 O    1     1.3793     2.6064    3 B   -1-1 1
  39 O    1     1.3793     2.6065    2 B    0-1 1
  39 O    1     2.3882     4.5130   37 O   -1-1 1
  39 O    1     2.3882     4.5131   38 O    0-1 1
  39 O    1     2.5390     4.7980   19 C    0-1 1
  39 O    1     2.5391     4.7982   31 C   -1-1 1

  40 O    1     1.3795     2.6068    6 B    0 0 0
  40 O    1     1.3795     2.6068    4 B    0-1 1
  40 O    1     2.3880     4.5126   42 O    1 0 0
  40 O    1     2.3884     4.5134   41 O    0-1 1
  40 O    1     2.5400     4.7998   24 C    0-1 1
  40 O    1     2.5403     4.8005   30 C    0 0 0

  41 O    1     1.3795     2.6069    5 B    0 0 0
  41 O    1     1.3795     2.6070    4 B    0 0 0
  41 O    1     2.3881     4.5128   42 O    1 1-1
  41 O    1     2.3884     4.5134   40 O    0 1-1
  41 O    1     2.5404     4.8006   24 C    0 0 0
  41 O    1     2.5405     4.8008   36 C    0 0 0

  42 O    1     1.3796     2.6071    6 B   -1 0 0
  42 O    1     1.3797     2.6072    5 B   -1-1 1
  42 O    1     2.3880     4.5126   40 O   -1 0 0
  42 O    1     2.3881     4.5128   41 O   -1-1 1
  42 O    1     2.5409     4.8016   36 C   -1-1 1
  42 O    1     2.5410     4.8019   30 C   -1 0 0


 SYMMETRY ALLOWED INTERNAL DEGREE(S) OF FREEDOM: 123
 TTTTTTTTTTTTTTTTTTTTTTTTTTTTTT SYMM        TELAPSE        0.31 TCPU        0.31
 TTTTTTTTTTTTTTTTTTTTTTTTTTTTTT INT_SCREEN  TELAPSE        0.34 TCPU        0.34

 DFT PARAMETERS

     ATOM       ELECTRONS   NET CHARGE   R(ANGSTROM)
   1   5  B       5.0000      0.0000     0.89000000
   7   1  H       1.0000      0.0000     1.11000000
  19   6  C       6.0000      0.0000     0.77000000
  37   8  O       8.0000      0.0000     0.74000000

 SIZE OF GRID=    1211570
 TTTTTTTTTTTTTTTTTTTTTTTTTTTTTT MAKE_GRID2  TELAPSE       14.13 TCPU       14.11
 BECKE WEIGHT FUNCTION
 RADSAFE =     2.00
 TOLERANCES - DENSITY:10**- 6; POTENTIAL:10**- 9; GRID WGT:10**-14

 RADIAL INTEGRATION  - INTERVALS (POINTS,UPPER LIMIT):            1( 75,  4.0*R)

 ANGULAR INTEGRATION - INTERVALS (ACCURACY LEVEL [N. POINTS] UPPER LIMIT):
  1(  4[  86]   0.2)  2(  8[ 194]   0.5)  3( 12[ 350]   0.9)  4( 16[ 974]   3.5)
  5( 12[ 350]9999.0)
 TTTTTTTTTTTTTTTTTTTTTTTTTTTTTT INT_CALC    TELAPSE       14.26 TCPU       14.24
 EEEEEEEEEE INT_CALC TERMINATION  DATE 19 02 2026 TIME 17:50:26.9

 *******************************************************************************
 cof-1_z31_L010_incl                                                             
 CRYSTAL - SCF - TYPE OF CALCULATION :  RESTRICTED CLOSED SHELL
 *******************************************************************************

 CAPPA:IS1  2;IS2  2;IS3  8; K PTS MONK NET  20; SYMMOPS:K SPACE   2;G SPACE   1

 TTTTTTTTTTTTTTTTTTTTTTTTTTTTTT SDIK        TELAPSE       15.07 TCPU       23.92

 AAAAAAAAAAAAAAAAAAAAAAAAAAAAAAAAAAAAAAAAAAAAAAAAAAAAAAAAAAAAAAAAAAAAAAAAAAAAAAA
         ATOMIC WAVEFUNCTION(S)


 NUCLEAR CHARGE  5.0  SYMMETRY SPECIES            S    P
 N. ELECTRONS    5.0  NUMBER OF PRIMITIVE GTOS    8    4
                      NUMBER OF CONTRACTED GTOS   4    2
                      NUMBER OF CLOSED SHELLS     2    0
                      OPEN SHELL OCCUPATION       0    1

  ZNUC  SCFIT    TOTAL HF ENERGY   KINETIC ENERGY   VIRIAL THEOREM ACCURACY
   5.0    11    -2.451164084E+01  2.462155050E+01 -1.995536038E+00  1.5E-06

 NUCLEAR CHARGE  1.0  SYMMETRY SPECIES            S
 N. ELECTRONS    1.0  NUMBER OF PRIMITIVE GTOS    4
                      NUMBER OF CONTRACTED GTOS   2
                      NUMBER OF CLOSED SHELLS     0
                      OPEN SHELL OCCUPATION       1

  ZNUC  SCFIT    TOTAL HF ENERGY   KINETIC ENERGY   VIRIAL THEOREM ACCURACY
   1.0     1    -4.977266687E-01  5.190767460E-01 -1.958869132E+00  0.0E+00

 NUCLEAR CHARGE  6.0  SYMMETRY SPECIES            S    P
 N. ELECTRONS    6.0  NUMBER OF PRIMITIVE GTOS    8    4
                      NUMBER OF CONTRACTED GTOS   4    2
                      NUMBER OF CLOSED SHELLS     2    0
                      OPEN SHELL OCCUPATION       0    2

  ZNUC  SCFIT    TOTAL HF ENERGY   KINETIC ENERGY   VIRIAL THEOREM ACCURACY
   6.0     9    -3.766704647E+01  3.775180683E+01 -1.997754800E+00  1.1E-06

 NUCLEAR CHARGE  8.0  SYMMETRY SPECIES            S    P
 N. ELECTRONS    8.0  NUMBER OF PRIMITIVE GTOS    8    4
                      NUMBER OF CONTRACTED GTOS   4    2
                      NUMBER OF CLOSED SHELLS     2    0
                      OPEN SHELL OCCUPATION       0    4

  ZNUC  SCFIT    TOTAL HF ENERGY   KINETIC ENERGY   VIRIAL THEOREM ACCURACY
   8.0    12    -7.477373220E+01  7.477365593E+01 -2.000001020E+00  3.8E-06

 AAAAAAAAAAAAAAAAAAAAAAAAAAAAAAAAAAAAAAAAAAAAAAAAAAAAAAAAAAAAAAAAAAAAAAAAAAAAAAA

 CHARGE NORMALIZATION FACTOR   1.00000000
 TOTAL ATOMIC CHARGES:
   5.0000000   5.0000000   5.0000000   5.0000000   5.0000000   5.0000000
   1.0000000   1.0000000   1.0000000   1.0000000   1.0000000   1.0000000
   1.0000000   1.0000000   1.0000000   1.0000000   1.0000000   1.0000000
   6.0000000   6.0000000   6.0000000   6.0000000   6.0000000   6.0000000
   6.0000000   6.0000000   6.0000000   6.0000000   6.0000000   6.0000000
   6.0000000   6.0000000   6.0000000   6.0000000   6.0000000   6.0000000
   8.0000000   8.0000000   8.0000000   8.0000000   8.0000000   8.0000000
 TTTTTTTTTTTTTTTTTTTTTTTTTTTTTT MOQGAD      TELAPSE       15.19 TCPU       26.43
 TTTTTTTTTTTTTTTTTTTTTTTTTTTTTT SHELLXN     TELAPSE       30.57 TCPU      490.33
 TTTTTTTTTTTTTTTTTTTTTTTTTTTTTT MONMO3      TELAPSE       30.77 TCPU      496.84
 NUMERICALLY INTEGRATED DENSITY    198.0000945620
 TTTTTTTTTTTTTTTTTTTTTTTTTTTTTT NUMDFT      TELAPSE       31.47 TCPU      519.11
 CYC   0 ETOT(AU) -1.296075900268E+03 DETOT -1.30E+03 tst  0.00E+00 PX  1.00E+00
 TTTTTTTTTTTTTTTTTTTTTTTTTTTTTT DIIS        TELAPSE       31.50 TCPU      520.27
 TTTTTTTTTTTTTTTTTTTTTTTTTTTTTT FDIK        TELAPSE       32.01 TCPU      536.33
 INSULATING STATE
 TOP OF VALENCE BANDS -    BAND     99; K    1; EIG -2.7592847E-01 AU
 BOTTOM OF VIRTUAL BANDS - BAND    100; K   17; EIG -1.8621903E-01 AU
 INDIRECT ENERGY BAND GAP:   2.4411 eV
 BOTTOM OF VIRTUAL BANDS - BAND    100; K    1; EIG -1.3064933E-01 AU
 TTTTTTTTTTTTTTTTTTTTTTTTTTTTTT PDIG        TELAPSE       32.29 TCPU      542.35
 CHARGE NORMALIZATION FACTOR   1.00000000
 TOTAL ATOMIC CHARGES:
   4.1184210   4.1107421   4.1112255   4.1112497   4.1108134   4.1183905
   0.7867383   0.7868066   0.7861977   0.7862517   0.7862627   0.7864136
   0.7862580   0.7863914   0.7861699   0.7863160   0.7866777   0.7868080
   6.0605041   6.2746509   6.2745409   6.2706569   6.2702155   6.0598114
   6.0602021   6.2704160   6.2699329   6.2703027   6.2699115   6.0595029
   6.0607164   6.2703509   6.2706589   6.2741934   6.2748182   6.0594320
   8.7107756   8.7109835   8.7082038   8.7112129   8.7084880   8.7113847
 TTTTTTTTTTTTTTTTTTTTTTTTTTTTTT MOQGAD      TELAPSE       32.35 TCPU      542.41
 TTTTTTTTTTTTTTTTTTTTTTTTTTTTTT SHELLXN     TELAPSE       47.58 TCPU     1028.30
 TTTTTTTTTTTTTTTTTTTTTTTTTTTTTT MONMO3      TELAPSE       47.79 TCPU     1034.99
 NUMERICALLY INTEGRATED DENSITY    198.0000539899
 TTTTTTTTTTTTTTTTTTTTTTTTTTTTTT NUMDFT      TELAPSE       48.53 TCPU     1058.44
 CYC   1 ETOT(AU) -1.288798426214E+03 DETOT  7.28E+00 tst  0.00E+00 PX  1.00E+00
 TTTTTTTTTTTTTTTTTTTTTTTTTTTTTT DIIS        TELAPSE       48.58 TCPU     1060.03
 DIIS TEST: 0.11070E+01 AT SCF   CYCLE   1 - MIX   30 %
 TTTTTTTTTTTTTTTTTTTTTTTTTTTTTT FDIK        TELAPSE       49.12 TCPU     1077.38
 INSULATING STATE
 TOP OF VALENCE BANDS -    BAND     99; K    1; EIG -1.7191961E-01 AU
 BOTTOM OF VIRTUAL BANDS - BAND    100; K   17; EIG -1.0866525E-01 AU
 INDIRECT ENERGY BAND GAP:   1.7212 eV
 BOTTOM OF VIRTUAL BANDS - BAND    100; K    1; EIG -4.6730993E-02 AU
 TTTTTTTTTTTTTTTTTTTTTTTTTTTTTT PDIG        TELAPSE       49.42 TCPU     1083.40
 CHARGE NORMALIZATION FACTOR   1.00000000
 TOTAL ATOMIC CHARGES:
   4.6856789   4.6718373   4.6699762   4.6706614   4.6713716   4.6845989
   0.9275606   0.9277503   0.9274904   0.9272923   0.9243914   0.9242420
   0.9243477   0.9241703   0.9273408   0.9272543   0.9274371   0.9274749
   5.8654819   6.1125918   6.1127617   6.1278880   6.1301280   5.8686138
   5.8696412   6.1195070   6.1215154   6.1207132   6.1208779   5.8736005
   5.8651903   6.1281648   6.1302899   6.1127422   6.1129668   5.8692227
   8.3599693   8.3603003   8.3638781   8.3593468   8.3644556   8.3592763
 TTTTTTTTTTTTTTTTTTTTTTTTTTTTTT MOQGAD      TELAPSE       49.48 TCPU     1083.46
 TTTTTTTTTTTTTTTTTTTTTTTTTTTTTT SHELLXN     TELAPSE       65.45 TCPU     1592.72
 TTTTTTTTTTTTTTTTTTTTTTTTTTTTTT MONMO3      TELAPSE       65.66 TCPU     1599.48
 NUMERICALLY INTEGRATED DENSITY    198.0000577706
 TTTTTTTTTTTTTTTTTTTTTTTTTTTTTT NUMDFT      TELAPSE       66.42 TCPU     1623.10
 CYC   2 ETOT(AU) -1.288987057830E+03 DETOT -1.89E-01 tst  4.41E-03 PX  1.52E-01
 TTTTTTTTTTTTTTTTTTTTTTTTTTTTTT DIIS        TELAPSE       66.47 TCPU     1624.78
 DIIS TEST: 0.50147E+00 AT SCF   CYCLE   2 - DIIS ACTIVE - HISTORY:     2 CYCLES
 TTTTTTTTTTTTTTTTTTTTTTTTTTTTTT FDIK        TELAPSE       67.28 TCPU     1649.95
 INSULATING STATE
 TOP OF VALENCE BANDS -    BAND     99; K    1; EIG -1.9049121E-01 AU
 BOTTOM OF VIRTUAL BANDS - BAND    100; K   17; EIG -1.0275558E-01 AU
 INDIRECT ENERGY BAND GAP:   2.3874 eV
 BOTTOM OF VIRTUAL BANDS - BAND    100; K    1; EIG -3.8353070E-02 AU
 TTTTTTTTTTTTTTTTTTTTTTTTTTTTTT PDIG        TELAPSE       67.57 TCPU     1655.97
 CHARGE NORMALIZATION FACTOR   1.00000000
 TOTAL ATOMIC CHARGES:
   4.4555842   4.4430581   4.4424443   4.4417867   4.4418382   4.4543024
   0.8946672   0.8948662   0.8943460   0.8941867   0.8929782   0.8933421
   0.8932074   0.8931307   0.8942215   0.8942239   0.8945883   0.8947337
   5.9032700   6.1742048   6.1742079   6.1686718   6.1663787   5.9021644
   5.9103060   6.1673033   6.1656988   6.1669939   6.1658719   5.9101453
   5.9043014   6.1687853   6.1664249   6.1742384   6.1741092   5.9014265
   8.5230991   8.5232380   8.5176726   8.5233958   8.5170926   8.5234938
 TTTTTTTTTTTTTTTTTTTTTTTTTTTTTT MOQGAD      TELAPSE       67.63 TCPU     1656.03
 TTTTTTTTTTTTTTTTTTTTTTTTTTTTTT SHELLXN     TELAPSE       83.48 TCPU     2161.40
 TTTTTTTTTTTTTTTTTTTTTTTTTTTTTT MONMO3      TELAPSE       83.69 TCPU     2168.20
 NUMERICALLY INTEGRATED DENSITY    198.0000592346
 TTTTTTTTTTTTTTTTTTTTTTTTTTTTTT NUMDFT      TELAPSE       84.43 TCPU     2191.84
 CYC   3 ETOT(AU) -1.289093129399E+03 DETOT -1.06E-01 tst  7.26E-04 PX  5.53E-02
 TTTTTTTTTTTTTTTTTTTTTTTTTTTTTT DIIS        TELAPSE       84.49 TCPU     2193.80
 DIIS TEST: 0.10128E-01 AT SCF   CYCLE   3 - DIIS ACTIVE - HISTORY:     3 CYCLES
 TTTTTTTTTTTTTTTTTTTTTTTTTTTTTT FDIK        TELAPSE       85.05 TCPU     2211.60
 INSULATING STATE
 TOP OF VALENCE BANDS -    BAND     99; K    1; EIG -1.9871958E-01 AU
 BOTTOM OF VIRTUAL BANDS - BAND    100; K   17; EIG -1.1394662E-01 AU
 INDIRECT ENERGY BAND GAP:   2.3068 eV
 BOTTOM OF VIRTUAL BANDS - BAND    100; K    1; EIG -5.0525920E-02 AU
 TTTTTTTTTTTTTTTTTTTTTTTTTTTTTT PDIG        TELAPSE       85.35 TCPU     2217.62
 CHARGE NORMALIZATION FACTOR   1.00000000
 TOTAL ATOMIC CHARGES:
   4.4682659   4.4543181   4.4529763   4.4544537   4.4549452   4.4685925
   0.8817250   0.8820908   0.8807763   0.8804264   0.8789060   0.8787372
   0.8788465   0.8787395   0.8807222   0.8803582   0.8817029   0.8818157
   5.9569086   6.1513437   6.1511087   6.1619806   6.1674533   5.9633931
   5.9618662   6.1552733   6.1580410   6.1563539   6.1571573   5.9675707
   5.9561911   6.1617960   6.1679481   6.1509210   6.1516817   5.9643651
   8.5020761   8.5023642   8.5057105   8.5015055   8.5071069   8.5014852
 TTTTTTTTTTTTTTTTTTTTTTTTTTTTTT MOQGAD      TELAPSE       85.41 TCPU     2217.69
 TTTTTTTTTTTTTTTTTTTTTTTTTTTTTT SHELLXN     TELAPSE      101.36 TCPU     2726.68
 TTTTTTTTTTTTTTTTTTTTTTTTTTTTTT MONMO3      TELAPSE      101.58 TCPU     2733.41
 NUMERICALLY INTEGRATED DENSITY    198.0000582077
 TTTTTTTTTTTTTTTTTTTTTTTTTTTTTT NUMDFT      TELAPSE      102.31 TCPU     2756.90
 CYC   4 ETOT(AU) -1.289094984452E+03 DETOT -1.86E-03 tst  4.06E-05 PX  1.36E-02
 TTTTTTTTTTTTTTTTTTTTTTTTTTTTTT DIIS        TELAPSE      102.38 TCPU     2759.03
 DIIS TEST: 0.37315E-02 AT SCF   CYCLE   4 - DIIS ACTIVE - HISTORY:     4 CYCLES
 TTTTTTTTTTTTTTTTTTTTTTTTTTTTTT FDIK        TELAPSE      102.92 TCPU     2776.41
 INSULATING STATE
 TOP OF VALENCE BANDS -    BAND     99; K    1; EIG -1.9858030E-01 AU
 BOTTOM OF VIRTUAL BANDS - BAND    100; K   17; EIG -1.1191335E-01 AU
 INDIRECT ENERGY BAND GAP:   2.3583 eV
 BOTTOM OF VIRTUAL BANDS - BAND    100; K    1; EIG -4.8199609E-02 AU
 TTTTTTTTTTTTTTTTTTTTTTTTTTTTTT PDIG        TELAPSE      103.21 TCPU     2782.43
 CHARGE NORMALIZATION FACTOR   1.00000000
 TOTAL ATOMIC CHARGES:
   4.4687539   4.4560225   4.4550554   4.4537266   4.4539172   4.4665927
   0.8830976   0.8832047   0.8824678   0.8824718   0.8808851   0.8812076
   0.8810508   0.8810149   0.8823138   0.8825208   0.8829713   0.8830691
   5.9324279   6.1687671   6.1685923   6.1728690   6.1679463   5.9265939
   5.9365037   6.1677462   6.1657119   6.1677022   6.1658097   5.9329109
   5.9334654   6.1731576   6.1678863   6.1689722   6.1684479   5.9258527
   8.5089519   8.5090709   8.5065423   8.5091206   8.5054797   8.5091279
 TTTTTTTTTTTTTTTTTTTTTTTTTTTTTT MOQGAD      TELAPSE      103.28 TCPU     2782.49
 TTTTTTTTTTTTTTTTTTTTTTTTTTTTTT SHELLXN     TELAPSE      119.15 TCPU     3288.93
 TTTTTTTTTTTTTTTTTTTTTTTTTTTTTT MONMO3      TELAPSE      119.37 TCPU     3295.74
 NUMERICALLY INTEGRATED DENSITY    198.0000581311
 TTTTTTTTTTTTTTTTTTTTTTTTTTTTTT NUMDFT      TELAPSE      120.11 TCPU     3319.40
 CYC   5 ETOT(AU) -1.289095770648E+03 DETOT -7.86E-04 tst  9.23E-06 PX  8.05E-03
 TTTTTTTTTTTTTTTTTTTTTTTTTTTTTT DIIS        TELAPSE      120.18 TCPU     3321.78
 DIIS TEST: 0.36089E-03 AT SCF   CYCLE   5 - DIIS ACTIVE - HISTORY:     5 CYCLES
 TTTTTTTTTTTTTTTTTTTTTTTTTTTTTT FDIK        TELAPSE      120.74 TCPU     3339.42
 INSULATING STATE
 TOP OF VALENCE BANDS -    BAND     99; K    1; EIG -1.9803432E-01 AU
 BOTTOM OF VIRTUAL BANDS - BAND    100; K   17; EIG -1.1147311E-01 AU
 INDIRECT ENERGY BAND GAP:   2.3555 eV
 BOTTOM OF VIRTUAL BANDS - BAND    100; K    1; EIG -4.7759241E-02 AU
 TTTTTTTTTTTTTTTTTTTTTTTTTTTTTT PDIG        TELAPSE      121.03 TCPU     3345.44
 CHARGE NORMALIZATION FACTOR   1.00000000
 TOTAL ATOMIC CHARGES:
   4.4667517   4.4535653   4.4524507   4.4547079   4.4550825   4.4679478
   0.8844078   0.8847694   0.8840188   0.8835704   0.8823111   0.8822476
   0.8823494   0.8821819   0.8839584   0.8835249   0.8843734   0.8845407
   5.9258701   6.1645777   6.1653987   6.1653804   6.1730747   5.9377184
   5.9323681   6.1629983   6.1661600   6.1635404   6.1656646   5.9420688
   5.9256498   6.1651861   6.1735155   6.1642089   6.1658255   5.9382178
   8.5083975   8.5086606   8.5074268   8.5080929   8.5090767   8.5081621
 TTTTTTTTTTTTTTTTTTTTTTTTTTTTTT MOQGAD      TELAPSE      121.09 TCPU     3345.50
 TTTTTTTTTTTTTTTTTTTTTTTTTTTTTT SHELLXN     TELAPSE      136.92 TCPU     3850.18
 TTTTTTTTTTTTTTTTTTTTTTTTTTTTTT MONMO3      TELAPSE      137.13 TCPU     3856.87
 NUMERICALLY INTEGRATED DENSITY    198.0000581919
 TTTTTTTTTTTTTTTTTTTTTTTTTTTTTT NUMDFT      TELAPSE      137.86 TCPU     3880.32
 CYC   6 ETOT(AU) -1.289095735486E+03 DETOT  3.52E-05 tst  6.72E-06 PX  2.97E-03
 TTTTTTTTTTTTTTTTTTTTTTTTTTTTTT DIIS        TELAPSE      137.94 TCPU     3882.83
 DIIS TEST: 0.48274E-03 AT SCF   CYCLE   6 - DIIS ACTIVE - HISTORY:     6 CYCLES
 TTTTTTTTTTTTTTTTTTTTTTTTTTTTTT FDIK        TELAPSE      138.48 TCPU     3900.08
 INSULATING STATE
 TOP OF VALENCE BANDS -    BAND     99; K    1; EIG -1.9801685E-01 AU
 BOTTOM OF VIRTUAL BANDS - BAND    100; K   17; EIG -1.1151115E-01 AU
 INDIRECT ENERGY BAND GAP:   2.3539 eV
 BOTTOM OF VIRTUAL BANDS - BAND    100; K    1; EIG -4.7792575E-02 AU
 TTTTTTTTTTTTTTTTTTTTTTTTTTTTTT PDIG        TELAPSE      138.77 TCPU     3906.10
 CHARGE NORMALIZATION FACTOR   1.00000000
 TOTAL ATOMIC CHARGES:
   4.4678888   4.4547581   4.4536909   4.4536556   4.4539700   4.4669100
   0.8845678   0.8848482   0.8839661   0.8837842   0.8822991   0.8824129
   0.8823669   0.8823165   0.8838732   0.8837684   0.8845063   0.8846426
   5.9331430   6.1644645   6.1639197   6.1685580   6.1687226   5.9333428
   5.9382748   6.1639086   6.1639128   6.1643606   6.1635149   5.9390567
   5.9333175   6.1685319   6.1689954   6.1643012   6.1641531   5.9334478
   8.5081003   8.5083030   8.5076806   8.5079356   8.5078703   8.5079586
 TTTTTTTTTTTTTTTTTTTTTTTTTTTTTT MOQGAD      TELAPSE      138.83 TCPU     3906.16
 TTTTTTTTTTTTTTTTTTTTTTTTTTTTTT SHELLXN     TELAPSE      154.62 TCPU     4409.71
 TTTTTTTTTTTTTTTTTTTTTTTTTTTTTT MONMO3      TELAPSE      154.83 TCPU     4416.40
 NUMERICALLY INTEGRATED DENSITY    198.0000582030
 TTTTTTTTTTTTTTTTTTTTTTTTTTTTTT NUMDFT      TELAPSE      155.56 TCPU     4439.86
 CYC   7 ETOT(AU) -1.289095858397E+03 DETOT -1.23E-04 tst  2.68E-06 PX  1.83E-03
 TTTTTTTTTTTTTTTTTTTTTTTTTTTTTT DIIS        TELAPSE      155.65 TCPU     4442.55
 DIIS TEST: 0.68762E-05 AT SCF   CYCLE   7 - DIIS ACTIVE - HISTORY:     7 CYCLES
 TTTTTTTTTTTTTTTTTTTTTTTTTTTTTT FDIK        TELAPSE      156.19 TCPU     4459.88
 INSULATING STATE
 TOP OF VALENCE BANDS -    BAND     99; K    1; EIG -1.9813434E-01 AU
 BOTTOM OF VIRTUAL BANDS - BAND    100; K   17; EIG -1.1160313E-01 AU
 INDIRECT ENERGY BAND GAP:   2.3546 eV
 BOTTOM OF VIRTUAL BANDS - BAND    100; K    1; EIG -4.7882167E-02 AU
 TTTTTTTTTTTTTTTTTTTTTTTTTTTTTT PDIG        TELAPSE      156.48 TCPU     4465.90
 CHARGE NORMALIZATION FACTOR   1.00000000
 TOTAL ATOMIC CHARGES:
   4.4679349   4.4549333   4.4539019   4.4540447   4.4543119   4.4671842
   0.8843728   0.8845747   0.8837478   0.8835645   0.8820918   0.8822407
   0.8822009   0.8821027   0.8836275   0.8835762   0.8842847   0.8843965
   5.9323264   6.1646653   6.1650437   6.1685815   6.1687351   5.9336980
   5.9373538   6.1640557   6.1643012   6.1642887   6.1641320   5.9393586
   5.9328289   6.1686990   6.1688611   6.1646445   6.1651356   5.9334782
   8.5081561   8.5083362   8.5069638   8.5081396   8.5069666   8.5081587
 TTTTTTTTTTTTTTTTTTTTTTTTTTTTTT MOQGAD      TELAPSE      156.54 TCPU     4465.96
 TTTTTTTTTTTTTTTTTTTTTTTTTTTTTT SHELLXN     TELAPSE      172.42 TCPU     4972.50
 TTTTTTTTTTTTTTTTTTTTTTTTTTTTTT MONMO3      TELAPSE      172.63 TCPU     4979.18
 NUMERICALLY INTEGRATED DENSITY    198.0000582077
 TTTTTTTTTTTTTTTTTTTTTTTTTTTTTT NUMDFT      TELAPSE      173.36 TCPU     5002.70
 CYC   8 ETOT(AU) -1.289095860059E+03 DETOT -1.66E-06 tst  2.49E-08 PX  2.86E-04
 TTTTTTTTTTTTTTTTTTTTTTTTTTTTTT DIIS        TELAPSE      173.45 TCPU     5005.49
 DIIS TEST: 0.10800E-05 AT SCF   CYCLE   8 - DIIS ACTIVE - HISTORY:     8 CYCLES
 TTTTTTTTTTTTTTTTTTTTTTTTTTTTTT FDIK        TELAPSE      173.99 TCPU     5022.83
 INSULATING STATE
 TOP OF VALENCE BANDS -    BAND     99; K    1; EIG -1.9812505E-01 AU
 BOTTOM OF VIRTUAL BANDS - BAND    100; K   17; EIG -1.1160879E-01 AU
 INDIRECT ENERGY BAND GAP:   2.3542 eV
 BOTTOM OF VIRTUAL BANDS - BAND    100; K    1; EIG -4.7889062E-02 AU
 TTTTTTTTTTTTTTTTTTTTTTTTTTTTTT PDIG        TELAPSE      174.28 TCPU     5028.85
 CHARGE NORMALIZATION FACTOR   1.00000000
 TOTAL ATOMIC CHARGES:
   4.4680244   4.4549550   4.4538910   4.4540166   4.4543182   4.4671881
   0.8843388   0.8845978   0.8837518   0.8835533   0.8820949   0.8822201
   0.8821792   0.8821070   0.8836511   0.8835457   0.8842665   0.8844037
   5.9323747   6.1648881   6.1646341   6.1684692   6.1690443   5.9334890
   5.9375486   6.1641388   6.1642696   6.1644916   6.1639758   5.9389935
   5.9326598   6.1684843   6.1692741   6.1647711   6.1648201   5.9334875
   8.5081569   8.5083552   8.5071409   8.5080164   8.5073662   8.5080468
 TTTTTTTTTTTTTTTTTTTTTTTTTTTTTT MOQGAD      TELAPSE      174.35 TCPU     5028.91
 TTTTTTTTTTTTTTTTTTTTTTTTTTTTTT SHELLXN     TELAPSE      190.31 TCPU     5538.06
 TTTTTTTTTTTTTTTTTTTTTTTTTTTTTT MONMO3      TELAPSE      190.52 TCPU     5544.84
 NUMERICALLY INTEGRATED DENSITY    198.0000582066
 TTTTTTTTTTTTTTTTTTTTTTTTTTTTTT NUMDFT      TELAPSE      191.26 TCPU     5568.42
 CYC   9 ETOT(AU) -1.289095860162E+03 DETOT -1.03E-07 tst  4.22E-09 PX  1.34E-04
 TTTTTTTTTTTTTTTTTTTTTTTTTTTTTT DIIS        TELAPSE      191.35 TCPU     5571.46
 DIIS TEST: 0.17634E-06 AT SCF   CYCLE   9 - DIIS ACTIVE - HISTORY:     9 CYCLES
 TTTTTTTTTTTTTTTTTTTTTTTTTTTTTT FDIK        TELAPSE      191.90 TCPU     5588.90
 INSULATING STATE
 TOP OF VALENCE BANDS -    BAND     99; K    1; EIG -1.9812117E-01 AU
 BOTTOM OF VIRTUAL BANDS - BAND    100; K   17; EIG -1.1160736E-01 AU
 INDIRECT ENERGY BAND GAP:   2.3542 eV
 BOTTOM OF VIRTUAL BANDS - BAND    100; K    1; EIG -4.7887180E-02 AU
 TTTTTTTTTTTTTTTTTTTTTTTTTTTTTT PDIG        TELAPSE      192.20 TCPU     5594.93
 CHARGE NORMALIZATION FACTOR   1.00000000
 TOTAL ATOMIC CHARGES:
   4.4679828   4.4549248   4.4538713   4.4539958   4.4542883   4.4671876
   0.8843580   0.8845968   0.8837544   0.8835678   0.8820987   0.8822256
   0.8821870   0.8821085   0.8836484   0.8835656   0.8842830   0.8844055
   5.9323759   6.1647208   6.1647300   6.1685880   6.1689206   5.9335198
   5.9374474   6.1640693   6.1643049   6.1644119   6.1640212   5.9391600
   5.9327183   6.1686310   6.1691220   6.1646285   6.1648916   5.9334603
   8.5081407   8.5083310   8.5072496   8.5080595   8.5073665   8.5080813
 TTTTTTTTTTTTTTTTTTTTTTTTTTTTTT MOQGAD      TELAPSE      192.26 TCPU     5594.99
 TTTTTTTTTTTTTTTTTTTTTTTTTTTTTT SHELLXN     TELAPSE      208.02 TCPU     6097.90
 +++ ENERGIES IN A.U. +++
 ::: EXT EL-POLE                                  -1.6450787319671E+03
 ::: EXT EL-SPHEROPOLE                             1.8421939362555E+01
 ::: BIELET ZONE E-E                               2.6192198281825E+03
 ::: TOTAL E-E                                     9.9256303557792E+02
 ::: TOTAL E-N + N-E                              -3.8058615633044E+03
 ::: TOTAL N-N                                     3.7785893264075E+02
 ::: KINETIC ENERGY                                1.2801193081447E+03
 ::: PSEUDO TOTAL   ENERGY                        -1.1553202869411E+03
 ::: VIRIAL COEFFICIENT                            1.0512429137866E+00
 TTTTTTTTTTTTTTTTTTTTTTTTTTTTTT MONMO3      TELAPSE      208.23 TCPU     6104.59
 NUMERICALLY INTEGRATED DENSITY    198.0000582064
 EXCHANGE ENERGY: -0.126040187278E+03  CORRELATION ENERGY: -0.773538596200E+01
 TTTTTTTTTTTTTTTTTTTTTTTTTTTTTT NUMDFT      TELAPSE      208.97 TCPU     6128.06
 CYC  10 ETOT(AU) -1.289095860181E+03 DETOT -1.91E-08 tst  8.85E-10 PX  1.34E-04

 == SCF ENDED - CONVERGENCE ON ENERGY      E(AU) -1.2890958601812E+03 CYCLES  10


 ENERGY EXPRESSION=HARTREE+FOCK EXCH*0.00000+(HSESOL     EXCH)*1.00000+PBESOL     CORR


 TOTAL ENERGY(DFT)(AU)( 10) -1.2890958601812E+03 DE-1.9E-08 tester 8.9E-10
 TTTTTTTTTTTTTTTTTTTTTTTTTTTTTT EDFT        TELAPSE      208.97 TCPU     6128.07
 
 INFORMATION **** DFTD3 ENERGY **** CALCULATE DFTD3 ENERGY

           DFT-D V3(BJ)
 DF                                         hsesol3c  
 parameters
 s6       :    1.0000
 s8       :    0.0000
 a1       :    0.5196
 a2       :    4.9385
 k1 k3    :   16.0000   -4.0000
 Cutoff   :   50.2022
 CN-Cutoff:   21.1671
 ABC-Cutoff:   21.1671
 
 Edisp /kcal,au:   -34.6966 -0.05529258

 E6    /kcal :   -37.2764
 E8    /kcal :     0.0000
 E6(ABC) "   :   2.579741
 
 INFORMATION **** DFTD3 ENERGY **** NORMAL TERMINATION OF DFTD3 MODULE

 GCP ENERGY CALCULATION
  level        hsesol3c            basis:hsesol3c
  Nbf            474
  Atoms           42

  Parameters: 
  sigma     1.0000
  eta       1.4281
  alpha     0.2936
  beta      1.9467

  dmp_scal      4.0000
  dmp_exp       6.0000
 cutoffs: 
   distance [bohr] 60.0
   noise    [a.u.] 2.2E-16
 SR-damping   T
 ** gCP correction **
  Egcp:        0.0867232301 / (a.u.) ||      54.4197 / (kcal/mol)
 INFORMATION **** GCP **** NORMAL TERMINATION OF GCP MODULE

 *******************************************************************************

 DFT-D3-GCP DISPERSION AND COUNTERPOISE CORRECTION

 D3 DISPERSION ENERGY (AU)      -5.5292577581317E-02
 GCP ENERGY (AU)                 8.6723230133955E-02
 TOTAL ENERGY + DISP + GCP (AU) -1.2890644295286E+03

 *******************************************************************************

 EIGENVECTORS IN FORTRAN UNIT  8
 TTTTTTTTTTTTTTTTTTTTTTTTTTTTTT END         TELAPSE      210.67 TCPU     6135.53
 EEEEEEEEEE TERMINATION  DATE 19 02 2026 TIME 17:53:43.3
