 Default number of threads is:           32

         
 *******************************************************************************
 *                                                                             *
 *                               CRYSTAL23                                     *
 *                      public : 1.0.1 - October 2022                          *
 *                       HTTP://WWW.CRYSTAL.UNITO.IT                           *
 *                                                                             *
 *                              MAIN AUTHORS                                   *
 *                                                                             *
 *  R. DOVESI(1,11), V.R. SAUNDERS(2), C. ROETTI(1,11), R. ORLANDO(1,11),      *
 *  C.M. ZICOVICH-WILSON(1,3), F. PASCALE(4), B. CIVALLERI(1,11),              *
 *  K. DOLL(5), N.M. HARRISON(6), I.J. BUSH(7), Ph. D'ARCO(8),                 *
 *  M. LLUNELL(9), M. CAUSA'(10), Y. NOEL(8), L. MASCHIO(1,11), A. ERBA(1,11)  *
 *  M. RE'RAT(14), S. CASASSA(1,11), B.G. SEARLE(2), J.K. DESMARAIS(1)         *
 *                                                                             *
 *        CONTRIBUTIONS TO THE CODE HAVE ALSO BEEN GIVEN BY                    *
 *                                                                             *
 *  M. FERRABONE(1,11), M. DE LA PIERRE(1,11), M. FERRERO(1,11),               *
 *  J. BAIMA(1,11), E. ALBANESE(1,11), M.F. PEINTINGER(12), R. BAST(13),       *
 *  B. KIRTMAN(15), V. LACIVITA(1,11), R. DEMICHELIS(1,16)                     *
 *  G. BRANDEBURG(17), S. SALUSTRO(1,11), G. SANSONE(1,11)                     *
 *  M.T. RUGGIERO(18), L.E. DAGA(1), L. DONA'(1), A. COSSARD(1)                *
 *                                                                             *
 * (1) THEORETICAL CHEMISTRY GROUP - UNIVERSITA' DI TORINO - TORINO (ITALY)    *
 * (2) SCIENTIFIC COMPUTING DEPARTMENT - STFC DARESBURY (UK)                   *
 * (3) UNIVERSIDAD AUTONOMA DEL ESTADO DE MORELOS - CUERNAVACA (MEXICO)        *
 * (4) UNIVERSITE' DE LORRAINE - NANCY (FRANCE)                                *
 * (5) UNIVERSITAET STUTTGART- STUTTGART (GERMANY)                             *
 * (6) IMPERIAL COLLEGE - LONDON (UK)                                          *
 * (7) SCIENTIFIC COMPUTING DEPARTMENT - STFC RAL (UK)                         *
 * (8) UPMC - SORBONNE UNIVERSITES - PARIS (FRANCE)                            *
 * (9) UNIVERSIDAD DE BARCELONA - BARCELONA (SPAIN)                            *
 *(10) UNIVERSITA' DI NAPOLI "FEDERICO II" - NAPOLI (ITALY)                    *
 *(11) NIS - NANOSTRUCTURED INTERFACES AND SURFACES - TORINO (ITALY)           *
 *(12) MPI FUER CHEMISCHE ENERGIEKONVERSION - MUELHEIM AN DER RUHR (GERMANY)   *
 *(13) UNIVERSITY OF TROMSO - TROMSO (NORWAY)                                  *
 *(14) UNIVERSITE' DE PAU ET DES PAYS DE L'ADOUR - PAU (FRANCE)                *
 *(15) UNIVERSITY OF CALIFORNIA SANTA BARBARA - SANTA BARBARA (USA)            *
 *(16) CURTIN UNIVERSITY - PERTH (AUSTRALIA)                                   *
 *(17) UNIVERSITY COLLEGE LONDON - LONDON (UK)                                 *
 *(18) UNIVERSITY OF VERMONT - BURLINGTON (USA)                                *
 *                                                                             *
 *******************************************************************************
 EEEEEEEEEE STARTING  DATE 19 02 2026 TIME 19:05:37.9
 cof-1_z40_L020_incl                                                             

 CRYSTAL CALCULATION
 (INPUT ACCORDING TO THE INTERNATIONAL TABLES FOR X-RAY CRYSTALLOGRAPHY)
 CRYSTAL FAMILY                       :  TRICLINIC   
 CRYSTAL CLASS  (GROTH - 1921)        :  TRICLINIC PEDIAL                     

 SPACE GROUP (NONCENTROSYMMETRIC)     :  P 1             

 LATTICE PARAMETERS  (ANGSTROMS AND DEGREES) - CONVENTIONAL CELL
        A           B           C        ALPHA        BETA       GAMMA
    15.02361    15.02392     4.47214    67.21284    89.99995   119.99596


 NUMBER OF IRREDUCIBLE ATOMS IN THE CONVENTIONAL CELL:   42

 INPUT COORDINATES

 ATOM AT. N.              COORDINATES
   1   5     5.751656100000E-01  1.502805300000E-01  5.011926900000E-01
   2   5     7.342212700000E-01  3.093401800000E-01  5.011927100000E-01
   3   5     5.753542800000E-01  3.097089000000E-01  4.986819200000E-01
   4   5     1.887403200000E-01  5.365955200000E-01  5.011927000000E-01
   5   5     3.478482900000E-01  5.365747500000E-01  5.011927000000E-01
   6   5     3.480215100000E-01  6.960998800000E-01  4.986819200000E-01
   7   1     8.649287000000E-01  2.326924700000E-01  4.959873300000E-01
   8   1     5.858078000000E-02  6.149382100000E-01  4.951913400000E-01
   9   1     8.649270800000E-01  5.179760300000E-01  4.950688400000E-01
  10   1     5.868950000000E-02  3.295838400000E-01  4.950993900000E-01
  11   1     6.523009900000E-01  1.953342000000E-02  5.040097400000E-01
  12   1     2.701371300000E-01  8.258442500000E-01  5.048057800000E-01
  13   1     3.670679800000E-01  1.943808000000E-02  5.049283600000E-01
  14   1     5.555125700000E-01  8.257401500000E-01  5.048976000000E-01
  15   1     6.529578200000E-01  5.178166200000E-01  4.959873800000E-01
  16   1     2.709080900000E-01  3.294941000000E-01  4.951912900000E-01
  17   1     3.677962400000E-01  2.327268600000E-01  4.950687400000E-01
  18   1     5.562441900000E-01  6.148568100000E-01  4.950994900000E-01
  19   6     8.535753800000E-01  3.693060400000E-01  4.985900500000E-01
  20   6     9.083647800000E-01  3.165292200000E-01  4.961098300000E-01
  21   6     1.528025000000E-02  5.309618200000E-01  4.958955700000E-01
  22   6     9.082948300000E-01  4.773698700000E-01  4.965385800000E-01
  23   6     1.539613000000E-02  3.701818200000E-01  4.948850500000E-01
  24   6     6.987626000000E-02  4.777086100000E-01  4.965691700000E-01
  25   6     5.155080200000E-01  3.109782000000E-02  5.014070500000E-01
  26   6     5.684558500000E-01 -2.389593000000E-02  5.038872300000E-01
  27   6     3.540602000000E-01  8.691783500000E-01  5.041015600000E-01
  28   6     4.075985200000E-01 -2.378312000000E-02  5.034585800000E-01
  29   6     5.149007300000E-01  8.689834400000E-01  5.051119800000E-01
  30   6     4.072412100000E-01  8.146107900000E-01  5.034279300000E-01
  31   6     5.157299400000E-01  3.692369100000E-01  4.985900400000E-01
  32   6     5.690858800000E-01  4.773693600000E-01  4.961098800000E-01
  33   6     3.547155100000E-01  3.699485600000E-01  4.958955200000E-01
  34   6     4.081299900000E-01  3.163676800000E-01  4.965385100000E-01
  35   6     5.157127400000E-01  5.310298300000E-01  4.948851200000E-01
  36   6     4.078003500000E-01  4.776312100000E-01  4.965691700000E-01
  37   8     5.223629300000E-01  2.036153200000E-01  4.993555300000E-01
  38   8     6.809008800000E-01  2.028088000000E-01  5.046526900000E-01
  39   8     6.815127300000E-01  3.629823200000E-01  4.966610500000E-01
  40   8     2.419507600000E-01  6.428958000000E-01  4.993555600000E-01
  41   8     2.415631500000E-01  4.831260900000E-01  5.046526800000E-01
  42   8     4.010971500000E-01  6.432942800000E-01  4.966610300000E-01

 *******************************************************************************

 << INFORMATION >>: FROM NOW ON, ALL COORDINATES REFER TO THE PRIMITIVE CELL

 *******************************************************************************

 LATTICE PARAMETERS  (ANGSTROMS AND DEGREES) - PRIMITIVE CELL
       A          B          C        ALPHA      BETA     GAMMA        VOLUME
   15.02361   15.02392    4.47214    67.21284  89.99995 119.99596    781.928520

 COORDINATES OF THE EQUIVALENT ATOMS (FRACTIONAL UNITS)

 N. ATOM EQUIV AT. N.          X                  Y                  Z

   1   1   1    5 B    -4.24834390000E-01  1.50280530000E-01 -4.98807310000E-01

   2   2   1    5 B    -2.65778730000E-01  3.09340180000E-01 -4.98807290000E-01

   3   3   1    5 B    -4.24645720000E-01  3.09708900000E-01  4.98681920000E-01

   4   4   1    5 B     1.88740320000E-01 -4.63404480000E-01 -4.98807300000E-01

   5   5   1    5 B     3.47848290000E-01 -4.63425250000E-01 -4.98807300000E-01

   6   6   1    5 B     3.48021510000E-01 -3.03900120000E-01  4.98681920000E-01

   7   7   1    1 H    -1.35071300000E-01  2.32692470000E-01  4.95987330000E-01

   8   8   1    1 H     5.85807800000E-02 -3.85061790000E-01  4.95191340000E-01

   9   9   1    1 H    -1.35072920000E-01 -4.82023970000E-01  4.95068840000E-01

  10  10   1    1 H     5.86895000000E-02  3.29583840000E-01  4.95099390000E-01

  11  11   1    1 H    -3.47699010000E-01  1.95334200000E-02 -4.95990260000E-01

  12  12   1    1 H     2.70137130000E-01 -1.74155750000E-01 -4.95194220000E-01

  13  13   1    1 H     3.67067980000E-01  1.94380800000E-02 -4.95071640000E-01

  14  14   1    1 H    -4.44487430000E-01 -1.74259850000E-01 -4.95102400000E-01

  15  15   1    1 H    -3.47042180000E-01 -4.82183380000E-01  4.95987380000E-01

  16  16   1    1 H     2.70908090000E-01  3.29494100000E-01  4.95191290000E-01

  17  17   1    1 H     3.67796240000E-01  2.32726860000E-01  4.95068740000E-01

  18  18   1    1 H    -4.43755810000E-01 -3.85143190000E-01  4.95099490000E-01

  19  19   1    6 C    -1.46424620000E-01  3.69306040000E-01  4.98590050000E-01

  20  20   1    6 C    -9.16352200000E-02  3.16529220000E-01  4.96109830000E-01

  21  21   1    6 C     1.52802500000E-02 -4.69038180000E-01  4.95895570000E-01

  22  22   1    6 C    -9.17051700000E-02  4.77369870000E-01  4.96538580000E-01

  23  23   1    6 C     1.53961300000E-02  3.70181820000E-01  4.94885050000E-01

  24  24   1    6 C     6.98762600000E-02  4.77708610000E-01  4.96569170000E-01

  25  25   1    6 C    -4.84491980000E-01  3.10978200000E-02 -4.98592950000E-01

  26  26   1    6 C    -4.31544150000E-01 -2.38959300000E-02 -4.96112770000E-01

  27  27   1    6 C     3.54060200000E-01 -1.30821650000E-01 -4.95898440000E-01

  28  28   1    6 C     4.07598520000E-01 -2.37831200000E-02 -4.96541420000E-01

  29  29   1    6 C    -4.85099270000E-01 -1.31016560000E-01 -4.94888020000E-01

  30  30   1    6 C     4.07241210000E-01 -1.85389210000E-01 -4.96572070000E-01

  31  31   1    6 C    -4.84270060000E-01  3.69236910000E-01  4.98590040000E-01

  32  32   1    6 C    -4.30914120000E-01  4.77369360000E-01  4.96109880000E-01

  33  33   1    6 C     3.54715510000E-01  3.69948560000E-01  4.95895520000E-01

  34  34   1    6 C     4.08129990000E-01  3.16367680000E-01  4.96538510000E-01

  35  35   1    6 C    -4.84287260000E-01 -4.68970170000E-01  4.94885120000E-01

  36  36   1    6 C     4.07800350000E-01  4.77631210000E-01  4.96569170000E-01

  37  37   1    8 O    -4.77637070000E-01  2.03615320000E-01  4.99355530000E-01

  38  38   1    8 O    -3.19099120000E-01  2.02808800000E-01 -4.95347310000E-01

  39  39   1    8 O    -3.18487270000E-01  3.62982320000E-01  4.96661050000E-01

  40  40   1    8 O     2.41950760000E-01 -3.57104200000E-01  4.99355560000E-01

  41  41   1    8 O     2.41563150000E-01  4.83126090000E-01 -4.95347320000E-01

  42  42   1    8 O     4.01097150000E-01 -3.56705720000E-01  4.96661030000E-01

 NUMBER OF SYMMETRY OPERATORS         :    1
 *******************************************************************************
 * GEOMETRY EDITING - INPUT COORDINATES ARE GIVEN IN ANGSTROM         
 *******************************************************************************

 GCALCO - MAX INDICES DIRECT LATTICE VECTOR    10    10    31
 NO.OF VECTORS CREATED 6999 STARS 3500 RMAX   206.15246 BOHR

 GEOMETRY FOR WAVE FUNCTION - DIMENSIONALITY OF THE SYSTEM    3
 (NON PERIODIC DIRECTION: LATTICE PARAMETER FORMALLY SET TO 500)
 *******************************************************************************
 LATTICE PARAMETERS (ANGSTROMS AND DEGREES) - BOHR = 0.5291772083 ANGSTROM
 PRIMITIVE CELL - CENTRING CODE 1/0 VOLUME=   781.928520 - DENSITY  0.828 g/cm^3
         A              B              C           ALPHA      BETA       GAMMA 
    15.02361100    15.02391600     4.47213600    67.212836  89.999950 119.995964
 *******************************************************************************
 ATOMS IN THE ASYMMETRIC UNIT   42 - ATOMS IN THE UNIT CELL:   42
     ATOM                 X/A                 Y/B                 Z/C    
 *******************************************************************************
      1 T   5 B    -4.248343900000E-01  1.502805300000E-01 -4.988073100000E-01
      2 T   5 B    -2.657787300000E-01  3.093401800000E-01 -4.988072900000E-01
      3 T   5 B    -4.246457200000E-01  3.097089000000E-01  4.986819200000E-01
      4 T   5 B     1.887403200000E-01 -4.634044800000E-01 -4.988073000000E-01
      5 T   5 B     3.478482900000E-01 -4.634252500000E-01 -4.988073000000E-01
      6 T   5 B     3.480215100000E-01 -3.039001200000E-01  4.986819200000E-01
      7 T   1 H    -1.350713000000E-01  2.326924700000E-01  4.959873300000E-01
      8 T   1 H     5.858078000000E-02 -3.850617900000E-01  4.951913400000E-01
      9 T   1 H    -1.350729200000E-01 -4.820239700000E-01  4.950688400000E-01
     10 T   1 H     5.868950000000E-02  3.295838400000E-01  4.950993900000E-01
     11 T   1 H    -3.476990100000E-01  1.953342000000E-02 -4.959902600000E-01
     12 T   1 H     2.701371300000E-01 -1.741557500000E-01 -4.951942200000E-01
     13 T   1 H     3.670679800000E-01  1.943808000000E-02 -4.950716400000E-01
     14 T   1 H    -4.444874300000E-01 -1.742598500000E-01 -4.951024000000E-01
     15 T   1 H    -3.470421800000E-01 -4.821833800000E-01  4.959873800000E-01
     16 T   1 H     2.709080900000E-01  3.294941000000E-01  4.951912900000E-01
     17 T   1 H     3.677962400000E-01  2.327268600000E-01  4.950687400000E-01
     18 T   1 H    -4.437558100000E-01 -3.851431900000E-01  4.950994900000E-01
     19 T   6 C    -1.464246200000E-01  3.693060400000E-01  4.985900500000E-01
     20 T   6 C    -9.163522000000E-02  3.165292200000E-01  4.961098300000E-01
     21 T   6 C     1.528025000000E-02 -4.690381800000E-01  4.958955700000E-01
     22 T   6 C    -9.170517000000E-02  4.773698700000E-01  4.965385800000E-01
     23 T   6 C     1.539613000000E-02  3.701818200000E-01  4.948850500000E-01
     24 T   6 C     6.987626000000E-02  4.777086100000E-01  4.965691700000E-01
     25 T   6 C    -4.844919800000E-01  3.109782000000E-02 -4.985929500000E-01
     26 T   6 C    -4.315441500000E-01 -2.389593000000E-02 -4.961127700000E-01
     27 T   6 C     3.540602000000E-01 -1.308216500000E-01 -4.958984400000E-01
     28 T   6 C     4.075985200000E-01 -2.378312000000E-02 -4.965414200000E-01
     29 T   6 C    -4.850992700000E-01 -1.310165600000E-01 -4.948880200000E-01
     30 T   6 C     4.072412100000E-01 -1.853892100000E-01 -4.965720700000E-01
     31 T   6 C    -4.842700600000E-01  3.692369100000E-01  4.985900400000E-01
     32 T   6 C    -4.309141200000E-01  4.773693600000E-01  4.961098800000E-01
     33 T   6 C     3.547155100000E-01  3.699485600000E-01  4.958955200000E-01
     34 T   6 C     4.081299900000E-01  3.163676800000E-01  4.965385100000E-01
     35 T   6 C    -4.842872600000E-01 -4.689701700000E-01  4.948851200000E-01
     36 T   6 C     4.078003500000E-01  4.776312100000E-01  4.965691700000E-01
     37 T   8 O    -4.776370700000E-01  2.036153200000E-01  4.993555300000E-01
     38 T   8 O    -3.190991200000E-01  2.028088000000E-01 -4.953473100000E-01
     39 T   8 O    -3.184872700000E-01  3.629823200000E-01  4.966610500000E-01
     40 T   8 O     2.419507600000E-01 -3.571042000000E-01  4.993555600000E-01
     41 T   8 O     2.415631500000E-01  4.831260900000E-01 -4.953473200000E-01
     42 T   8 O     4.010971500000E-01 -3.567057200000E-01  4.966610300000E-01

 T = ATOM BELONGING TO THE ASYMMETRIC UNIT

 ****    1 SYMMOPS - TRANSLATORS IN FRACTIONAL UNITS
 **** MATRICES AND TRANSLATORS IN THE CRYSTALLOGRAPHIC REFERENCE FRAME
   V INV                    ROTATION MATRICES                   TRANSLATORS
   1   1  1.00 -0.00  0.00  0.00  1.00  0.00  0.00 -0.00  1.00  0.00  0.00  0.00

 DIRECT LATTICE VECTORS CARTESIAN COMPONENTS (ANGSTROM)
          X                    Y                    Z
   0.130113578931E+02  -0.751088897922E+01   0.000000000000E+00
   0.000000000000E+00   0.150239160000E+02   0.000000000000E+00
   0.999869511112E+00   0.173209875145E+01   0.400001190979E+01


 CARTESIAN COORDINATES - PRIMITIVE CELL
 *******************************************************************************
 *      ATOM          X(ANGSTROM)         Y(ANGSTROM)         Z(ANGSTROM)
 *******************************************************************************
    1     5 B    -6.026414514757E+00  4.584702478135E+00 -1.995235180691E+00
    2     5 B    -3.956884377583E+00  5.779751929590E+00 -1.995235100691E+00
    3     5 B     6.984887788821E+00 -5.367140431908E-01 -2.005278290594E+00
    4     5 B     1.957025641180E+00  5.780174927491E+00 -1.995235140691E+00
    5     5 B     4.027236382488E+00  4.584820582378E+00 -1.995235140691E+00
    6     5 B     4.026979757531E+00  6.975862780295E+00 -2.005278290594E+00
    7     1 H    -2.261407927328E+00  3.637457945270E+00 -2.016056682686E+00
    8     1 H     1.257342217267E+00 -5.367409420924E+00  1.980771257626E+00
    9     1 H    -1.262477864763E+00 -5.369861809403E+00  1.980281256167E+00
   10     1 H     2.587953629837E-01  3.636291892185E+00 -2.019608453261E+00
   11     1 H    -5.019961796954E+00  2.045893013490E+00 -1.983966947141E+00
   12     1 H     4.019590787088E+00 -3.771097890250E+00  2.019229132132E+00
   13     1 H     4.281045820209E+00 -3.322483734005E+00 -1.980292456200E+00
   14     1 H    -5.278553314221E+00  1.594962893384E+00  2.019596413225E+00
   15     1 H    -4.019567348808E+00 -3.778588190999E+00  1.983955427107E+00
   16     1 H     3.020139277042E+00  2.041152557023E+00 -2.019240852167E+00
   17     1 H     4.280663138279E+00 -1.405987350425E-01 -2.019731053626E+00
   18     1 H    -5.278830776015E+00 -1.595797103268E+00  1.980403856532E+00
   19     6 C    -2.406527656748E+00  5.779710439538E+00 -2.005645771688E+00
   20     6 C    -1.696123060961E+00  4.570982842508E+00 -2.015566681227E+00
   21     6 C     6.946476625839E-01 -6.302618380792E+00  1.983588186013E+00
   22     6 C    -6.967350002808E-01 -6.303109967035E+00  1.986160233671E+00
   23     6 C    -3.047244805138E-01  4.571032971035E+00 -2.020465815814E+00
   24     6 C     4.058198892175E-01  5.780229285891E+00 -2.013729315756E+00
   25     6 C     6.208931455801E+00 -4.268324696828E+00 -1.994377738138E+00
   26     6 C    -5.111153903989E+00  3.755052197172E+00  2.015554921192E+00
   27     6 C     5.110839758235E+00 -3.751606652062E+00  2.016412243745E+00
   28     6 C     5.806803104650E+00 -2.546702851087E+00  2.013840316087E+00
   29     6 C    -5.806754147131E+00  2.550048798719E+00  2.020453935779E+00
   30     6 C     5.802123370361E+00 -4.972028545421E+00  2.013717715722E+00
   31     6 C     6.209002293933E+00  8.053024316621E-01 -2.005645811688E+00
   32     6 C    -5.110732693318E+00 -3.756099415761E+00  1.984445428565E+00
   33     6 C     4.111291750861E+00  2.020688534538E+00 -2.016423923779E+00
   34     6 C     4.806929572910E+00  8.156173872251E-01 -2.013851956122E+00
   35     6 C    -5.806414319917E+00 -2.551150698215E+00  1.979546373979E+00
   36     6 C     4.802671164893E+00  3.240956111399E+00 -2.013729315756E+00
   37     8 O     6.296071890836E+00 -1.731476171501E+00 -2.002583842571E+00
   38     8 O    -4.647195526360E+00  4.585709981762E+00 -1.981395139483E+00
   39     8 O    -3.647355613101E+00 -6.318111603973E+00  1.986650115130E+00
   40     8 O     3.647398330505E+00 -6.317435658840E+00  1.997428187221E+00
   41     8 O     2.647781915745E+00  4.586101317944E+00 -1.981395179484E+00
   42     8 O    -7.295943103267E+00 -5.580083574190E-04  1.986650035130E+00

 *******************************************************************************
 STARTING BASIS SET HANDLING 
 *******************************************************************************

 Loading internal basis set: SOLDEF2MSVP         

 Please cite in your publication:
 L. Dona', J. G. Brandenburg and B. Civalleri, J. Chem. Phys., 151, 121101 (2019
 )                                                                              
                                                                                
                    

 *******************************************************************************
 LOCAL ATOMIC FUNCTIONS BASIS SET
 *******************************************************************************
   ATOM   X(AU)   Y(AU)   Z(AU)  N. TYPE  EXPONENT  S COEF   P COEF   D/F/G COEF
 *******************************************************************************
   1 B  -11.388   8.664  -3.770
                                  1 S  
                                         2.410E+03 1.755E-03 0.000E+00 0.000E+00
                                         3.619E+02 1.344E-02 0.000E+00 0.000E+00
                                         8.231E+01 6.637E-02 0.000E+00 0.000E+00
                                         2.311E+01 2.303E-01 0.000E+00 0.000E+00
                                         7.252E+00 5.150E-01 0.000E+00 0.000E+00
                                  2 S  
                                         2.367E+00 1.000E+00 0.000E+00 0.000E+00
                                  3 S  
                                         5.533E-01 1.000E+00 0.000E+00 0.000E+00
                                  4 S  
                                         1.716E-01 1.000E+00 0.000E+00 0.000E+00
                           5-     7 P  
                                         6.002E+00 0.000E+00-3.555E-02 0.000E+00
                                         1.240E+00 0.000E+00-1.983E-01 0.000E+00
                                         3.367E-01 0.000E+00-5.048E-01 0.000E+00
                           8-    10 P  
                                         1.256E-01 0.000E+00 1.000E+00 0.000E+00
                          11-    15 D  
                                         8.880E-01 0.000E+00 0.000E+00 1.000E+00
   2 B   -7.477  10.922  -3.770
   3 B   13.200  -1.014  -3.789
   4 B    3.698  10.923  -3.770
   5 B    7.610   8.664  -3.770
   6 B    7.610  13.182  -3.789
   7 H   -4.273   6.874  -3.810
                                 91 S  
                                         1.874E+01 1.968E-02 0.000E+00 0.000E+00
                                         2.826E+00 1.380E-01 0.000E+00 0.000E+00
                                         6.401E-01 4.783E-01 0.000E+00 0.000E+00
                                 92 S  
                                         1.756E-01 1.000E+00 0.000E+00 0.000E+00
   8 H    2.376 -10.143   3.743
   9 H   -2.386 -10.148   3.742
  10 H    0.489   6.872  -3.817
  11 H   -9.486   3.866  -3.749
  12 H    7.596  -7.126   3.816
  13 H    8.090  -6.279  -3.742
  14 H   -9.975   3.014   3.816
  15 H   -7.596  -7.140   3.749
  16 H    5.707   3.857  -3.816
  17 H    8.089  -0.266  -3.817
  18 H   -9.976  -3.016   3.742
  19 C   -4.548  10.922  -3.790
                                115 S  
                                         3.624E+03 1.634E-03 0.000E+00 0.000E+00
                                         5.440E+02 1.252E-02 0.000E+00 0.000E+00
                                         1.237E+02 6.211E-02 0.000E+00 0.000E+00
                                         3.476E+01 2.182E-01 0.000E+00 0.000E+00
                                         1.093E+01 4.980E-01 0.000E+00 0.000E+00
                                116 S  
                                         3.574E+00 1.000E+00 0.000E+00 0.000E+00
                                117 S  
                                         7.742E-01 1.000E+00 0.000E+00 0.000E+00
                                118 S  
                                         2.330E-01 1.000E+00 0.000E+00 0.000E+00
                         119-   121 P  
                                         9.443E+00 0.000E+00 3.790E-02 0.000E+00
                                         2.002E+00 0.000E+00 2.082E-01 0.000E+00
                                         5.463E-01 0.000E+00 5.047E-01 0.000E+00
                         122-   124 P  
                                         1.820E-01 0.000E+00 1.000E+00 0.000E+00
                         125-   129 D  
                                         8.880E-01 0.000E+00 0.000E+00 1.000E+00
  20 C   -3.205   8.638  -3.809
  21 C    1.313 -11.910   3.748
  22 C   -1.317 -11.911   3.753
  23 C   -0.576   8.638  -3.818
  24 C    0.767  10.923  -3.805
  25 C   11.733  -8.066  -3.769
  26 C   -9.659   7.096   3.809
  27 C    9.658  -7.090   3.810
  28 C   10.973  -4.813   3.806
  29 C  -10.973   4.819   3.818
  30 C   10.964  -9.396   3.805
  31 C   11.733   1.522  -3.790
  32 C   -9.658  -7.098   3.750
  33 C    7.769   3.819  -3.810
  34 C    9.084   1.541  -3.806
  35 C  -10.973  -4.821   3.741
  36 C    9.076   6.125  -3.805
  37 O   11.898  -3.272  -3.784
                                385 S  
                                         6.773E+03 1.727E-03 0.000E+00 0.000E+00
                                         1.017E+03 1.325E-02 0.000E+00 0.000E+00
                                         2.313E+02 6.603E-02 0.000E+00 0.000E+00
                                         6.501E+01 2.353E-01 0.000E+00 0.000E+00
                                         2.050E+01 5.498E-01 0.000E+00 0.000E+00
                                386 S  
                                         6.716E+00 1.000E+00 0.000E+00 0.000E+00
                                387 S  
                                         1.147E+00 1.000E+00 0.000E+00 0.000E+00
                                388 S  
                                         3.342E-01 1.000E+00 0.000E+00 0.000E+00
                         389-   391 P  
                                         1.769E+01 0.000E+00 4.359E-02 0.000E+00
                                         3.854E+00 0.000E+00 2.318E-01 0.000E+00
                                         1.047E+00 0.000E+00 5.146E-01 0.000E+00
                         392-   394 P  
                                         2.759E-01 0.000E+00 1.000E+00 0.000E+00
                         395-   399 D  
                                         8.000E-01 0.000E+00 0.000E+00 1.000E+00
  38 O   -8.782   8.666  -3.744
  39 O   -6.893 -11.940   3.754
  40 O    6.893 -11.938   3.775
  41 O    5.004   8.666  -3.744
  42 O  -13.787  -0.001   3.754

 *******************************************************************************
 FINISHED BASIS SET HANDLING 
 *******************************************************************************

 INFORMATION **** SET_MPP **** PCRYSTAL CALCULATION
 INFORMATION **** READM2 **** NEW DEFAULT: FOCK/KS MATRIX MIXING SET TO 30 %
 INFORMATION **** READM2 **** NEW DEFAULT: FULL DIRECT SCF MODE
 INFORMATION **** READM2 **** NEW DEFAULT: COULOMB BIPOLAR BUFFER SET TO 32 Mb
 INFORMATION **** READM2 **** NEW DEFAULT: EXCHANGE BIPOLAR BUFFER SET TO 32 Mb

 *******************************************************************************
 NEW DEFAULT: DFT INTEGRATION GRID INCREASED TO XLGRID
 NEW DEFAULT: DIIS ACCELERATOR ACTIVE
 USE KEYWORD NODIIS TO TURN IT OFF
 *******************************************************************************

 WARNING **** RDDFTP **** HSEsol-HJS ACTIVE
 RANGE SEPARATION - OMEGA:   0.110000000000000     
 WARNING **** RDDFTP **** HSEsol-3c has to be combined with sol-def2-mSVP basis set
 *******************************************************************************
 N. OF ATOMS PER CELL        42  COULOMB OVERLAP TOL         (T1) 10**   -6
 NUMBER OF SHELLS           234  COULOMB PENETRATION TOL     (T2) 10**   -6
 NUMBER OF AO               474  EXCHANGE OVERLAP TOL        (T3) 10**   -6
 N. OF ELECTRONS PER CELL   198  EXCHANGE PSEUDO OVP (F(G))  (T4) 10**   -6
 CORE ELECTRONS PER CELL     60  EXCHANGE PSEUDO OVP (P(G))  (T5) 10**  -12
 N. OF SYMMETRY OPERATORS     1  POLE ORDER IN MONO ZONE                  4
 *******************************************************************************
 TYPE OF CALCULATION :  RESTRICTED CLOSED SHELL
 KOHN-SHAM HAMILTONIAN

 (EXCHANGE)[CORRELATION] FUNCTIONAL:(HSEsol GGA)[PBEsol]

 RANGE-SEPARATED HYBRID FUNCTIONAL 
 OMEGA (SHORT-RANGE)[LONG-RANGE]:(    0.1100)[    0.0000]

 HYBRID EXCHANGE - PERCENTAGE OF FOCK EXCHANGE    25.0000

 CAPPA:IS1  2;IS2  2;IS3  8; K PTS MONK NET  20; SYMMOPS:K SPACE   2;G SPACE   1

 *******************************************************************************
 MAX NUMBER OF SCF CYCLES      50  CONVERGENCE ON DELTAP        10**-16
 WEIGHT OF F(I) IN F(I+1)      30% CONVERGENCE ON ENERGY        10**- 6
 SHRINK. FACT.(MONKH.)    2  2  8  NUMBER OF K POINTS IN THE IBZ     20
 SHRINKING FACTOR(GILAT NET)    8  NUMBER OF K POINTS(GILAT NET)   1028
 *******************************************************************************
 *** K POINTS COORDINATES (OBLIQUE COORDINATES IN UNITS OF IS =  2)
   1-R(  0  0  0)   2-R(  1  0  0)   3-R(  0  1  0)   4-R(  1  1  0)
   5-C(  0  0  1)   6-C(  1  0  1)   7-C(  0  1  1)   8-C(  1  1  1)
   9-C(  0  0  2)  10-C(  1  0  2)  11-C(  0  1  2)  12-C(  1  1  2)
  13-C(  0  0  3)  14-C(  1  0  3)  15-C(  0  1  3)  16-C(  1  1  3)
  17-R(  0  0  4)  18-R(  1  0  4)  19-R(  0  1  4)  20-R(  1  1  4)

 DIRECT LATTICE VECTORS COMPON. (A.U.)     RECIP. LATTICE VECTORS COMPON. (A.U.) 
        X            Y            Z              X            Y            Z
   24.5879030  -14.1935232    0.0000000      0.2555397    0.0000000   -0.0638764
    0.0000000   28.3910867    0.0000000      0.1277517    0.2213084   -0.1277654
    1.8894795    3.2731923    7.5589270      0.0000000    0.0000000    0.8312271

 DISK SPACE FOR EIGENVECTORS (FTN 10)     7189632 REALS

 SYMMETRY ADAPTION OF THE BLOCH FUNCTIONS DISABLED
 TTTTTTTTTTTTTTTTTTTTTTTTTTTTTT gordsh1     TELAPSE        0.04 TCPU        0.04

 MATRIX SIZE: P(G)  327242, F(G)   68563, P(G) IRR  165118, F(G) IRR   69259
 MAX G-VECTOR INDEX FOR 1- AND 2-ELECTRON INTEGRALS  73

 TTTTTTTTTTTTTTTTTTTTTTTTTTTTTT INPUT       TELAPSE        0.31 TCPU        0.31

 NEIGHBORS OF THE NON-EQUIVALENT ATOMS

 N = NUMBER OF NEIGHBORS AT DISTANCE R
    ATOM  N     R/ANG      R/AU   NEIGHBORS (ATOM LABELS AND CELL INDICES)
   1 B    1     1.3791     2.6061   37 O   -1 0 0
   1 B    1     1.3793     2.6065   38 O    0 0 0
   1 B    1     1.5503     2.9297   25 C   -1 0 0
   1 B    1     2.3895     4.5155    3 B   -1 0 0
   1 B    1     2.3898     4.5160    2 B    0 0 0
   1 B    1     2.5632     4.8437   26 C    0 0-1

   2 B    1     1.3793     2.6065   39 O    0 1-1
   2 B    1     1.3793     2.6065   38 O    0 0 0
   2 B    1     1.5504     2.9298   19 C    0 0 0
   2 B    1     2.3895     4.5156    3 B   -1 0 0
   2 B    1     2.3898     4.5160    1 B    0 0 0
   2 B    1     2.5634     4.8440   22 C    0 1-1

   3 B    1     1.3791     2.6061   37 O    0 0 0
   3 B    1     1.3793     2.6064   39 O    1 1-1
   3 B    1     1.5502     2.9294   31 C    0 0 0
   3 B    1     2.3895     4.5155    1 B    1 0 0
   3 B    1     2.3895     4.5156    2 B    1 0 0
   3 B    1     2.5629     4.8433   32 C    1 1-1

   4 B    1     1.3795     2.6068   40 O    0 1-1
   4 B    1     1.3795     2.6070   41 O    0 0 0
   4 B    1     1.5513     2.9316   24 C    0 0 0
   4 B    1     2.3905     4.5174    6 B    0 0 0
   4 B    1     2.3905     4.5175    5 B    0 0 0
   4 B    1     2.5648     4.8468   23 C    0 0 0

   5 B    1     1.3795     2.6069   41 O    0 0 0
   5 B    1     1.3797     2.6072   42 O    1 1-1
   5 B    1     1.5516     2.9322   36 C    0 0 0
   5 B    1     2.3905     4.5175    4 B    0 0 0
   5 B    1     2.3911     4.5185    6 B    0 0 0
   5 B    1     2.5651     4.8473   35 C    1 1-1

   6 B    1     1.3795     2.6068   40 O    0 1-1
   6 B    1     1.3796     2.6071   42 O    1 1-1
   6 B    1     1.5516     2.9322   30 C    0 1-1
   6 B    1     2.3905     4.5174    4 B    0 0 0
   6 B    1     2.3911     4.5185    5 B    0 0 0
   6 B    1     2.5651     4.8473   29 C    1 1-1

   7 H    1     1.0913     2.0623   20 C    0 0 0
   7 H    1     2.1472     4.0576   19 C    0 0 0
   7 H    1     2.1680     4.0969   23 C    0 0 0
   7 H    1     2.5202     4.7625   10 H    0 0 0
   7 H    1     2.5676     4.8520   38 O    0 0 0
   7 H    1     2.7321     5.1630    2 B    0 0 0

   8 H    1     1.0914     2.0625   21 C    0 0 0
   8 H    1     2.1493     4.0616   24 C    0-1 1
   8 H    1     2.1666     4.0942   22 C    0 0 0
   8 H    1     2.5198     4.7618    9 H    0 0 0
   8 H    1     2.5720     4.8604   40 O    0 0 0
   8 H    1     2.7362     5.1707    4 B    0-1 1

   9 H    1     1.0914     2.0624   22 C    0 0 0
   9 H    1     2.1471     4.0575   19 C    0-1 1
   9 H    1     2.1680     4.0970   21 C    0 0 0
   9 H    1     2.5198     4.7618    8 H    0 0 0
   9 H    1     2.5665     4.8500   39 O    0 0 0
   9 H    1     2.7315     5.1618    2 B    0-1 1

  10 H    1     1.0915     2.0626   23 C    0 0 0
  10 H    1     2.1490     4.0610   24 C    0 0 0
  10 H    1     2.1669     4.0948   20 C    0 0 0
  10 H    1     2.5202     4.7625    7 H    0 0 0
  10 H    1     2.5712     4.8588   41 O    0 0 0
  10 H    1     2.7351     5.1686    4 B    0 0 0

  11 H    1     1.0913     2.0623   26 C    0 0-1
  11 H    1     2.1469     4.0571   25 C   -1 0 0
  11 H    1     2.1680     4.0968   29 C    0 0-1
  11 H    1     2.5198     4.7617   14 H    0 0-1
  11 H    1     2.5670     4.8510   38 O    0 0 0
  11 H    1     2.7310     5.1609    1 B    0 0 0

  12 H    1     1.0914     2.0625   27 C    0 0 0
  12 H    1     2.1493     4.0617   30 C    0 0 0
  12 H    1     2.1664     4.0939   28 C    0 0 0
  12 H    1     2.5192     4.7606   13 H    0 0 1
  12 H    1     2.5735     4.8632   40 O    0 0 0
  12 H    1     2.7371     5.1723    6 B    0-1 1

  13 H    1     1.0914     2.0624   28 C    0 0-1
  13 H    1     2.1475     4.0581   25 C    0 0 0
  13 H    1     2.1679     4.0967   27 C    0 0-1
  13 H    1     2.5192     4.7606   12 H    0 0-1
  13 H    1     2.5675     4.8519   37 O    0 0 0
  13 H    1     2.7328     5.1643    1 B    1 0 0

  14 H    1     1.0914     2.0625   29 C    0 0 0
  14 H    1     2.1491     4.0612   30 C   -1 0 0
  14 H    1     2.1666     4.0942   26 C    0 0 0
  14 H    1     2.5198     4.7617   11 H    0 0 1
  14 H    1     2.5723     4.8609   42 O    0 0 0
  14 H    1     2.7355     5.1693    6 B   -1-1 1

  15 H    1     1.0914     2.0624   32 C    0 0 0
  15 H    1     2.1475     4.0582   31 C   -1-1 1
  15 H    1     2.1678     4.0966   35 C    0 0 0
  15 H    1     2.5200     4.7621   18 H    0 0 0
  15 H    1     2.5667     4.8503   39 O    0 0 0
  15 H    1     2.7315     5.1618    3 B   -1-1 1

  16 H    1     1.0913     2.0623   33 C    0 0 0
  16 H    1     2.1487     4.0605   36 C    0 0 0
  16 H    1     2.1667     4.0945   34 C    0 0 0
  16 H    1     2.5197     4.7616   17 H    0 0 0
  16 H    1     2.5723     4.8610   41 O    0 0 0
  16 H    1     2.7359     5.1701    5 B    0 0 0

  17 H    1     1.0915     2.0626   34 C    0 0 0
  17 H    1     2.1479     4.0589   31 C    0 0 0
  17 H    1     2.1679     4.0968   33 C    0 0 0
  17 H    1     2.5197     4.7616   16 H    0 0 0
  17 H    1     2.5677     4.8522   37 O    0 0 0
  17 H    1     2.7331     5.1648    3 B    0 0 0

  18 H    1     1.0914     2.0624   35 C    0 0 0
  18 H    1     2.1486     4.0602   36 C   -1-1 1
  18 H    1     2.1668     4.0947   32 C    0 0 0
  18 H    1     2.5200     4.7621   15 H    0 0 0
  18 H    1     2.5717     4.8598   42 O    0 0 0
  18 H    1     2.7349     5.1682    5 B   -1-1 1

  19 C    1     1.4020     2.6495   22 C    0 1-1
  19 C    1     1.4021     2.6495   20 C    0 0 0
  19 C    1     1.5504     2.9298    2 B    0 0 0
  19 C    1     2.1471     4.0575    9 H    0 1-1
  19 C    1     2.1472     4.0576    7 H    0 0 0
  19 C    1     2.4246     4.5817   21 C    0 1-1

  20 C    1     1.0913     2.0623    7 H    0 0 0
  20 C    1     1.3914     2.6294   23 C    0 0 0
  20 C    1     1.4021     2.6495   19 C    0 0 0
  20 C    1     2.1669     4.0948   10 H    0 0 0
  20 C    1     2.4177     4.5688   22 C    0 1-1
  20 C    1     2.4250     4.5825   24 C    0 0 0

  21 C    1     1.0914     2.0625    8 H    0 0 0
  21 C    1     1.3914     2.6293   22 C    0 0 0
  21 C    1     1.4026     2.6505   24 C    0-1 1
  21 C    1     2.1680     4.0970    9 H    0 0 0
  21 C    1     2.4182     4.5697   23 C    0-1 1
  21 C    1     2.4246     4.5817   19 C    0-1 1

  22 C    1     1.0914     2.0624    9 H    0 0 0
  22 C    1     1.3914     2.6293   21 C    0 0 0
  22 C    1     1.4020     2.6495   19 C    0-1 1
  22 C    1     2.1666     4.0942    8 H    0 0 0
  22 C    1     2.4177     4.5688   20 C    0-1 1
  22 C    1     2.4250     4.5826   24 C    0-1 1

  23 C    1     1.0915     2.0626   10 H    0 0 0
  23 C    1     1.3914     2.6294   20 C    0 0 0
  23 C    1     1.4025     2.6504   24 C    0 0 0
  23 C    1     2.1680     4.0969    7 H    0 0 0
  23 C    1     2.4182     4.5697   21 C    0 1-1
  23 C    1     2.4246     4.5818   19 C    0 0 0

  24 C    1     1.4025     2.6504   23 C    0 0 0
  24 C    1     1.4026     2.6505   21 C    0 1-1
  24 C    1     1.5513     2.9316    4 B    0 0 0
  24 C    1     2.1490     4.0610   10 H    0 0 0
  24 C    1     2.1493     4.0616    8 H    0 1-1
  24 C    1     2.4250     4.5825   20 C    0 0 0

  25 C    1     1.4020     2.6494   26 C    1 0-1
  25 C    1     1.4021     2.6495   28 C    0 0-1
  25 C    1     1.5503     2.9297    1 B    1 0 0
  25 C    1     2.1469     4.0571   11 H    1 0 0
  25 C    1     2.1475     4.0581   13 H    0 0 0
  25 C    1     2.4246     4.5818   27 C    0 0-1

  26 C    1     1.0913     2.0623   11 H    0 0 1
  26 C    1     1.3914     2.6293   29 C    0 0 0
  26 C    1     1.4020     2.6494   25 C   -1 0 1
  26 C    1     2.1666     4.0942   14 H    0 0 0
  26 C    1     2.4175     4.5684   28 C   -1 0 0
  26 C    1     2.4251     4.5828   30 C   -1 0 0

  27 C    1     1.0914     2.0625   12 H    0 0 0
  27 C    1     1.3915     2.6295   28 C    0 0 0
  27 C    1     1.4026     2.6505   30 C    0 0 0
  27 C    1     2.1679     4.0967   13 H    0 0 1
  27 C    1     2.4179     4.5691   29 C    1 0 0
  27 C    1     2.4246     4.5818   25 C    0 0 1

  28 C    1     1.0914     2.0624   13 H    0 0 1
  28 C    1     1.3915     2.6295   27 C    0 0 0
  28 C    1     1.4021     2.6495   25 C    0 0 1
  28 C    1     2.1664     4.0939   12 H    0 0 0
  28 C    1     2.4175     4.5684   26 C    1 0 0
  28 C    1     2.4253     4.5832   30 C    0 0 0

  29 C    1     1.0914     2.0625   14 H    0 0 0
  29 C    1     1.3914     2.6293   26 C    0 0 0
  29 C    1     1.4025     2.6504   30 C   -1 0 0
  29 C    1     2.1680     4.0968   11 H    0 0 1
  29 C    1     2.4179     4.5691   27 C   -1 0 0
  29 C    1     2.4247     4.5819   25 C   -1 0 1

  30 C    1     1.4025     2.6504   29 C    1 0 0
  30 C    1     1.4026     2.6505   27 C    0 0 0
  30 C    1     1.5516     2.9322    6 B    0-1 1
  30 C    1     2.1491     4.0612   14 H    1 0 0
  30 C    1     2.1493     4.0617   12 H    0 0 0
  30 C    1     2.4251     4.5828   26 C    1 0 0

  31 C    1     1.4021     2.6496   32 C    1 1-1
  31 C    1     1.4021     2.6497   34 C    0 0 0
  31 C    1     1.5502     2.9294    3 B    0 0 0
  31 C    1     2.1475     4.0582   15 H    1 1-1
  31 C    1     2.1479     4.0589   17 H    0 0 0
  31 C    1     2.4244     4.5814   33 C    0 0 0

  32 C    1     1.0914     2.0624   15 H    0 0 0
  32 C    1     1.3914     2.6293   35 C    0 0 0
  32 C    1     1.4021     2.6496   31 C   -1-1 1
  32 C    1     2.1668     4.0947   18 H    0 0 0
  32 C    1     2.4179     4.5692   34 C   -1-1 1
  32 C    1     2.4251     4.5827   36 C   -1-1 1

  33 C    1     1.0913     2.0623   16 H    0 0 0
  33 C    1     1.3914     2.6294   34 C    0 0 0
  33 C    1     1.4025     2.6504   36 C    0 0 0
  33 C    1     2.1679     4.0968   17 H    0 0 0
  33 C    1     2.4178     4.5690   35 C    1 1-1
  33 C    1     2.4244     4.5814   31 C    0 0 0

  34 C    1     1.0915     2.0626   17 H    0 0 0
  34 C    1     1.3914     2.6294   33 C    0 0 0
  34 C    1     1.4021     2.6497   31 C    0 0 0
  34 C    1     2.1667     4.0945   16 H    0 0 0
  34 C    1     2.4179     4.5692   32 C    1 1-1
  34 C    1     2.4253     4.5832   36 C    0 0 0

  35 C    1     1.0914     2.0624   18 H    0 0 0
  35 C    1     1.3914     2.6293   32 C    0 0 0
  35 C    1     1.4025     2.6503   36 C   -1-1 1
  35 C    1     2.1678     4.0966   15 H    0 0 0
  35 C    1     2.4178     4.5690   33 C   -1-1 1
  35 C    1     2.4245     4.5817   31 C   -1-1 1

  36 C    1     1.4025     2.6503   35 C    1 1-1
  36 C    1     1.4025     2.6504   33 C    0 0 0
  36 C    1     1.5516     2.9322    5 B    0 0 0
  36 C    1     2.1486     4.0602   18 H    1 1-1
  36 C    1     2.1487     4.0605   16 H    0 0 0
  36 C    1     2.4251     4.5827   32 C    1 1-1

  37 O    1     1.3791     2.6061    1 B    1 0 0
  37 O    1     1.3791     2.6061    3 B    0 0 0
  37 O    1     2.3880     4.5126   38 O    1 0 0
  37 O    1     2.3882     4.5130   39 O    1 1-1
  37 O    1     2.5383     4.7966   31 C    0 0 0
  37 O    1     2.5384     4.7968   25 C    0 0 0

  38 O    1     1.3793     2.6065    1 B    0 0 0
  38 O    1     1.3793     2.6065    2 B    0 0 0
  38 O    1     2.3880     4.5126   37 O   -1 0 0
  38 O    1     2.3882     4.5131   39 O    0 1-1
  38 O    1     2.5391     4.7981   19 C    0 0 0
  38 O    1     2.5395     4.7990   25 C   -1 0 0

  39 O    1     1.3793     2.6064    3 B   -1-1 1
  39 O    1     1.3793     2.6065    2 B    0-1 1
  39 O    1     2.3882     4.5130   37 O   -1-1 1
  39 O    1     2.3882     4.5131   38 O    0-1 1
  39 O    1     2.5390     4.7980   19 C    0-1 1
  39 O    1     2.5391     4.7982   31 C   -1-1 1

  40 O    1     1.3795     2.6068    6 B    0-1 1
  40 O    1     1.3795     2.6068    4 B    0-1 1
  40 O    1     2.3880     4.5126   42 O    1 0 0
  40 O    1     2.3884     4.5134   41 O    0-1 1
  40 O    1     2.5400     4.7998   24 C    0-1 1
  40 O    1     2.5403     4.8005   30 C    0 0 0

  41 O    1     1.3795     2.6069    5 B    0 0 0
  41 O    1     1.3795     2.6070    4 B    0 0 0
  41 O    1     2.3881     4.5128   42 O    1 1-1
  41 O    1     2.3884     4.5134   40 O    0 1-1
  41 O    1     2.5404     4.8006   24 C    0 0 0
  41 O    1     2.5405     4.8008   36 C    0 0 0

  42 O    1     1.3796     2.6071    6 B   -1-1 1
  42 O    1     1.3797     2.6072    5 B   -1-1 1
  42 O    1     2.3880     4.5126   40 O   -1 0 0
  42 O    1     2.3881     4.5128   41 O   -1-1 1
  42 O    1     2.5409     4.8016   36 C   -1-1 1
  42 O    1     2.5410     4.8019   30 C   -1 0 0


 SYMMETRY ALLOWED INTERNAL DEGREE(S) OF FREEDOM: 123
 TTTTTTTTTTTTTTTTTTTTTTTTTTTTTT SYMM        TELAPSE        0.31 TCPU        0.31
 TTTTTTTTTTTTTTTTTTTTTTTTTTTTTT INT_SCREEN  TELAPSE        0.34 TCPU        0.34

 DFT PARAMETERS

     ATOM       ELECTRONS   NET CHARGE   R(ANGSTROM)
   1   5  B       5.0000      0.0000     0.89000000
   7   1  H       1.0000      0.0000     1.11000000
  19   6  C       6.0000      0.0000     0.77000000
  37   8  O       8.0000      0.0000     0.74000000

 SIZE OF GRID=    1310060
 TTTTTTTTTTTTTTTTTTTTTTTTTTTTTT MAKE_GRID2  TELAPSE        9.60 TCPU        9.59
 BECKE WEIGHT FUNCTION
 RADSAFE =     2.00
 TOLERANCES - DENSITY:10**- 6; POTENTIAL:10**- 9; GRID WGT:10**-14

 RADIAL INTEGRATION  - INTERVALS (POINTS,UPPER LIMIT):            1( 75,  4.0*R)

 ANGULAR INTEGRATION - INTERVALS (ACCURACY LEVEL [N. POINTS] UPPER LIMIT):
  1(  4[  86]   0.2)  2(  8[ 194]   0.5)  3( 12[ 350]   0.9)  4( 16[ 974]   3.5)
  5( 12[ 350]9999.0)
 TTTTTTTTTTTTTTTTTTTTTTTTTTTTTT INT_CALC    TELAPSE        9.69 TCPU        9.68
 EEEEEEEEEE INT_CALC TERMINATION  DATE 19 02 2026 TIME 19:05:47.5

 *******************************************************************************
 cof-1_z40_L020_incl                                                             
 CRYSTAL - SCF - TYPE OF CALCULATION :  RESTRICTED CLOSED SHELL
 *******************************************************************************

 CAPPA:IS1  2;IS2  2;IS3  8; K PTS MONK NET  20; SYMMOPS:K SPACE   2;G SPACE   1

 TTTTTTTTTTTTTTTTTTTTTTTTTTTTTT SDIK        TELAPSE       10.38 TCPU       17.74

 AAAAAAAAAAAAAAAAAAAAAAAAAAAAAAAAAAAAAAAAAAAAAAAAAAAAAAAAAAAAAAAAAAAAAAAAAAAAAAA
         ATOMIC WAVEFUNCTION(S)


 NUCLEAR CHARGE  5.0  SYMMETRY SPECIES            S    P
 N. ELECTRONS    5.0  NUMBER OF PRIMITIVE GTOS    8    4
                      NUMBER OF CONTRACTED GTOS   4    2
                      NUMBER OF CLOSED SHELLS     2    0
                      OPEN SHELL OCCUPATION       0    1

  ZNUC  SCFIT    TOTAL HF ENERGY   KINETIC ENERGY   VIRIAL THEOREM ACCURACY
   5.0    11    -2.451164084E+01  2.462155050E+01 -1.995536038E+00  1.5E-06

 NUCLEAR CHARGE  1.0  SYMMETRY SPECIES            S
 N. ELECTRONS    1.0  NUMBER OF PRIMITIVE GTOS    4
                      NUMBER OF CONTRACTED GTOS   2
                      NUMBER OF CLOSED SHELLS     0
                      OPEN SHELL OCCUPATION       1

  ZNUC  SCFIT    TOTAL HF ENERGY   KINETIC ENERGY   VIRIAL THEOREM ACCURACY
   1.0     1    -4.977266687E-01  5.190767460E-01 -1.958869132E+00  0.0E+00

 NUCLEAR CHARGE  6.0  SYMMETRY SPECIES            S    P
 N. ELECTRONS    6.0  NUMBER OF PRIMITIVE GTOS    8    4
                      NUMBER OF CONTRACTED GTOS   4    2
                      NUMBER OF CLOSED SHELLS     2    0
                      OPEN SHELL OCCUPATION       0    2

  ZNUC  SCFIT    TOTAL HF ENERGY   KINETIC ENERGY   VIRIAL THEOREM ACCURACY
   6.0     9    -3.766704647E+01  3.775180683E+01 -1.997754800E+00  1.1E-06

 NUCLEAR CHARGE  8.0  SYMMETRY SPECIES            S    P
 N. ELECTRONS    8.0  NUMBER OF PRIMITIVE GTOS    8    4
                      NUMBER OF CONTRACTED GTOS   4    2
                      NUMBER OF CLOSED SHELLS     2    0
                      OPEN SHELL OCCUPATION       0    4

  ZNUC  SCFIT    TOTAL HF ENERGY   KINETIC ENERGY   VIRIAL THEOREM ACCURACY
   8.0    12    -7.477373220E+01  7.477365593E+01 -2.000001020E+00  3.8E-06

 AAAAAAAAAAAAAAAAAAAAAAAAAAAAAAAAAAAAAAAAAAAAAAAAAAAAAAAAAAAAAAAAAAAAAAAAAAAAAAA

 CHARGE NORMALIZATION FACTOR   1.00000000
 TOTAL ATOMIC CHARGES:
   5.0000000   5.0000000   5.0000000   5.0000000   5.0000000   5.0000000
   1.0000000   1.0000000   1.0000000   1.0000000   1.0000000   1.0000000
   1.0000000   1.0000000   1.0000000   1.0000000   1.0000000   1.0000000
   6.0000000   6.0000000   6.0000000   6.0000000   6.0000000   6.0000000
   6.0000000   6.0000000   6.0000000   6.0000000   6.0000000   6.0000000
   6.0000000   6.0000000   6.0000000   6.0000000   6.0000000   6.0000000
   8.0000000   8.0000000   8.0000000   8.0000000   8.0000000   8.0000000
 TTTTTTTTTTTTTTTTTTTTTTTTTTTTTT MOQGAD      TELAPSE       10.42 TCPU       19.25
 TTTTTTTTTTTTTTTTTTTTTTTTTTTTTT SHELLXN     TELAPSE       17.91 TCPU      258.50
 TTTTTTTTTTTTTTTTTTTTTTTTTTTTTT MONMO3      TELAPSE       18.06 TCPU      263.51
 NUMERICALLY INTEGRATED DENSITY    197.9999811934
 TTTTTTTTTTTTTTTTTTTTTTTTTTTTTT NUMDFT      TELAPSE       18.63 TCPU      281.57
 CYC   0 ETOT(AU) -1.295957206841E+03 DETOT -1.30E+03 tst  0.00E+00 PX  1.00E+00
 TTTTTTTTTTTTTTTTTTTTTTTTTTTTTT DIIS        TELAPSE       18.66 TCPU      282.64
 TTTTTTTTTTTTTTTTTTTTTTTTTTTTTT FDIK        TELAPSE       19.15 TCPU      298.27
 INSULATING STATE
 TOP OF VALENCE BANDS -    BAND     99; K    1; EIG -3.1103779E-01 AU
 BOTTOM OF VIRTUAL BANDS - BAND    100; K    1; EIG -1.5742439E-01 AU
 DIRECT ENERGY BAND GAP:   4.1800 eV
 TTTTTTTTTTTTTTTTTTTTTTTTTTTTTT PDIG        TELAPSE       19.44 TCPU      304.41
 CHARGE NORMALIZATION FACTOR   1.00000000
 TOTAL ATOMIC CHARGES:
   4.1551310   4.1583047   4.1586778   4.1582277   4.1579848   4.1547976
   0.7854009   0.7855215   0.7852968   0.7854062   0.7854875   0.7856668
   0.7854787   0.7856327   0.7852886   0.7854635   0.7853530   0.7855155
   6.0449904   6.2663580   6.2664009   6.2655103   6.2654475   6.0443161
   6.0454810   6.2658877   6.2659694   6.2657801   6.2659784   6.0442706
   6.0453733   6.2652713   6.2658205   6.2659832   6.2666594   6.0438485
   8.6954072   8.6955614   8.6943612   8.6958725   8.6947621   8.6960540
 TTTTTTTTTTTTTTTTTTTTTTTTTTTTTT MOQGAD      TELAPSE       19.49 TCPU      304.46
 TTTTTTTTTTTTTTTTTTTTTTTTTTTTTT SHELLXN     TELAPSE       27.36 TCPU      555.26
 TTTTTTTTTTTTTTTTTTTTTTTTTTTTTT MONMO3      TELAPSE       27.51 TCPU      560.25
 NUMERICALLY INTEGRATED DENSITY    197.9999950845
 TTTTTTTTTTTTTTTTTTTTTTTTTTTTTT NUMDFT      TELAPSE       28.09 TCPU      578.55
 CYC   1 ETOT(AU) -1.288815904180E+03 DETOT  7.14E+00 tst  0.00E+00 PX  1.00E+00
 TTTTTTTTTTTTTTTTTTTTTTTTTTTTTT DIIS        TELAPSE       28.13 TCPU      579.99
 DIIS TEST: 0.11034E+01 AT SCF   CYCLE   1 - MIX   30 %
 TTTTTTTTTTTTTTTTTTTTTTTTTTTTTT FDIK        TELAPSE       28.62 TCPU      595.65
 INSULATING STATE
 TOP OF VALENCE BANDS -    BAND     99; K    1; EIG -2.2059695E-01 AU
 BOTTOM OF VIRTUAL BANDS - BAND    100; K    1; EIG -7.9340265E-02 AU
 DIRECT ENERGY BAND GAP:   3.8438 eV
 TTTTTTTTTTTTTTTTTTTTTTTTTTTTTT PDIG        TELAPSE       28.90 TCPU      601.79
 CHARGE NORMALIZATION FACTOR   1.00000000
 TOTAL ATOMIC CHARGES:
   4.6995637   4.7046247   4.7038712   4.7040141   4.7043288   4.6984583
   0.9133599   0.9134825   0.9168181   0.9169223   0.9125341   0.9124296
   0.9124646   0.9123716   0.9167928   0.9169392   0.9132611   0.9132955
   5.8649333   6.1203005   6.1206367   6.1383741   6.1400989   5.8675215
   5.8702662   6.1314700   6.1332593   6.1324672   6.1326432   5.8732929
   5.8647047   6.1384863   6.1402144   6.1205258   6.1206295   5.8679255
   8.3360284   8.3362479   8.3462790   8.3357100   8.3465937   8.3358593
 TTTTTTTTTTTTTTTTTTTTTTTTTTTTTT MOQGAD      TELAPSE       28.95 TCPU      601.84
 TTTTTTTTTTTTTTTTTTTTTTTTTTTTTT SHELLXN     TELAPSE       36.84 TCPU      853.37
 TTTTTTTTTTTTTTTTTTTTTTTTTTTTTT MONMO3      TELAPSE       37.00 TCPU      858.30
 NUMERICALLY INTEGRATED DENSITY    197.9999958011
 TTTTTTTTTTTTTTTTTTTTTTTTTTTTTT NUMDFT      TELAPSE       37.57 TCPU      876.59
 CYC   2 ETOT(AU) -1.289010853802E+03 DETOT -1.95E-01 tst  4.27E-03 PX  1.58E-01
 TTTTTTTTTTTTTTTTTTTTTTTTTTTTTT DIIS        TELAPSE       37.62 TCPU      878.10
 DIIS TEST: 0.46332E+00 AT SCF   CYCLE   2 - DIIS ACTIVE - HISTORY:     2 CYCLES
 TTTTTTTTTTTTTTTTTTTTTTTTTTTTTT FDIK        TELAPSE       38.10 TCPU      893.69
 INSULATING STATE
 TOP OF VALENCE BANDS -    BAND     99; K    1; EIG -2.3381226E-01 AU
 BOTTOM OF VIRTUAL BANDS - BAND    100; K    1; EIG -7.5079579E-02 AU
 DIRECT ENERGY BAND GAP:   4.3193 eV
 TTTTTTTTTTTTTTTTTTTTTTTTTTTTTT PDIG        TELAPSE       38.39 TCPU      899.82
 CHARGE NORMALIZATION FACTOR   1.00000000
 TOTAL ATOMIC CHARGES:
   4.4933532   4.4964086   4.4961140   4.4955557   4.4955654   4.4922275
   0.8890901   0.8892549   0.8918292   0.8919726   0.8890554   0.8893187
   0.8891736   0.8891367   0.8917992   0.8920296   0.8890309   0.8891161
   5.8898764   6.1609384   6.1609616   6.1602740   6.1591352   5.8890090
   5.8965158   6.1594656   6.1589673   6.1594010   6.1591856   5.8960912
   5.8904841   6.1603862   6.1592056   6.1608561   6.1610311   5.8885785
   8.5140903   8.5142287   8.5111524   8.5144811   8.5109590   8.5146943
 TTTTTTTTTTTTTTTTTTTTTTTTTTTTTT MOQGAD      TELAPSE       38.44 TCPU      899.87
 TTTTTTTTTTTTTTTTTTTTTTTTTTTTTT SHELLXN     TELAPSE       46.33 TCPU     1151.42
 TTTTTTTTTTTTTTTTTTTTTTTTTTTTTT MONMO3      TELAPSE       46.49 TCPU     1156.46
 NUMERICALLY INTEGRATED DENSITY    197.9999960987
 TTTTTTTTTTTTTTTTTTTTTTTTTTTTTT NUMDFT      TELAPSE       47.06 TCPU     1174.91
 CYC   3 ETOT(AU) -1.289107522040E+03 DETOT -9.67E-02 tst  7.24E-04 PX  6.29E-02
 TTTTTTTTTTTTTTTTTTTTTTTTTTTTTT DIIS        TELAPSE       47.12 TCPU     1176.71
 DIIS TEST: 0.11955E-01 AT SCF   CYCLE   3 - DIIS ACTIVE - HISTORY:     3 CYCLES
 TTTTTTTTTTTTTTTTTTTTTTTTTTTTTT FDIK        TELAPSE       47.61 TCPU     1192.52
 INSULATING STATE
 TOP OF VALENCE BANDS -    BAND     99; K    1; EIG -2.4495262E-01 AU
 BOTTOM OF VIRTUAL BANDS - BAND    100; K    1; EIG -8.4128380E-02 AU
 DIRECT ENERGY BAND GAP:   4.3763 eV
 TTTTTTTTTTTTTTTTTTTTTTTTTTTTTT PDIG        TELAPSE       47.90 TCPU     1198.66
 CHARGE NORMALIZATION FACTOR   1.00000000
 TOTAL ATOMIC CHARGES:
   4.5001576   4.5013000   4.5008195   4.5009044   4.5010390   4.4995556
   0.8726484   0.8728591   0.8744650   0.8744175   0.8712969   0.8712384
   0.8712479   0.8712007   0.8744958   0.8744171   0.8726117   0.8726796
   5.9386360   6.1577883   6.1578864   6.1696673   6.1723355   5.9419783
   5.9444174   6.1648712   6.1667301   6.1657241   6.1661307   5.9472822
   5.9384636   6.1695223   6.1726794   6.1577059   6.1580342   5.9422807
   8.4790273   8.4791313   8.4869505   8.4788128   8.4876779   8.4789125
 TTTTTTTTTTTTTTTTTTTTTTTTTTTTTT MOQGAD      TELAPSE       47.95 TCPU     1198.71
 TTTTTTTTTTTTTTTTTTTTTTTTTTTTTT SHELLXN     TELAPSE       55.81 TCPU     1449.39
 TTTTTTTTTTTTTTTTTTTTTTTTTTTTTT MONMO3      TELAPSE       55.97 TCPU     1454.38
 NUMERICALLY INTEGRATED DENSITY    197.9999958015
 TTTTTTTTTTTTTTTTTTTTTTTTTTTTTT NUMDFT      TELAPSE       56.54 TCPU     1472.70
 CYC   4 ETOT(AU) -1.289109989096E+03 DETOT -2.47E-03 tst  2.87E-05 PX  1.26E-02
 TTTTTTTTTTTTTTTTTTTTTTTTTTTTTT DIIS        TELAPSE       56.60 TCPU     1474.52
 DIIS TEST: 0.40702E-02 AT SCF   CYCLE   4 - DIIS ACTIVE - HISTORY:     4 CYCLES
 TTTTTTTTTTTTTTTTTTTTTTTTTTTTTT FDIK        TELAPSE       57.09 TCPU     1490.13
 INSULATING STATE
 TOP OF VALENCE BANDS -    BAND     99; K    1; EIG -2.4282787E-01 AU
 BOTTOM OF VIRTUAL BANDS - BAND    100; K    1; EIG -8.3388139E-02 AU
 DIRECT ENERGY BAND GAP:   4.3386 eV
 TTTTTTTTTTTTTTTTTTTTTTTTTTTTTT PDIG        TELAPSE       57.37 TCPU     1496.27
 CHARGE NORMALIZATION FACTOR   1.00000000
 TOTAL ATOMIC CHARGES:
   4.5005810   4.5038201   4.5033842   4.5030005   4.5030865   4.4994151
   0.8756069   0.8757540   0.8779990   0.8782078   0.8749789   0.8751845
   0.8750408   0.8750382   0.8779705   0.8782628   0.8755286   0.8756099
   5.9208836   6.1620137   6.1620151   6.1695071   6.1682255   5.9192553
   5.9257747   6.1661163   6.1658829   6.1662636   6.1659744   5.9249113
   5.9212876   6.1696433   6.1682800   6.1619732   6.1621121   5.9190122
   8.4914416   8.4915889   8.4930616   8.4916537   8.4928014   8.4918518
 TTTTTTTTTTTTTTTTTTTTTTTTTTTTTT MOQGAD      TELAPSE       57.42 TCPU     1496.32
 TTTTTTTTTTTTTTTTTTTTTTTTTTTTTT SHELLXN     TELAPSE       65.27 TCPU     1746.78
 TTTTTTTTTTTTTTTTTTTTTTTTTTTTTT MONMO3      TELAPSE       65.42 TCPU     1751.64
 NUMERICALLY INTEGRATED DENSITY    197.9999959395
 TTTTTTTTTTTTTTTTTTTTTTTTTTTTTT NUMDFT      TELAPSE       65.99 TCPU     1769.66
 CYC   5 ETOT(AU) -1.289110917992E+03 DETOT -9.29E-04 tst  5.94E-06 PX  6.79E-03
 TTTTTTTTTTTTTTTTTTTTTTTTTTTTTT DIIS        TELAPSE       66.06 TCPU     1771.83
 DIIS TEST: 0.88452E-04 AT SCF   CYCLE   5 - DIIS ACTIVE - HISTORY:     5 CYCLES
 TTTTTTTTTTTTTTTTTTTTTTTTTTTTTT FDIK        TELAPSE       66.54 TCPU     1787.42
 INSULATING STATE
 TOP OF VALENCE BANDS -    BAND     99; K    1; EIG -2.4257971E-01 AU
 BOTTOM OF VIRTUAL BANDS - BAND    100; K    1; EIG -8.2807414E-02 AU
 DIRECT ENERGY BAND GAP:   4.3476 eV
 TTTTTTTTTTTTTTTTTTTTTTTTTTTTTT PDIG        TELAPSE       66.83 TCPU     1793.56
 CHARGE NORMALIZATION FACTOR   1.00000000
 TOTAL ATOMIC CHARGES:
   4.5006740   4.5029239   4.5024915   4.5025580   4.5026682   4.5000822
   0.8766049   0.8768074   0.8791033   0.8789948   0.8760578   0.8760123
   0.8760410   0.8759487   0.8791276   0.8789973   0.8765574   0.8766369
   5.9174698   6.1608894   6.1612372   6.1669795   6.1703814   5.9224154
   5.9239209   6.1643060   6.1662607   6.1650043   6.1657810   5.9278757
   5.9175252   6.1668345   6.1707253   6.1608333   6.1613347   5.9225125
   8.4901184   8.4902055   8.4940245   8.4900300   8.4949123   8.4901354
 TTTTTTTTTTTTTTTTTTTTTTTTTTTTTT MOQGAD      TELAPSE       66.88 TCPU     1793.60
 TTTTTTTTTTTTTTTTTTTTTTTTTTTTTT SHELLXN     TELAPSE       74.73 TCPU     2044.09
 TTTTTTTTTTTTTTTTTTTTTTTTTTTTTT MONMO3      TELAPSE       74.89 TCPU     2049.05
 NUMERICALLY INTEGRATED DENSITY    197.9999959387
 TTTTTTTTTTTTTTTTTTTTTTTTTTTTTT NUMDFT      TELAPSE       75.46 TCPU     2067.41
 CYC   6 ETOT(AU) -1.289110926898E+03 DETOT -8.91E-06 tst  6.98E-07 PX  1.02E-03
 TTTTTTTTTTTTTTTTTTTTTTTTTTTTTT DIIS        TELAPSE       75.53 TCPU     2069.62
 DIIS TEST: 0.59964E-04 AT SCF   CYCLE   6 - DIIS ACTIVE - HISTORY:     6 CYCLES
 TTTTTTTTTTTTTTTTTTTTTTTTTTTTTT FDIK        TELAPSE       76.02 TCPU     2085.27
 INSULATING STATE
 TOP OF VALENCE BANDS -    BAND     99; K    1; EIG -2.4260659E-01 AU
 BOTTOM OF VIRTUAL BANDS - BAND    100; K    1; EIG -8.2846252E-02 AU
 DIRECT ENERGY BAND GAP:   4.3473 eV
 TTTTTTTTTTTTTTTTTTTTTTTTTTTTTT PDIG        TELAPSE       76.30 TCPU     2091.42
 CHARGE NORMALIZATION FACTOR   1.00000000
 TOTAL ATOMIC CHARGES:
   4.5007420   4.5033340   4.5029066   4.5026144   4.5027079   4.4997347
   0.8766001   0.8767837   0.8789518   0.8790841   0.8759376   0.8760720
   0.8759687   0.8759597   0.8789443   0.8791176   0.8765391   0.8766247
   5.9204355   6.1610487   6.1609943   6.1685178   6.1682928   5.9201445
   5.9259247   6.1650461   6.1653523   6.1654071   6.1652183   5.9260563
   5.9206632   6.1685437   6.1684626   6.1609761   6.1611164   5.9200701
   8.4903798   8.4905127   8.4935184   8.4904860   8.4935545   8.4906552
 TTTTTTTTTTTTTTTTTTTTTTTTTTTTTT MOQGAD      TELAPSE       76.35 TCPU     2091.46
 TTTTTTTTTTTTTTTTTTTTTTTTTTTTTT SHELLXN     TELAPSE       84.15 TCPU     2339.99
 TTTTTTTTTTTTTTTTTTTTTTTTTTTTTT MONMO3      TELAPSE       84.30 TCPU     2344.95
 NUMERICALLY INTEGRATED DENSITY    197.9999959386
 TTTTTTTTTTTTTTTTTTTTTTTTTTTTTT NUMDFT      TELAPSE       84.88 TCPU     2363.28
 CYC   7 ETOT(AU) -1.289110941470E+03 DETOT -1.46E-05 tst  4.18E-07 PX  7.53E-04
 TTTTTTTTTTTTTTTTTTTTTTTTTTTTTT DIIS        TELAPSE       84.95 TCPU     2365.80
 DIIS TEST: 0.33581E-05 AT SCF   CYCLE   7 - DIIS ACTIVE - HISTORY:     7 CYCLES
 TTTTTTTTTTTTTTTTTTTTTTTTTTTTTT FDIK        TELAPSE       85.44 TCPU     2381.48
 INSULATING STATE
 TOP OF VALENCE BANDS -    BAND     99; K    1; EIG -2.4261995E-01 AU
 BOTTOM OF VIRTUAL BANDS - BAND    100; K    1; EIG -8.2892588E-02 AU
 DIRECT ENERGY BAND GAP:   4.3464 eV
 TTTTTTTTTTTTTTTTTTTTTTTTTTTTTT PDIG        TELAPSE       85.73 TCPU     2387.62
 CHARGE NORMALIZATION FACTOR   1.00000000
 TOTAL ATOMIC CHARGES:
   4.5007105   4.5034545   4.5030236   4.5028126   4.5029061   4.4997747
   0.8765571   0.8767251   0.8789281   0.8790099   0.8758990   0.8760077
   0.8759338   0.8758910   0.8789178   0.8790461   0.8764917   0.8765699
   5.9198743   6.1609384   6.1610905   6.1680782   6.1685956   5.9207845
   5.9253933   6.1649006   6.1655111   6.1652479   6.1653948   5.9264069
   5.9201453   6.1681177   6.1687507   6.1608909   6.1611897   5.9206685
   8.4905752   8.4907027   8.4932037   8.4906701   8.4933750   8.4908351
 TTTTTTTTTTTTTTTTTTTTTTTTTTTTTT MOQGAD      TELAPSE       85.78 TCPU     2387.67
 TTTTTTTTTTTTTTTTTTTTTTTTTTTTTT SHELLXN     TELAPSE       93.35 TCPU     2629.15
 TTTTTTTTTTTTTTTTTTTTTTTTTTTTTT MONMO3      TELAPSE       93.50 TCPU     2633.95
 NUMERICALLY INTEGRATED DENSITY    197.9999959383
 TTTTTTTTTTTTTTTTTTTTTTTTTTTTTT NUMDFT      TELAPSE       94.06 TCPU     2651.90
 CYC   8 ETOT(AU) -1.289110942012E+03 DETOT -5.42E-07 tst  1.88E-08 PX  1.54E-04
 TTTTTTTTTTTTTTTTTTTTTTTTTTTTTT DIIS        TELAPSE       94.14 TCPU     2654.37
 DIIS TEST: 0.31001E-06 AT SCF   CYCLE   8 - DIIS ACTIVE - HISTORY:     8 CYCLES
 TTTTTTTTTTTTTTTTTTTTTTTTTTTTTT FDIK        TELAPSE       94.62 TCPU     2669.84
 INSULATING STATE
 TOP OF VALENCE BANDS -    BAND     99; K    1; EIG -2.4261795E-01 AU
 BOTTOM OF VIRTUAL BANDS - BAND    100; K    1; EIG -8.2891453E-02 AU
 DIRECT ENERGY BAND GAP:   4.3464 eV
 TTTTTTTTTTTTTTTTTTTTTTTTTTTTTT PDIG        TELAPSE       94.91 TCPU     2675.98
 CHARGE NORMALIZATION FACTOR   1.00000000
 TOTAL ATOMIC CHARGES:
   4.5007733   4.5034302   4.5029974   4.5027744   4.5028713   4.4998324
   0.8765360   0.8767167   0.8789159   0.8790045   0.8758917   0.8759968
   0.8759176   0.8758892   0.8789119   0.8790347   0.8764743   0.8765582
   5.9198955   6.1610032   6.1610561   6.1681919   6.1686346   5.9205968
   5.9254661   6.1649320   6.1655276   6.1653327   6.1653554   5.9263075
   5.9201199   6.1681985   6.1688232   6.1609448   6.1611643   5.9205274
   8.4904767   8.4906005   8.4934323   8.4905561   8.4936154   8.4907151
 TTTTTTTTTTTTTTTTTTTTTTTTTTTTTT MOQGAD      TELAPSE       94.96 TCPU     2676.03
 TTTTTTTTTTTTTTTTTTTTTTTTTTTTTT SHELLXN     TELAPSE      102.43 TCPU     2914.37
 +++ ENERGIES IN A.U. +++
 ::: EXT EL-POLE                                  -1.2572842250285E+03
 ::: EXT EL-SPHEROPOLE                             1.4310139341670E+01
 ::: BIELET ZONE E-E                               2.1297472887216E+03
 ::: TOTAL E-E                                     8.8677320303486E+02
 ::: TOTAL E-N + N-E                              -3.6029036220616E+03
 ::: TOTAL N-N                                     2.8081273950430E+02
 ::: KINETIC ENERGY                                1.2799197590135E+03
 ::: PSEUDO TOTAL   ENERGY                        -1.1553979205089E+03
 ::: VIRIAL COEFFICIENT                            1.0511316612004E+00
 TTTTTTTTTTTTTTTTTTTTTTTTTTTTTT MONMO3      TELAPSE      102.59 TCPU     2919.52
 NUMERICALLY INTEGRATED DENSITY    197.9999959381
 EXCHANGE ENERGY: -0.126022872878E+03  CORRELATION ENERGY: -0.769014873058E+01
 TTTTTTTTTTTTTTTTTTTTTTTTTTTTTT NUMDFT      TELAPSE      103.15 TCPU     2937.40
 CYC   9 ETOT(AU) -1.289110942118E+03 DETOT -1.06E-07 tst  9.68E-10 PX  1.54E-04

 == SCF ENDED - CONVERGENCE ON ENERGY      E(AU) -1.2891109421180E+03 CYCLES   9


 ENERGY EXPRESSION=HARTREE+FOCK EXCH*0.00000+(HSESOL     EXCH)*1.00000+PBESOL     CORR


 TOTAL ENERGY(DFT)(AU)(  9) -1.2891109421180E+03 DE-1.1E-07 tester 9.7E-10
 TTTTTTTTTTTTTTTTTTTTTTTTTTTTTT EDFT        TELAPSE      103.15 TCPU     2937.41
 
 INFORMATION **** DFTD3 ENERGY **** CALCULATE DFTD3 ENERGY

           DFT-D V3(BJ)
 DF                                         hsesol3c  
 parameters
 s6       :    1.0000
 s8       :    0.0000
 a1       :    0.5196
 a2       :    4.9385
 k1 k3    :   16.0000   -4.0000
 Cutoff   :   50.2022
 CN-Cutoff:   21.1671
 ABC-Cutoff:   21.1671
 
 Edisp /kcal,au:   -25.6086 -0.04080992

 E6    /kcal :   -27.2520
 E8    /kcal :     0.0000
 E6(ABC) "   :   1.643357
 
 INFORMATION **** DFTD3 ENERGY **** NORMAL TERMINATION OF DFTD3 MODULE

 GCP ENERGY CALCULATION
  level        hsesol3c            basis:hsesol3c
  Nbf            474
  Atoms           42

  Parameters: 
  sigma     1.0000
  eta       1.4281
  alpha     0.2936
  beta      1.9467

  dmp_scal      4.0000
  dmp_exp       6.0000
 cutoffs: 
   distance [bohr] 60.0
   noise    [a.u.] 2.2E-16
 SR-damping   T
 ** gCP correction **
  Egcp:        0.0829660237 / (a.u.) ||      52.0620 / (kcal/mol)
 INFORMATION **** GCP **** NORMAL TERMINATION OF GCP MODULE

 *******************************************************************************

 DFT-D3-GCP DISPERSION AND COUNTERPOISE CORRECTION

 D3 DISPERSION ENERGY (AU)      -4.0809915518021E-02
 GCP ENERGY (AU)                 8.2966023651861E-02
 TOTAL ENERGY + DISP + GCP (AU) -1.2890687860099E+03

 *******************************************************************************

 EIGENVECTORS IN FORTRAN UNIT 10
 TTTTTTTTTTTTTTTTTTTTTTTTTTTTTT END         TELAPSE      104.27 TCPU     2944.50
 EEEEEEEEEE TERMINATION  DATE 19 02 2026 TIME 19:07:22.1
