 Default number of threads is:           32

         
 *******************************************************************************
 *                                                                             *
 *                               CRYSTAL23                                     *
 *                      public : 1.0.1 - October 2022                          *
 *                       HTTP://WWW.CRYSTAL.UNITO.IT                           *
 *                                                                             *
 *                              MAIN AUTHORS                                   *
 *                                                                             *
 *  R. DOVESI(1,11), V.R. SAUNDERS(2), C. ROETTI(1,11), R. ORLANDO(1,11),      *
 *  C.M. ZICOVICH-WILSON(1,3), F. PASCALE(4), B. CIVALLERI(1,11),              *
 *  K. DOLL(5), N.M. HARRISON(6), I.J. BUSH(7), Ph. D'ARCO(8),                 *
 *  M. LLUNELL(9), M. CAUSA'(10), Y. NOEL(8), L. MASCHIO(1,11), A. ERBA(1,11)  *
 *  M. RE'RAT(14), S. CASASSA(1,11), B.G. SEARLE(2), J.K. DESMARAIS(1)         *
 *                                                                             *
 *        CONTRIBUTIONS TO THE CODE HAVE ALSO BEEN GIVEN BY                    *
 *                                                                             *
 *  M. FERRABONE(1,11), M. DE LA PIERRE(1,11), M. FERRERO(1,11),               *
 *  J. BAIMA(1,11), E. ALBANESE(1,11), M.F. PEINTINGER(12), R. BAST(13),       *
 *  B. KIRTMAN(15), V. LACIVITA(1,11), R. DEMICHELIS(1,16)                     *
 *  G. BRANDEBURG(17), S. SALUSTRO(1,11), G. SANSONE(1,11)                     *
 *  M.T. RUGGIERO(18), L.E. DAGA(1), L. DONA'(1), A. COSSARD(1)                *
 *                                                                             *
 * (1) THEORETICAL CHEMISTRY GROUP - UNIVERSITA' DI TORINO - TORINO (ITALY)    *
 * (2) SCIENTIFIC COMPUTING DEPARTMENT - STFC DARESBURY (UK)                   *
 * (3) UNIVERSIDAD AUTONOMA DEL ESTADO DE MORELOS - CUERNAVACA (MEXICO)        *
 * (4) UNIVERSITE' DE LORRAINE - NANCY (FRANCE)                                *
 * (5) UNIVERSITAET STUTTGART- STUTTGART (GERMANY)                             *
 * (6) IMPERIAL COLLEGE - LONDON (UK)                                          *
 * (7) SCIENTIFIC COMPUTING DEPARTMENT - STFC RAL (UK)                         *
 * (8) UPMC - SORBONNE UNIVERSITES - PARIS (FRANCE)                            *
 * (9) UNIVERSIDAD DE BARCELONA - BARCELONA (SPAIN)                            *
 *(10) UNIVERSITA' DI NAPOLI "FEDERICO II" - NAPOLI (ITALY)                    *
 *(11) NIS - NANOSTRUCTURED INTERFACES AND SURFACES - TORINO (ITALY)           *
 *(12) MPI FUER CHEMISCHE ENERGIEKONVERSION - MUELHEIM AN DER RUHR (GERMANY)   *
 *(13) UNIVERSITY OF TROMSO - TROMSO (NORWAY)                                  *
 *(14) UNIVERSITE' DE PAU ET DES PAYS DE L'ADOUR - PAU (FRANCE)                *
 *(15) UNIVERSITY OF CALIFORNIA SANTA BARBARA - SANTA BARBARA (USA)            *
 *(16) CURTIN UNIVERSITY - PERTH (AUSTRALIA)                                   *
 *(17) UNIVERSITY COLLEGE LONDON - LONDON (UK)                                 *
 *(18) UNIVERSITY OF VERMONT - BURLINGTON (USA)                                *
 *                                                                             *
 *******************************************************************************
 EEEEEEEEEE STARTING  DATE 02 12 2025 TIME 08:04:37.2
 COF-5_z41_inc_L060                                                              

 CRYSTAL CALCULATION
 (INPUT ACCORDING TO THE INTERNATIONAL TABLES FOR X-RAY CRYSTALLOGRAPHY)
 CRYSTAL FAMILY                       :  TRICLINIC   
 CRYSTAL CLASS  (GROTH - 1921)        :  TRICLINIC PEDIAL                     

 SPACE GROUP (NONCENTROSYMMETRIC)     :  P 1             

 LATTICE PARAMETERS  (ANGSTROMS AND DEGREES) - CONVENTIONAL CELL
        A           B           C        ALPHA        BETA       GAMMA
    15.02070    15.04439     7.26705    44.38845    89.99960   120.05310


 NUMBER OF IRREDUCIBLE ATOMS IN THE CONVENTIONAL CELL:   42

 INPUT COORDINATES

 ATOM AT. N.              COORDINATES
   1   5     4.999137500000E-01 -2.595750000000E-03  5.006265800000E-01
   2   5     6.586908400000E-01  1.564263700000E-01  5.006365700000E-01
   3   5     4.997896000000E-01  1.567726000000E-01  4.992066700000E-01
   4   5     1.119791300000E-01  3.814789300000E-01  5.054213200000E-01
   5   5     2.696191600000E-01  3.791149300000E-01  5.094650000000E-01
   6   5     2.712703900000E-01  5.412020500000E-01  5.034996800000E-01
   7   1     7.878178200000E-01  7.708163000000E-02  5.045247700000E-01
   8   1    -1.505570000000E-02  4.643131400000E-01  4.929350600000E-01
   9   1     7.905939800000E-01  3.670773700000E-01  4.927967700000E-01
  10   1    -1.764310000000E-02  1.744941700000E-01  5.040933700000E-01
  11   1     4.778681500000E-01  6.709046900000E-01  5.042154300000E-01
  12   1     2.939583600000E-01 -1.292428700000E-01  4.945671900000E-01
  13   1     1.953160500000E-01  6.764431700000E-01  4.958739700000E-01
  14   1     5.763998800000E-01 -1.345477100000E-01  5.023542000000E-01
  15   1     4.789549600000E-01  4.612097400000E-01  4.977713500000E-01
  16   1     2.897304400000E-01  7.578021000000E-02  5.060540400000E-01
  17   1     1.924507100000E-01  1.718697900000E-01  5.056891800000E-01
  18   1     5.765306500000E-01  3.649204200000E-01  4.987047400000E-01
  19   6     7.780411200000E-01  2.159706400000E-01  5.003865900000E-01
  20   6     8.321571900000E-01  1.619804500000E-01  5.021525800000E-01
  21   6    -5.934832000000E-02  3.792622200000E-01  4.957600300000E-01
  22   6     8.335952900000E-01  3.255819700000E-01  4.960971700000E-01
  23   6    -6.066341000000E-02  2.158419800000E-01  5.015089100000E-01
  24   6    -5.657550000000E-03  3.245200000000E-01  4.993257600000E-01
  25   6     3.306105700000E-01  6.613299500000E-01  5.018679700000E-01
  26   6     4.383936600000E-01  7.156322200000E-01  5.022581300000E-01
  27   6     3.331535700000E-01 -1.743916700000E-01  4.969820400000E-01
  28   6     2.787767300000E-01  7.181376900000E-01  4.981006600000E-01
  29   6     4.928091500000E-01 -1.768389800000E-01  5.008208000000E-01
  30   6     4.405050400000E-01 -1.210973800000E-01  4.991966300000E-01
  31   6     3.306503700000E-01  3.231519900000E-01  4.999678000000E-01
  32   6     4.386270100000E-01  3.766610700000E-01  4.994163500000E-01
  33   6     3.307440400000E-01  1.605474600000E-01  5.039396400000E-01
  34   6     2.769830800000E-01  2.138731600000E-01  5.033317300000E-01
  35   6     4.922237900000E-01  3.231642000000E-01  5.003546600000E-01
  36   6     4.391821900000E-01  2.148687200000E-01  5.015964400000E-01
  37   8     4.470350800000E-01  5.069430000000E-02  4.995965200000E-01
  38   8     6.055035200000E-01  4.961388000000E-02  5.025864000000E-01
  39   8     6.061564700000E-01  2.104400800000E-01  4.980669300000E-01
  40   8     1.654390600000E-01  4.885792500000E-01  5.027330600000E-01
  41   8     1.634688400000E-01  3.260677300000E-01  5.102204000000E-01
  42   8     3.236763300000E-01  4.871507800000E-01  5.052046600000E-01

 *******************************************************************************

 << INFORMATION >>: FROM NOW ON, ALL COORDINATES REFER TO THE PRIMITIVE CELL

 *******************************************************************************

 LATTICE PARAMETERS  (ANGSTROMS AND DEGREES) - PRIMITIVE CELL
       A          B          C        ALPHA      BETA     GAMMA        VOLUME
   15.02070   15.04439    7.26705    44.38845  89.99960 120.05310    802.018380

 COORDINATES OF THE EQUIVALENT ATOMS (FRACTIONAL UNITS)

 N. ATOM EQUIV AT. N.          X                  Y                  Z

   1   1   1    5 B     4.99913750000E-01 -2.59575000000E-03 -4.99373420000E-01

   2   2   1    5 B    -3.41309160000E-01  1.56426370000E-01 -4.99363430000E-01

   3   3   1    5 B     4.99789600000E-01  1.56772600000E-01  4.99206670000E-01

   4   4   1    5 B     1.11979130000E-01  3.81478930000E-01 -4.94578680000E-01

   5   5   1    5 B     2.69619160000E-01  3.79114930000E-01 -4.90535000000E-01

   6   6   1    5 B     2.71270390000E-01 -4.58797950000E-01 -4.96500320000E-01

   7   7   1    1 H    -2.12182180000E-01  7.70816300000E-02 -4.95475230000E-01

   8   8   1    1 H    -1.50557000000E-02  4.64313140000E-01  4.92935060000E-01

   9   9   1    1 H    -2.09406020000E-01  3.67077370000E-01  4.92796770000E-01

  10  10   1    1 H    -1.76431000000E-02  1.74494170000E-01 -4.95906630000E-01

  11  11   1    1 H     4.77868150000E-01 -3.29095310000E-01 -4.95784570000E-01

  12  12   1    1 H     2.93958360000E-01 -1.29242870000E-01  4.94567190000E-01

  13  13   1    1 H     1.95316050000E-01 -3.23556830000E-01  4.95873970000E-01

  14  14   1    1 H    -4.23600120000E-01 -1.34547710000E-01 -4.97645800000E-01

  15  15   1    1 H     4.78954960000E-01  4.61209740000E-01  4.97771350000E-01

  16  16   1    1 H     2.89730440000E-01  7.57802100000E-02 -4.93945960000E-01

  17  17   1    1 H     1.92450710000E-01  1.71869790000E-01 -4.94310820000E-01

  18  18   1    1 H    -4.23469350000E-01  3.64920420000E-01  4.98704740000E-01

  19  19   1    6 C    -2.21958880000E-01  2.15970640000E-01 -4.99613410000E-01

  20  20   1    6 C    -1.67842810000E-01  1.61980450000E-01 -4.97847420000E-01

  21  21   1    6 C    -5.93483200000E-02  3.79262220000E-01  4.95760030000E-01

  22  22   1    6 C    -1.66404710000E-01  3.25581970000E-01  4.96097170000E-01

  23  23   1    6 C    -6.06634100000E-02  2.15841980000E-01 -4.98491090000E-01

  24  24   1    6 C    -5.65755000000E-03  3.24520000000E-01  4.99325760000E-01

  25  25   1    6 C     3.30610570000E-01 -3.38670050000E-01 -4.98132030000E-01

  26  26   1    6 C     4.38393660000E-01 -2.84367780000E-01 -4.97741870000E-01

  27  27   1    6 C     3.33153570000E-01 -1.74391670000E-01  4.96982040000E-01

  28  28   1    6 C     2.78776730000E-01 -2.81862310000E-01  4.98100660000E-01

  29  29   1    6 C     4.92809150000E-01 -1.76838980000E-01 -4.99179200000E-01

  30  30   1    6 C     4.40505040000E-01 -1.21097380000E-01  4.99196630000E-01

  31  31   1    6 C     3.30650370000E-01  3.23151990000E-01  4.99967800000E-01

  32  32   1    6 C     4.38627010000E-01  3.76661070000E-01  4.99416350000E-01

  33  33   1    6 C     3.30744040000E-01  1.60547460000E-01 -4.96060360000E-01

  34  34   1    6 C     2.76983080000E-01  2.13873160000E-01 -4.96668270000E-01

  35  35   1    6 C     4.92223790000E-01  3.23164200000E-01 -4.99645340000E-01

  36  36   1    6 C     4.39182190000E-01  2.14868720000E-01 -4.98403560000E-01

  37  37   1    8 O     4.47035080000E-01  5.06943000000E-02  4.99596520000E-01

  38  38   1    8 O    -3.94496480000E-01  4.96138800000E-02 -4.97413600000E-01

  39  39   1    8 O    -3.93843530000E-01  2.10440080000E-01  4.98066930000E-01

  40  40   1    8 O     1.65439060000E-01  4.88579250000E-01 -4.97266940000E-01

  41  41   1    8 O     1.63468840000E-01  3.26067730000E-01 -4.89779600000E-01

  42  42   1    8 O     3.23676330000E-01  4.87150780000E-01 -4.94795340000E-01

 NUMBER OF SYMMETRY OPERATORS         :    1
 *******************************************************************************
 * GEOMETRY EDITING - INPUT COORDINATES ARE GIVEN IN ANGSTROM         
 *******************************************************************************

 GCALCO - MAX INDICES DIRECT LATTICE VECTOR     9    13    25
 NO.OF VECTORS CREATED 6999 STARS 3500 RMAX   211.30959 BOHR

 GEOMETRY FOR WAVE FUNCTION - DIMENSIONALITY OF THE SYSTEM    3
 (NON PERIODIC DIRECTION: LATTICE PARAMETER FORMALLY SET TO 500)
 *******************************************************************************
 LATTICE PARAMETERS (ANGSTROMS AND DEGREES) - BOHR = 0.5291772083 ANGSTROM
 PRIMITIVE CELL - CENTRING CODE 1/0 VOLUME=   802.018380 - DENSITY  0.808 g/cm^3
         A              B              C           ALPHA      BETA       GAMMA 
    15.02070100    15.04438700     7.26704900    44.388446  89.999597 120.053104
 *******************************************************************************
 ATOMS IN THE ASYMMETRIC UNIT   42 - ATOMS IN THE UNIT CELL:   42
     ATOM                 X/A                 Y/B                 Z/C    
 *******************************************************************************
      1 T   5 B     4.999137500000E-01 -2.595750000000E-03 -4.993734200000E-01
      2 T   5 B    -3.413091600000E-01  1.564263700000E-01 -4.993634300000E-01
      3 T   5 B     4.997896000000E-01  1.567726000000E-01  4.992066700000E-01
      4 T   5 B     1.119791300000E-01  3.814789300000E-01 -4.945786800000E-01
      5 T   5 B     2.696191600000E-01  3.791149300000E-01 -4.905350000000E-01
      6 T   5 B     2.712703900000E-01 -4.587979500000E-01 -4.965003200000E-01
      7 T   1 H    -2.121821800000E-01  7.708163000000E-02 -4.954752300000E-01
      8 T   1 H    -1.505570000000E-02  4.643131400000E-01  4.929350600000E-01
      9 T   1 H    -2.094060200000E-01  3.670773700000E-01  4.927967700000E-01
     10 T   1 H    -1.764310000000E-02  1.744941700000E-01 -4.959066300000E-01
     11 T   1 H     4.778681500000E-01 -3.290953100000E-01 -4.957845700000E-01
     12 T   1 H     2.939583600000E-01 -1.292428700000E-01  4.945671900000E-01
     13 T   1 H     1.953160500000E-01 -3.235568300000E-01  4.958739700000E-01
     14 T   1 H    -4.236001200000E-01 -1.345477100000E-01 -4.976458000000E-01
     15 T   1 H     4.789549600000E-01  4.612097400000E-01  4.977713500000E-01
     16 T   1 H     2.897304400000E-01  7.578021000000E-02 -4.939459600000E-01
     17 T   1 H     1.924507100000E-01  1.718697900000E-01 -4.943108200000E-01
     18 T   1 H    -4.234693500000E-01  3.649204200000E-01  4.987047400000E-01
     19 T   6 C    -2.219588800000E-01  2.159706400000E-01 -4.996134100000E-01
     20 T   6 C    -1.678428100000E-01  1.619804500000E-01 -4.978474200000E-01
     21 T   6 C    -5.934832000000E-02  3.792622200000E-01  4.957600300000E-01
     22 T   6 C    -1.664047100000E-01  3.255819700000E-01  4.960971700000E-01
     23 T   6 C    -6.066341000000E-02  2.158419800000E-01 -4.984910900000E-01
     24 T   6 C    -5.657550000000E-03  3.245200000000E-01  4.993257600000E-01
     25 T   6 C     3.306105700000E-01 -3.386700500000E-01 -4.981320300000E-01
     26 T   6 C     4.383936600000E-01 -2.843677800000E-01 -4.977418700000E-01
     27 T   6 C     3.331535700000E-01 -1.743916700000E-01  4.969820400000E-01
     28 T   6 C     2.787767300000E-01 -2.818623100000E-01  4.981006600000E-01
     29 T   6 C     4.928091500000E-01 -1.768389800000E-01 -4.991792000000E-01
     30 T   6 C     4.405050400000E-01 -1.210973800000E-01  4.991966300000E-01
     31 T   6 C     3.306503700000E-01  3.231519900000E-01  4.999678000000E-01
     32 T   6 C     4.386270100000E-01  3.766610700000E-01  4.994163500000E-01
     33 T   6 C     3.307440400000E-01  1.605474600000E-01 -4.960603600000E-01
     34 T   6 C     2.769830800000E-01  2.138731600000E-01 -4.966682700000E-01
     35 T   6 C     4.922237900000E-01  3.231642000000E-01 -4.996453400000E-01
     36 T   6 C     4.391821900000E-01  2.148687200000E-01 -4.984035600000E-01
     37 T   8 O     4.470350800000E-01  5.069430000000E-02  4.995965200000E-01
     38 T   8 O    -3.944964800000E-01  4.961388000000E-02 -4.974136000000E-01
     39 T   8 O    -3.938435300000E-01  2.104400800000E-01  4.980669300000E-01
     40 T   8 O     1.654390600000E-01  4.885792500000E-01 -4.972669400000E-01
     41 T   8 O     1.634688400000E-01  3.260677300000E-01 -4.897796000000E-01
     42 T   8 O     3.236763300000E-01  4.871507800000E-01 -4.947953400000E-01

 T = ATOM BELONGING TO THE ASYMMETRIC UNIT

 ****    1 SYMMOPS - TRANSLATORS IN FRACTIONAL UNITS
 **** MATRICES AND TRANSLATORS IN THE CRYSTALLOGRAPHIC REFERENCE FRAME
   V INV                    ROTATION MATRICES                   TRANSLATORS
   1   1  1.00  0.00  0.00  0.00  1.00  0.00  0.00  0.00  1.00  0.00  0.00  0.00

 DIRECT LATTICE VECTORS CARTESIAN COMPONENTS (ANGSTROM)
          X                    Y                    Z
   0.130013421718E+02  -0.752240388864E+01   0.000000000000E+00
   0.000000000000E+00   0.150443870000E+02   0.000000000000E+00
   0.300473693293E+01   0.519313318060E+01   0.410035667971E+01


 CARTESIAN COORDINATES - PRIMITIVE CELL
 *******************************************************************************
 *      ATOM          X(ANGSTROM)         Y(ANGSTROM)         Z(ANGSTROM)
 *******************************************************************************
    1     5 B     1.994327028796E+00  3.458336537950E+00 -6.147965818078E+00
    2     5 B    -5.937932916597E+00  2.327543402188E+00 -2.047568175804E+00
    3     5 B    -1.998684916834E+00 -1.137474773953E+00  6.147282083601E+00
    4     5 B    -3.019984080871E-02  2.328351458783E+00 -2.027948994180E+00
    5     5 B     2.031482323831E+00  1.127953922017E+00 -2.011368463882E+00
    6     5 B     2.035026312744E+00  3.523055362814E+00 -2.035828403590E+00
    7     1 H    -4.247425847866E+00  1.826970711657E-01 -2.031625168962E+00
    8     1 H    -1.719341059948E+00  4.465305858939E+00 -2.079147113776E+00
    9     1 H    -1.241834663601E+00 -5.387537070046E+00  2.020642527609E+00
   10     1 H    -1.719452946517E+00  1.825671720397E-01 -2.033394062833E+00
   11     1 H    -5.273380115957E+00  1.595107335002E+00  2.067463106414E+00
   12     1 H     5.307897524222E+00 -1.587299979209E+00  2.027901881082E+00
   13     1 H     4.029341629427E+00 -3.761820814045E+00  2.033260145184E+00
   14     1 H    -3.997927885971E+00  3.771095635147E+00  2.059831399551E+00
   15     1 H     4.717992346397E+00  7.275848965788E-01 -2.059316599770E+00
   16     1 H     2.282706919135E+00 -3.604529736631E+00 -2.025354616502E+00
   17     1 H     1.016843554709E+00 -1.429038255778E+00 -2.026850672640E+00
   18     1 H    -4.007193367703E+00 -3.779035359541E+00  2.044867311862E+00
   19     6 C    -4.386970212158E+00  2.324251253885E+00 -2.048593182967E+00
   20     6 C    -3.678082333720E+00  1.114090027181E+00 -2.041351994074E+00
   21     6 C    -2.286716276559E+00  3.533624326120E+00 -2.067563729167E+00
   22     6 C    -3.677580017614E+00  3.533110088224E+00 -2.066181334916E+00
   23     6 C    -2.286540339577E+00  1.114814329537E+00 -2.043991270658E+00
   24     6 C    -1.577950123699E+00  2.324694836945E+00 -2.052942964343E+00
   25     6 C     2.801625438158E+00  4.875451491785E+00 -2.042518996588E+00
   26     6 C     1.199385666810E+00 -3.094991064596E-01 -6.141275881137E+00
   27     6 C     5.824743849909E+00 -2.548837561454E+00  2.037803627410E+00
   28     6 C     5.121133105677E+00 -3.750813765445E+00  2.042390368399E+00
   29     6 C     1.902541273209E+00  8.914062346932E-01 -6.147169446803E+00
   30     6 C    -5.774230867387E+00  4.979305796270E+00  2.046884236310E+00
   31     6 C     2.796433380599E+00 -2.223958408765E-01 -2.050310371340E+00
   32     6 C     4.198617661616E+00 -2.324921832535E-01 -2.052571513031E+00
   33     6 C     2.809585550660E+00 -2.648759647630E+00 -2.034024410666E+00
   34     6 C     2.108794304588E+00 -1.445252482815E+00 -2.036517058495E+00
   35     6 C     4.898267112412E+00 -1.435623656318E+00 -2.048724107355E+00
   36     6 C     4.212386343703E+00 -2.659413700768E+00 -2.043632366438E+00
   37     8 O     4.308475220143E+00 -5.198775671932E+00 -2.051832751768E+00
   38     8 O    -6.623580736902E+00  1.130837195858E+00 -2.039573177339E+00
   39     8 O    -6.191974630957E-01 -1.136133813640E+00  6.142608743079E+00
   40     8 O     6.567734874930E-01  3.523502443164E+00 -2.038971819028E+00
   41     8 O     6.536554701468E-01  1.132319788703E+00 -2.008271054446E+00
   42     8 O     2.721496886894E+00  2.324522680459E+00 -2.028837377459E+00

 *******************************************************************************
 STARTING BASIS SET HANDLING 
 *******************************************************************************

 Loading internal basis set: SOLDEF2MSVP         

 Please cite in your publication:
 L. Dona', J. G. Brandenburg and B. Civalleri, J. Chem. Phys., 151, 121101 (2019
 )                                                                              
                                                                                
                    

 *******************************************************************************
 LOCAL ATOMIC FUNCTIONS BASIS SET
 *******************************************************************************
   ATOM   X(AU)   Y(AU)   Z(AU)  N. TYPE  EXPONENT  S COEF   P COEF   D/F/G COEF
 *******************************************************************************
   1 B    3.769   6.535 -11.618
                                  1 S  
                                         2.410E+03 1.755E-03 0.000E+00 0.000E+00
                                         3.619E+02 1.344E-02 0.000E+00 0.000E+00
                                         8.231E+01 6.637E-02 0.000E+00 0.000E+00
                                         2.311E+01 2.303E-01 0.000E+00 0.000E+00
                                         7.252E+00 5.150E-01 0.000E+00 0.000E+00
                                  2 S  
                                         2.367E+00 1.000E+00 0.000E+00 0.000E+00
                                  3 S  
                                         5.533E-01 1.000E+00 0.000E+00 0.000E+00
                                  4 S  
                                         1.716E-01 1.000E+00 0.000E+00 0.000E+00
                           5-     7 P  
                                         6.002E+00 0.000E+00-3.555E-02 0.000E+00
                                         1.240E+00 0.000E+00-1.983E-01 0.000E+00
                                         3.367E-01 0.000E+00-5.048E-01 0.000E+00
                           8-    10 P  
                                         1.256E-01 0.000E+00 1.000E+00 0.000E+00
                          11-    15 D  
                                         8.880E-01 0.000E+00 0.000E+00 1.000E+00
   2 B  -11.221   4.398  -3.869
   3 B   -3.777  -2.150  11.617
   4 B   -0.057   4.400  -3.832
   5 B    3.839   2.132  -3.801
   6 B    3.846   6.658  -3.847
   7 H   -8.026   0.345  -3.839
                                 91 S  
                                         1.874E+01 1.968E-02 0.000E+00 0.000E+00
                                         2.826E+00 1.380E-01 0.000E+00 0.000E+00
                                         6.401E-01 4.783E-01 0.000E+00 0.000E+00
                                 92 S  
                                         1.756E-01 1.000E+00 0.000E+00 0.000E+00
   8 H   -3.249   8.438  -3.929
   9 H   -2.347 -10.181   3.818
  10 H   -3.249   0.345  -3.843
  11 H   -9.965   3.014   3.907
  12 H   10.030  -3.000   3.832
  13 H    7.614  -7.109   3.842
  14 H   -7.555   7.126   3.893
  15 H    8.916   1.375  -3.892
  16 H    4.314  -6.812  -3.827
  17 H    1.922  -2.700  -3.830
  18 H   -7.572  -7.141   3.864
  19 C   -8.290   4.392  -3.871
                                115 S  
                                         3.624E+03 1.634E-03 0.000E+00 0.000E+00
                                         5.440E+02 1.252E-02 0.000E+00 0.000E+00
                                         1.237E+02 6.211E-02 0.000E+00 0.000E+00
                                         3.476E+01 2.182E-01 0.000E+00 0.000E+00
                                         1.093E+01 4.980E-01 0.000E+00 0.000E+00
                                116 S  
                                         3.574E+00 1.000E+00 0.000E+00 0.000E+00
                                117 S  
                                         7.742E-01 1.000E+00 0.000E+00 0.000E+00
                                118 S  
                                         2.330E-01 1.000E+00 0.000E+00 0.000E+00
                         119-   121 P  
                                         9.443E+00 0.000E+00 3.790E-02 0.000E+00
                                         2.002E+00 0.000E+00 2.082E-01 0.000E+00
                                         5.463E-01 0.000E+00 5.047E-01 0.000E+00
                         122-   124 P  
                                         1.820E-01 0.000E+00 1.000E+00 0.000E+00
                         125-   129 D  
                                         8.880E-01 0.000E+00 0.000E+00 1.000E+00
  20 C   -6.951   2.105  -3.858
  21 C   -4.321   6.678  -3.907
  22 C   -6.950   6.677  -3.905
  23 C   -4.321   2.107  -3.863
  24 C   -2.982   4.393  -3.879
  25 C    5.294   9.213  -3.860
  26 C    2.267  -0.585 -11.605
  27 C   11.007  -4.817   3.851
  28 C    9.678  -7.088   3.860
  29 C    3.595   1.685 -11.616
  30 C  -10.912   9.410   3.868
  31 C    5.284  -0.420  -3.875
  32 C    7.934  -0.439  -3.879
  33 C    5.309  -5.005  -3.844
  34 C    3.985  -2.731  -3.848
  35 C    9.256  -2.713  -3.872
  36 C    7.960  -5.026  -3.862
  37 O    8.142  -9.824  -3.877
                                385 S  
                                         6.773E+03 1.727E-03 0.000E+00 0.000E+00
                                         1.017E+03 1.325E-02 0.000E+00 0.000E+00
                                         2.313E+02 6.603E-02 0.000E+00 0.000E+00
                                         6.501E+01 2.353E-01 0.000E+00 0.000E+00
                                         2.050E+01 5.498E-01 0.000E+00 0.000E+00
                                386 S  
                                         6.716E+00 1.000E+00 0.000E+00 0.000E+00
                                387 S  
                                         1.147E+00 1.000E+00 0.000E+00 0.000E+00
                                388 S  
                                         3.342E-01 1.000E+00 0.000E+00 0.000E+00
                         389-   391 P  
                                         1.769E+01 0.000E+00 4.359E-02 0.000E+00
                                         3.854E+00 0.000E+00 2.318E-01 0.000E+00
                                         1.047E+00 0.000E+00 5.146E-01 0.000E+00
                         392-   394 P  
                                         2.759E-01 0.000E+00 1.000E+00 0.000E+00
                         395-   399 D  
                                         8.000E-01 0.000E+00 0.000E+00 1.000E+00
  38 O  -12.517   2.137  -3.854
  39 O   -1.170  -2.147  11.608
  40 O    1.241   6.658  -3.853
  41 O    1.235   2.140  -3.795
  42 O    5.143   4.393  -3.834

 *******************************************************************************
 FINISHED BASIS SET HANDLING 
 *******************************************************************************

 INFORMATION **** SET_MPP **** PCRYSTAL CALCULATION
 INFORMATION **** READM2 **** NEW DEFAULT: FOCK/KS MATRIX MIXING SET TO 30 %
 INFORMATION **** READM2 **** NEW DEFAULT: FULL DIRECT SCF MODE
 INFORMATION **** READM2 **** NEW DEFAULT: COULOMB BIPOLAR BUFFER SET TO 32 Mb
 INFORMATION **** READM2 **** NEW DEFAULT: EXCHANGE BIPOLAR BUFFER SET TO 32 Mb

 *******************************************************************************
 NEW DEFAULT: DFT INTEGRATION GRID INCREASED TO XLGRID
 NEW DEFAULT: DIIS ACCELERATOR ACTIVE
 USE KEYWORD NODIIS TO TURN IT OFF
 *******************************************************************************

 WARNING **** RDDFTP **** HSEsol-HJS ACTIVE
 RANGE SEPARATION - OMEGA:   0.110000000000000     
 WARNING **** RDDFTP **** HSEsol-3c has to be combined with sol-def2-mSVP basis set
 *******************************************************************************
 N. OF ATOMS PER CELL        42  COULOMB OVERLAP TOL         (T1) 10**   -6
 NUMBER OF SHELLS           234  COULOMB PENETRATION TOL     (T2) 10**   -6
 NUMBER OF AO               474  EXCHANGE OVERLAP TOL        (T3) 10**   -6
 N. OF ELECTRONS PER CELL   198  EXCHANGE PSEUDO OVP (F(G))  (T4) 10**   -6
 CORE ELECTRONS PER CELL     60  EXCHANGE PSEUDO OVP (P(G))  (T5) 10**  -12
 N. OF SYMMETRY OPERATORS     1  POLE ORDER IN MONO ZONE                  4
 *******************************************************************************
 TYPE OF CALCULATION :  RESTRICTED CLOSED SHELL
 KOHN-SHAM HAMILTONIAN

 (EXCHANGE)[CORRELATION] FUNCTIONAL:(HSEsol GGA)[PBEsol]

 RANGE-SEPARATED HYBRID FUNCTIONAL 
 OMEGA (SHORT-RANGE)[LONG-RANGE]:(    0.1100)[    0.0000]

 HYBRID EXCHANGE - PERCENTAGE OF FOCK EXCHANGE    25.0000

 CAPPA:IS1  2;IS2  2;IS3  8; K PTS MONK NET  20; SYMMOPS:K SPACE   2;G SPACE   1

 *******************************************************************************
 MAX NUMBER OF SCF CYCLES      50  CONVERGENCE ON DELTAP        10**-16
 WEIGHT OF F(I) IN F(I+1)      30% CONVERGENCE ON ENERGY        10**- 6
 SHRINK. FACT.(MONKH.)    2  2  8  NUMBER OF K POINTS IN THE IBZ     20
 SHRINKING FACTOR(GILAT NET)    8  NUMBER OF K POINTS(GILAT NET)   1028
 *******************************************************************************
 *** K POINTS COORDINATES (OBLIQUE COORDINATES IN UNITS OF IS =  2)
   1-R(  0  0  0)   2-R(  1  0  0)   3-R(  0  1  0)   4-R(  1  1  0)
   5-C(  0  0  1)   6-C(  1  0  1)   7-C(  0  1  1)   8-C(  1  1  1)
   9-C(  0  0  2)  10-C(  1  0  2)  11-C(  0  1  2)  12-C(  1  1  2)
  13-C(  0  0  3)  14-C(  1  0  3)  15-C(  0  1  3)  16-C(  1  1  3)
  17-R(  0  0  4)  18-R(  1  0  4)  19-R(  0  1  4)  20-R(  1  1  4)

 DIRECT LATTICE VECTORS COMPON. (A.U.)     RECIP. LATTICE VECTORS COMPON. (A.U.) 
        X            Y            Z              X            Y            Z
   24.5689761  -14.2152832    0.0000000      0.2557366    0.0000000   -0.1874035
    0.0000000   28.4297713    0.0000000      0.1278719    0.2210072   -0.3736117
    5.6781299    9.8135995    7.7485512      0.0000000    0.0000000    0.8108852

 DISK SPACE FOR EIGENVECTORS (FTN 10)     7189632 REALS

 SYMMETRY ADAPTION OF THE BLOCH FUNCTIONS DISABLED
 TTTTTTTTTTTTTTTTTTTTTTTTTTTTTT gordsh1     TELAPSE        0.04 TCPU        0.04

 MATRIX SIZE: P(G)  289774, F(G)   58529, P(G) IRR  146018, F(G) IRR   59045
 MAX G-VECTOR INDEX FOR 1- AND 2-ELECTRON INTEGRALS  69

 TTTTTTTTTTTTTTTTTTTTTTTTTTTTTT INPUT       TELAPSE        0.37 TCPU        0.37

 NEIGHBORS OF THE NON-EQUIVALENT ATOMS

 N = NUMBER OF NEIGHBORS AT DISTANCE R
    ATOM  N     R/ANG      R/AU   NEIGHBORS (ATOM LABELS AND CELL INDICES)
   1 B    1     1.3787     2.6054   38 O    1 1-1
   1 B    1     1.3795     2.6068   37 O    0 1-1
   1 B    1     1.5517     2.9323   30 C    1 1-2
   1 B    1     2.3868     4.5104    2 B    1 1-1
   1 B    1     2.3912     4.5187    3 B    1 2-3
   1 B    1     2.5629     4.8432   27 C    0 1-2

   2 B    1     1.3792     2.6064   38 O    0 0 0
   2 B    1     1.3798     2.6075   39 O    0 1-2
   2 B    1     1.5510     2.9309   19 C    0 0 0
   2 B    1     2.3868     4.5104    1 B   -1-1 1
   2 B    1     2.3894     4.5154    3 B    0 1-2
   2 B    1     2.5618     4.8411   22 C    0 0 0

   3 B    1     1.3790     2.6060   37 O   -1-1 2
   3 B    1     1.3795     2.6069   39 O    0 0 0
   3 B    1     1.5529     2.9346   36 C   -1-1 2
   3 B    1     2.3894     4.5154    2 B    0-1 2
   3 B    1     2.3912     4.5187    1 B   -1-2 3
   3 B    1     2.5679     4.8526   35 C   -1-1 2

   4 B    1     1.3779     2.6038   41 O    0 0 0
   4 B    1     1.3786     2.6051   40 O    0 0 0
   4 B    1     1.5480     2.9252   24 C    0 0 0
   4 B    1     2.3857     4.5084    5 B    0 0 0
   4 B    1     2.3859     4.5087    6 B    0 0 0
   4 B    1     2.5585     4.8349   21 C    0 0 0

   5 B    1     1.3778     2.6037   41 O    0 0 0
   5 B    1     1.3814     2.6104   42 O    0 0 0
   5 B    1     1.5525     2.9337   31 C    0 0 0
   5 B    1     2.3857     4.5084    4 B    0 0 0
   5 B    1     2.3952     4.5263    6 B    0 0 0
   5 B    1     2.5591     4.8360   32 C    0 0 0

   6 B    1     1.3783     2.6045   40 O    0 0 0
   6 B    1     1.3812     2.6101   42 O    0 0 0
   6 B    1     1.5546     2.9377   25 C    0 0 0
   6 B    1     2.3859     4.5087    4 B    0 0 0
   6 B    1     2.3952     4.5263    5 B    0 0 0
   6 B    1     2.5605     4.8387   26 C    0 0 1

   7 H    1     1.0917     2.0630   20 C    0 0 0
   7 H    1     2.1462     4.0557   19 C    0 0 0
   7 H    1     2.1712     4.1030   23 C    0 0 0
   7 H    1     2.5280     4.7772   10 H    0 0 0
   7 H    1     2.5583     4.8346   38 O    0 0 0
   7 H    1     2.7310     5.1609    2 B    0 0 0

   8 H    1     1.0909     2.0615   21 C    0 0 0
   8 H    1     2.1454     4.0543   24 C    0 0 0
   8 H    1     2.1688     4.0985   22 C    0 0 0
   8 H    1     2.5272     4.7758    9 H    0 1-1
   8 H    1     2.5563     4.8307   40 O    0 0 0
   8 H    1     2.7244     5.1484    4 B    0 0 0

   9 H    1     1.0909     2.0614   22 C    0-1 1
   9 H    1     2.1443     4.0521   19 C    0-1 1
   9 H    1     2.1694     4.0996   21 C    0-1 1
   9 H    1     2.5272     4.7758    8 H    0-1 1
   9 H    1     2.5616     4.8407   39 O    0 0-1
   9 H    1     2.7249     5.1493    2 B    0-1 1

  10 H    1     1.0912     2.0621   23 C    0 0 0
  10 H    1     2.1469     4.0570   24 C    0 0 0
  10 H    1     2.1689     4.0986   20 C    0 0 0
  10 H    1     2.5280     4.7772    7 H    0 0 0
  10 H    1     2.5562     4.8306   41 O    0 0 0
  10 H    1     2.7309     5.1607    4 B    0 0 0

  11 H    1     1.0911     2.0619   26 C   -1-1 2
  11 H    1     2.1443     4.0521   25 C   -1-1 1
  11 H    1     2.1685     4.0978   29 C   -1-1 2
  11 H    1     2.5223     4.7664   14 H    0 0 0
  11 H    1     2.5622     4.8420   42 O   -1-1 1
  11 H    1     2.7179     5.1361    6 B   -1-1 1

  12 H    1     1.0917     2.0630   27 C    0 0 0
  12 H    1     2.1441     4.0518   30 C    1 0 0
  12 H    1     2.1716     4.1037   28 C    0 0 0
  12 H    1     2.5226     4.7669   13 H    0 0 0
  12 H    1     2.5541     4.8265   37 O    0 0 1
  12 H    1     2.7237     5.1471    1 B    0-1 2

  13 H    1     1.0919     2.0634   28 C    0 0 0
  13 H    1     2.1522     4.0672   25 C    0-1 1
  13 H    1     2.1668     4.0946   27 C    0 0 0
  13 H    1     2.5226     4.7669   12 H    0 0 0
  13 H    1     2.5923     4.8988   40 O    0-1 1
  13 H    1     2.7583     5.2124    6 B    0-1 1

  14 H    1     1.0915     2.0627   29 C   -1-1 2
  14 H    1     2.1483     4.0597   30 C    0 0 0
  14 H    1     2.1679     4.0968   26 C   -1-1 2
  14 H    1     2.5223     4.7664   11 H    0 0 0
  14 H    1     2.5809     4.8771   38 O    0 0 1
  14 H    1     2.7404     5.1785    1 B   -1-1 2

  15 H    1     1.0916     2.0628   32 C    0 0 0
  15 H    1     2.1436     4.0508   31 C    0 0 0
  15 H    1     2.1707     4.1021   35 C    0 0 0
  15 H    1     2.5217     4.7654   18 H    1 1-1
  15 H    1     2.5568     4.8316   42 O    0 0 0
  15 H    1     2.7166     5.1336    5 B    0 0 0

  16 H    1     1.0914     2.0625   33 C    0 0 0
  16 H    1     2.1488     4.0606   36 C    0 0 0
  16 H    1     2.1663     4.0937   34 C    0 0 0
  16 H    1     2.5170     4.7564   17 H    0 0 0
  16 H    1     2.5780     4.8717   37 O    0 0 0
  16 H    1     2.7396     5.1770    3 B    1 1-2

  17 H    1     1.0921     2.0638   34 C    0 0 0
  17 H    1     2.1502     4.0633   31 C    0 0 0
  17 H    1     2.1683     4.0976   33 C    0 0 0
  17 H    1     2.5170     4.7564   16 H    0 0 0
  17 H    1     2.5870     4.8888   41 O    0 0 0
  17 H    1     2.7510     5.1986    5 B    0 0 0

  18 H    1     1.0913     2.0622   35 C   -1-1 1
  18 H    1     2.1495     4.0619   36 C   -1-1 1
  18 H    1     2.1656     4.0923   32 C   -1-1 1
  18 H    1     2.5217     4.7654   15 H   -1-1 1
  18 H    1     2.5789     4.8734   39 O    0 0-1
  18 H    1     2.7392     5.1763    3 B    0 0-1

  19 C    1     1.4017     2.6489   22 C    0 0 0
  19 C    1     1.4025     2.6504   20 C    0 0 0
  19 C    1     1.5510     2.9309    2 B    0 0 0
  19 C    1     2.1443     4.0521    9 H    0 1-1
  19 C    1     2.1462     4.0557    7 H    0 0 0
  19 C    1     2.4236     4.5800   21 C    0 0 0

  20 C    1     1.0917     2.0630    7 H    0 0 0
  20 C    1     1.3915     2.6296   23 C    0 0 0
  20 C    1     1.4025     2.6504   19 C    0 0 0
  20 C    1     2.1689     4.0986   10 H    0 0 0
  20 C    1     2.4191     4.5715   22 C    0 0 0
  20 C    1     2.4241     4.5809   24 C    0 0 0

  21 C    1     1.0909     2.0615    8 H    0 0 0
  21 C    1     1.3909     2.6284   22 C    0 0 0
  21 C    1     1.4015     2.6484   24 C    0 0 0
  21 C    1     2.1694     4.0996    9 H    0 1-1
  21 C    1     2.4189     4.5711   23 C    0 0 0
  21 C    1     2.4236     4.5800   19 C    0 0 0

  22 C    1     1.0909     2.0614    9 H    0 1-1
  22 C    1     1.3909     2.6284   21 C    0 0 0
  22 C    1     1.4017     2.6489   19 C    0 0 0
  22 C    1     2.1688     4.0985    8 H    0 0 0
  22 C    1     2.4191     4.5715   20 C    0 0 0
  22 C    1     2.4226     4.5780   24 C    0 0 0

  23 C    1     1.0912     2.0621   10 H    0 0 0
  23 C    1     1.3915     2.6296   20 C    0 0 0
  23 C    1     1.4021     2.6497   24 C    0 0 0
  23 C    1     2.1712     4.1030    7 H    0 0 0
  23 C    1     2.4189     4.5711   21 C    0 0 0
  23 C    1     2.4238     4.5802   19 C    0 0 0

  24 C    1     1.4015     2.6484   21 C    0 0 0
  24 C    1     1.4021     2.6497   23 C    0 0 0
  24 C    1     1.5480     2.9252    4 B    0 0 0
  24 C    1     2.1454     4.0543    8 H    0 0 0
  24 C    1     2.1469     4.0570   10 H    0 0 0
  24 C    1     2.4226     4.5780   22 C    0 0 0

  25 C    1     1.4025     2.6504   26 C    0 0 1
  25 C    1     1.4037     2.6526   28 C    0 1-1
  25 C    1     1.5546     2.9377    6 B    0 0 0
  25 C    1     2.1443     4.0521   11 H    1 1-1
  25 C    1     2.1522     4.0672   13 H    0 1-1
  25 C    1     2.4271     4.5866   27 C    0 1-1

  26 C    1     1.0911     2.0619   11 H    1 1-2
  26 C    1     1.3916     2.6298   29 C    0 0 0
  26 C    1     1.4025     2.6504   25 C    0 0-1
  26 C    1     2.1679     4.0968   14 H    1 1-2
  26 C    1     2.4165     4.5665   28 C    0 1-2
  26 C    1     2.4246     4.5819   30 C    1 1-2

  27 C    1     1.0917     2.0630   12 H    0 0 0
  27 C    1     1.3928     2.6320   28 C    0 0 0
  27 C    1     1.4024     2.6502   30 C    1 0 0
  27 C    1     2.1668     4.0946   13 H    0 0 0
  27 C    1     2.4166     4.5668   29 C    0-1 2
  27 C    1     2.4271     4.5866   25 C    0-1 1

  28 C    1     1.0919     2.0634   13 H    0 0 0
  28 C    1     1.3928     2.6320   27 C    0 0 0
  28 C    1     1.4037     2.6526   25 C    0-1 1
  28 C    1     2.1716     4.1037   12 H    0 0 0
  28 C    1     2.4165     4.5665   26 C    0-1 2
  28 C    1     2.4277     4.5877   30 C    1 0 0

  29 C    1     1.0915     2.0627   14 H    1 1-2
  29 C    1     1.3916     2.6298   26 C    0 0 0
  29 C    1     1.4023     2.6499   30 C    1 1-2
  29 C    1     2.1685     4.0978   11 H    1 1-2
  29 C    1     2.4166     4.5668   27 C    0 1-2
  29 C    1     2.4281     4.5885   25 C    0 0-1

  30 C    1     1.4023     2.6499   29 C   -1-1 2
  30 C    1     1.4024     2.6502   27 C   -1 0 0
  30 C    1     1.5517     2.9323    1 B   -1-1 2
  30 C    1     2.1441     4.0518   12 H   -1 0 0
  30 C    1     2.1483     4.0597   14 H    0 0 0
  30 C    1     2.4246     4.5819   26 C   -1-1 2

  31 C    1     1.4022     2.6498   32 C    0 0 0
  31 C    1     1.4030     2.6513   34 C    0 0 0
  31 C    1     1.5525     2.9337    5 B    0 0 0
  31 C    1     2.1436     4.0508   15 H    0 0 0
  31 C    1     2.1502     4.0633   17 H    0 0 0
  31 C    1     2.4265     4.5853   33 C    0 0 0

  32 C    1     1.0916     2.0628   15 H    0 0 0
  32 C    1     1.3918     2.6301   35 C    0 0 0
  32 C    1     1.4022     2.6498   31 C    0 0 0
  32 C    1     2.1656     4.0923   18 H    1 1-1
  32 C    1     2.4163     4.5661   34 C    0 0 0
  32 C    1     2.4270     4.5863   36 C    0 0 0

  33 C    1     1.0914     2.0625   16 H    0 0 0
  33 C    1     1.3927     2.6318   34 C    0 0 0
  33 C    1     1.4029     2.6510   36 C    0 0 0
  33 C    1     2.1683     4.0976   17 H    0 0 0
  33 C    1     2.4155     4.5646   35 C    0 0 0
  33 C    1     2.4265     4.5853   31 C    0 0 0

  34 C    1     1.0921     2.0638   17 H    0 0 0
  34 C    1     1.3927     2.6318   33 C    0 0 0
  34 C    1     1.4030     2.6513   31 C    0 0 0
  34 C    1     2.1663     4.0937   16 H    0 0 0
  34 C    1     2.4163     4.5661   32 C    0 0 0
  34 C    1     2.4289     4.5899   36 C    0 0 0

  35 C    1     1.0913     2.0622   18 H    1 1-1
  35 C    1     1.3918     2.6301   32 C    0 0 0
  35 C    1     1.4029     2.6511   36 C    0 0 0
  35 C    1     2.1707     4.1021   15 H    0 0 0
  35 C    1     2.4155     4.5646   33 C    0 0 0
  35 C    1     2.4269     4.5861   31 C    0 0 0

  36 C    1     1.4029     2.6510   33 C    0 0 0
  36 C    1     1.4029     2.6511   35 C    0 0 0
  36 C    1     1.5529     2.9346    3 B    1 1-2
  36 C    1     2.1488     4.0606   16 H    0 0 0
  36 C    1     2.1495     4.0619   18 H    1 1-1
  36 C    1     2.4270     4.5863   32 C    0 0 0

  37 O    1     1.3790     2.6060    3 B    1 1-2
  37 O    1     1.3795     2.6068    1 B    0-1 1
  37 O    1     2.3868     4.5105   39 O    1 1-2
  37 O    1     2.3885     4.5136   38 O    1 0 0
  37 O    1     2.5389     4.7979   30 C    1 0-1
  37 O    1     2.5412     4.8022   36 C    0 0 0

  38 O    1     1.3787     2.6054    1 B   -1-1 1
  38 O    1     1.3792     2.6064    2 B    0 0 0
  38 O    1     2.3885     4.5136   37 O   -1 0 0
  38 O    1     2.3912     4.5188   39 O    0 1-2
  38 O    1     2.5351     4.7906   19 C    0 0 0
  38 O    1     2.5405     4.8008   30 C    0 0-1

  39 O    1     1.3795     2.6069    3 B    0 0 0
  39 O    1     1.3798     2.6075    2 B    0-1 2
  39 O    1     2.3868     4.5105   37 O   -1-1 2
  39 O    1     2.3912     4.5188   38 O    0-1 2
  39 O    1     2.5416     4.8030   19 C    0-1 2
  39 O    1     2.5427     4.8050   36 C   -1-1 2

  40 O    1     1.3783     2.6045    6 B    0 0 0
  40 O    1     1.3786     2.6051    4 B    0 0 0
  40 O    1     2.3876     4.5120   42 O    0 0 0
  40 O    1     2.3914     4.5191   41 O    0 0 0
  40 O    1     2.5354     4.7912   25 C    0 0 0
  40 O    1     2.5360     4.7924   24 C    0 0 0

  41 O    1     1.3778     2.6037    5 B    0 0 0
  41 O    1     1.3779     2.6038    4 B    0 0 0
  41 O    1     2.3870     4.5108   42 O    0 0 0
  41 O    1     2.3914     4.5191   40 O    0 0 0
  41 O    1     2.5306     4.7821   24 C    0 0 0
  41 O    1     2.5355     4.7913   31 C    0 0 0

  42 O    1     1.3812     2.6101    6 B    0 0 0
  42 O    1     1.3814     2.6104    5 B    0 0 0
  42 O    1     2.3870     4.5108   41 O    0 0 0
  42 O    1     2.3876     4.5120   40 O    0 0 0
  42 O    1     2.5481     4.8152   31 C    0 0 0
  42 O    1     2.5522     4.8230   25 C    0 0 0


 SYMMETRY ALLOWED INTERNAL DEGREE(S) OF FREEDOM: 123
 TTTTTTTTTTTTTTTTTTTTTTTTTTTTTT SYMM        TELAPSE        0.38 TCPU        0.37
 TTTTTTTTTTTTTTTTTTTTTTTTTTTTTT INT_SCREEN  TELAPSE        0.41 TCPU        0.41

 DFT PARAMETERS

     ATOM       ELECTRONS   NET CHARGE   R(ANGSTROM)
   1   5  B       5.0000      0.0000     0.89000000
   7   1  H       1.0000      0.0000     1.11000000
  19   6  C       6.0000      0.0000     0.77000000
  37   8  O       8.0000      0.0000     0.74000000

 SIZE OF GRID=    1329159
 TTTTTTTTTTTTTTTTTTTTTTTTTTTTTT MAKE_GRID2  TELAPSE        8.00 TCPU        7.99
 BECKE WEIGHT FUNCTION
 RADSAFE =     2.00
 TOLERANCES - DENSITY:10**- 6; POTENTIAL:10**- 9; GRID WGT:10**-14

 RADIAL INTEGRATION  - INTERVALS (POINTS,UPPER LIMIT):            1( 75,  4.0*R)

 ANGULAR INTEGRATION - INTERVALS (ACCURACY LEVEL [N. POINTS] UPPER LIMIT):
  1(  4[  86]   0.2)  2(  8[ 194]   0.5)  3( 12[ 350]   0.9)  4( 16[ 974]   3.5)
  5( 12[ 350]9999.0)
 TTTTTTTTTTTTTTTTTTTTTTTTTTTTTT INT_CALC    TELAPSE        8.07 TCPU        8.06
 EEEEEEEEEE INT_CALC TERMINATION  DATE 02 12 2025 TIME 08:04:45.3

 *******************************************************************************
 COF-5_z41_inc_L060                                                              
 CRYSTAL - SCF - TYPE OF CALCULATION :  RESTRICTED CLOSED SHELL
 *******************************************************************************

 CAPPA:IS1  2;IS2  2;IS3  8; K PTS MONK NET  20; SYMMOPS:K SPACE   2;G SPACE   1

 TTTTTTTTTTTTTTTTTTTTTTTTTTTTTT SDIK        TELAPSE        8.81 TCPU       20.64

 AAAAAAAAAAAAAAAAAAAAAAAAAAAAAAAAAAAAAAAAAAAAAAAAAAAAAAAAAAAAAAAAAAAAAAAAAAAAAAA
         ATOMIC WAVEFUNCTION(S)


 NUCLEAR CHARGE  5.0  SYMMETRY SPECIES            S    P
 N. ELECTRONS    5.0  NUMBER OF PRIMITIVE GTOS    8    4
                      NUMBER OF CONTRACTED GTOS   4    2
                      NUMBER OF CLOSED SHELLS     2    0
                      OPEN SHELL OCCUPATION       0    1

  ZNUC  SCFIT    TOTAL HF ENERGY   KINETIC ENERGY   VIRIAL THEOREM ACCURACY
   5.0    11    -2.451164084E+01  2.462155050E+01 -1.995536038E+00  1.5E-06

 NUCLEAR CHARGE  1.0  SYMMETRY SPECIES            S
 N. ELECTRONS    1.0  NUMBER OF PRIMITIVE GTOS    4
                      NUMBER OF CONTRACTED GTOS   2
                      NUMBER OF CLOSED SHELLS     0
                      OPEN SHELL OCCUPATION       1

  ZNUC  SCFIT    TOTAL HF ENERGY   KINETIC ENERGY   VIRIAL THEOREM ACCURACY
   1.0     1    -4.977266687E-01  5.190767460E-01 -1.958869132E+00  0.0E+00

 NUCLEAR CHARGE  6.0  SYMMETRY SPECIES            S    P
 N. ELECTRONS    6.0  NUMBER OF PRIMITIVE GTOS    8    4
                      NUMBER OF CONTRACTED GTOS   4    2
                      NUMBER OF CLOSED SHELLS     2    0
                      OPEN SHELL OCCUPATION       0    2

  ZNUC  SCFIT    TOTAL HF ENERGY   KINETIC ENERGY   VIRIAL THEOREM ACCURACY
   6.0     9    -3.766704647E+01  3.775180683E+01 -1.997754800E+00  1.1E-06

 NUCLEAR CHARGE  8.0  SYMMETRY SPECIES            S    P
 N. ELECTRONS    8.0  NUMBER OF PRIMITIVE GTOS    8    4
                      NUMBER OF CONTRACTED GTOS   4    2
                      NUMBER OF CLOSED SHELLS     2    0
                      OPEN SHELL OCCUPATION       0    4

  ZNUC  SCFIT    TOTAL HF ENERGY   KINETIC ENERGY   VIRIAL THEOREM ACCURACY
   8.0    12    -7.477373220E+01  7.477365593E+01 -2.000001020E+00  3.8E-06

 AAAAAAAAAAAAAAAAAAAAAAAAAAAAAAAAAAAAAAAAAAAAAAAAAAAAAAAAAAAAAAAAAAAAAAAAAAAAAAA

 CHARGE NORMALIZATION FACTOR   1.00000000
 TOTAL ATOMIC CHARGES:
   5.0000000   5.0000000   5.0000000   5.0000000   5.0000000   5.0000000
   1.0000000   1.0000000   1.0000000   1.0000000   1.0000000   1.0000000
   1.0000000   1.0000000   1.0000000   1.0000000   1.0000000   1.0000000
   6.0000000   6.0000000   6.0000000   6.0000000   6.0000000   6.0000000
   6.0000000   6.0000000   6.0000000   6.0000000   6.0000000   6.0000000
   6.0000000   6.0000000   6.0000000   6.0000000   6.0000000   6.0000000
   8.0000000   8.0000000   8.0000000   8.0000000   8.0000000   8.0000000
 TTTTTTTTTTTTTTTTTTTTTTTTTTTTTT MOQGAD      TELAPSE        8.85 TCPU       21.96
 TTTTTTTTTTTTTTTTTTTTTTTTTTTTTT SHELLXN     TELAPSE       14.35 TCPU      197.84
 TTTTTTTTTTTTTTTTTTTTTTTTTTTTTT MONMO3      TELAPSE       14.48 TCPU      202.02
 NUMERICALLY INTEGRATED DENSITY    197.9999577199
 TTTTTTTTTTTTTTTTTTTTTTTTTTTTTT NUMDFT      TELAPSE       15.04 TCPU      219.87
 CYC   0 ETOT(AU) -1.295946583481E+03 DETOT -1.30E+03 tst  0.00E+00 PX  1.00E+00
 TTTTTTTTTTTTTTTTTTTTTTTTTTTTTT DIIS        TELAPSE       15.08 TCPU      221.11
 TTTTTTTTTTTTTTTTTTTTTTTTTTTTTT FDIK        TELAPSE       15.58 TCPU      236.92
 INSULATING STATE
 TOP OF VALENCE BANDS -    BAND     99; K    1; EIG -3.1347510E-01 AU
 BOTTOM OF VIRTUAL BANDS - BAND    100; K   17; EIG -1.5892087E-01 AU
 INDIRECT ENERGY BAND GAP:   4.2056 eV
 BOTTOM OF VIRTUAL BANDS - BAND    100; K    1; EIG -1.5538726E-01 AU
 TTTTTTTTTTTTTTTTTTTTTTTTTTTTTT PDIG        TELAPSE       15.90 TCPU      243.09
 CHARGE NORMALIZATION FACTOR   1.00000000
 TOTAL ATOMIC CHARGES:
   4.1582189   4.1659074   4.1669421   4.1687550   4.1657927   4.1568157
   0.7851276   0.7850912   0.7851350   0.7851589   0.7852862   0.7851770
   0.7861564   0.7857062   0.7848488   0.7854276   0.7853337   0.7855735
   6.0433777   6.2650500   6.2651069   6.2659182   6.2646380   6.0455564
   6.0405968   6.2654439   6.2635869   6.2660672   6.2658733   6.0439104
   6.0425090   6.2651460   6.2660093   6.2654513   6.2670507   6.0401414
   8.6926623   8.6919117   8.6916799   8.6915148   8.6903553   8.6939886
 TTTTTTTTTTTTTTTTTTTTTTTTTTTTTT MOQGAD      TELAPSE       15.94 TCPU      243.13
 TTTTTTTTTTTTTTTTTTTTTTTTTTTTTT SHELLXN     TELAPSE       21.69 TCPU      426.39
 TTTTTTTTTTTTTTTTTTTTTTTTTTTTTT MONMO3      TELAPSE       21.82 TCPU      430.54
 NUMERICALLY INTEGRATED DENSITY    197.9999724306
 TTTTTTTTTTTTTTTTTTTTTTTTTTTTTT NUMDFT      TELAPSE       22.39 TCPU      448.84
 CYC   1 ETOT(AU) -1.288813598889E+03 DETOT  7.13E+00 tst  0.00E+00 PX  1.00E+00
 TTTTTTTTTTTTTTTTTTTTTTTTTTTTTT DIIS        TELAPSE       22.44 TCPU      450.36
 DIIS TEST: 0.11077E+01 AT SCF   CYCLE   1 - MIX   30 %
 TTTTTTTTTTTTTTTTTTTTTTTTTTTTTT FDIK        TELAPSE       22.93 TCPU      466.20
 INSULATING STATE
 TOP OF VALENCE BANDS -    BAND     99; K    1; EIG -2.2618180E-01 AU
 BOTTOM OF VIRTUAL BANDS - BAND    100; K   17; EIG -8.3936504E-02 AU
 INDIRECT ENERGY BAND GAP:   3.8707 eV
 BOTTOM OF VIRTUAL BANDS - BAND    100; K    1; EIG -7.7289553E-02 AU
 TTTTTTTTTTTTTTTTTTTTTTTTTTTTTT PDIG        TELAPSE       23.26 TCPU      472.37
 CHARGE NORMALIZATION FACTOR   1.00000000
 TOTAL ATOMIC CHARGES:
   4.7093927   4.7040607   4.7046974   4.7053301   4.7046979   4.7091567
   0.9087157   0.9091678   0.9127167   0.9127829   0.9042110   0.9039076
   0.9047383   0.9050352   0.9083499   0.9088123   0.9126721   0.9126738
   5.8671560   6.1419145   6.1402910   6.1341914   6.1356611   5.8628852
   5.8892294   6.1283009   6.1293305   6.1342416   6.1306030   5.8828051
   5.8674606   6.1372802   6.1398130   6.1360531   6.1332646   5.8695613
   8.3346664   8.3335213   8.3314819   8.3323935   8.3283865   8.3383892
 TTTTTTTTTTTTTTTTTTTTTTTTTTTTTT MOQGAD      TELAPSE       23.30 TCPU      472.41
 TTTTTTTTTTTTTTTTTTTTTTTTTTTTTT SHELLXN     TELAPSE       29.05 TCPU      655.78
 TTTTTTTTTTTTTTTTTTTTTTTTTTTTTT MONMO3      TELAPSE       29.18 TCPU      659.99
 NUMERICALLY INTEGRATED DENSITY    197.9999664461
 TTTTTTTTTTTTTTTTTTTTTTTTTTTTTT NUMDFT      TELAPSE       29.75 TCPU      677.98
 CYC   2 ETOT(AU) -1.289008422721E+03 DETOT -1.95E-01 tst  3.69E-03 PX  1.59E-01
 TTTTTTTTTTTTTTTTTTTTTTTTTTTTTT DIIS        TELAPSE       29.80 TCPU      679.77
 DIIS TEST: 0.45706E+00 AT SCF   CYCLE   2 - DIIS ACTIVE - HISTORY:     2 CYCLES
 TTTTTTTTTTTTTTTTTTTTTTTTTTTTTT FDIK        TELAPSE       30.30 TCPU      695.62
 INSULATING STATE
 TOP OF VALENCE BANDS -    BAND     99; K    1; EIG -2.3886767E-01 AU
 BOTTOM OF VIRTUAL BANDS - BAND    100; K   17; EIG -7.9040999E-02 AU
 INDIRECT ENERGY BAND GAP:   4.3491 eV
 BOTTOM OF VIRTUAL BANDS - BAND    100; K    1; EIG -7.2999972E-02 AU
 TTTTTTTTTTTTTTTTTTTTTTTTTTTTTT PDIG        TELAPSE       30.62 TCPU      701.79
 CHARGE NORMALIZATION FACTOR   1.00000000
 TOTAL ATOMIC CHARGES:
   4.5000129   4.5013484   4.5019390   4.5034340   4.5016332   4.4991348
   0.8878779   0.8876873   0.8904707   0.8906699   0.8828754   0.8826410
   0.8842491   0.8836412   0.8866163   0.8877916   0.8908218   0.8903511
   5.8914402   6.1600074   6.1606519   6.1589849   6.1587813   5.8930430
   5.8909573   6.1608000   6.1614988   6.1635937   6.1639318   5.8930832
   5.8921380   6.1599882   6.1602419   6.1598771   6.1603038   5.8914379
   8.5108050   8.5102236   8.5123069   8.5095199   8.5102635   8.5129249
 TTTTTTTTTTTTTTTTTTTTTTTTTTTTTT MOQGAD      TELAPSE       30.66 TCPU      701.83
 TTTTTTTTTTTTTTTTTTTTTTTTTTTTTT SHELLXN     TELAPSE       36.41 TCPU      885.04
 TTTTTTTTTTTTTTTTTTTTTTTTTTTTTT MONMO3      TELAPSE       36.54 TCPU      889.19
 NUMERICALLY INTEGRATED DENSITY    197.9999676097
 TTTTTTTTTTTTTTTTTTTTTTTTTTTTTT NUMDFT      TELAPSE       37.10 TCPU      907.22
 CYC   3 ETOT(AU) -1.289102865483E+03 DETOT -9.44E-02 tst  7.27E-04 PX  6.45E-02
 TTTTTTTTTTTTTTTTTTTTTTTTTTTTTT DIIS        TELAPSE       37.16 TCPU      908.91
 DIIS TEST: 0.13588E-01 AT SCF   CYCLE   3 - DIIS ACTIVE - HISTORY:     3 CYCLES
 TTTTTTTTTTTTTTTTTTTTTTTTTTTTTT FDIK        TELAPSE       37.65 TCPU      924.73
 INSULATING STATE
 TOP OF VALENCE BANDS -    BAND     99; K    1; EIG -2.4902566E-01 AU
 BOTTOM OF VIRTUAL BANDS - BAND    100; K   17; EIG -8.7584613E-02 AU
 INDIRECT ENERGY BAND GAP:   4.3930 eV
 BOTTOM OF VIRTUAL BANDS - BAND    100; K    1; EIG -8.0920686E-02 AU
 TTTTTTTTTTTTTTTTTTTTTTTTTTTTTT PDIG        TELAPSE       37.97 TCPU      930.91
 CHARGE NORMALIZATION FACTOR   1.00000000
 TOTAL ATOMIC CHARGES:
   4.5059155   4.5059362   4.5065603   4.5077604   4.5059418   4.5050310
   0.8701746   0.8705352   0.8731254   0.8733716   0.8655840   0.8655745
   0.8667497   0.8667730   0.8696172   0.8703475   0.8735457   0.8733945
   5.9386471   6.1711646   6.1695842   6.1667142   6.1666211   5.9361189
   5.9515398   6.1655190   6.1647206   6.1685686   6.1657872   5.9475024
   5.9378471   6.1686053   6.1704074   6.1674184   6.1661470   5.9383466
   8.4785754   8.4774768   8.4755459   8.4766940   8.4731999   8.4813104
 TTTTTTTTTTTTTTTTTTTTTTTTTTTTTT MOQGAD      TELAPSE       38.01 TCPU      930.95
 TTTTTTTTTTTTTTTTTTTTTTTTTTTTTT SHELLXN     TELAPSE       43.77 TCPU     1114.32
 TTTTTTTTTTTTTTTTTTTTTTTTTTTTTT MONMO3      TELAPSE       43.90 TCPU     1118.46
 NUMERICALLY INTEGRATED DENSITY    197.9999678630
 TTTTTTTTTTTTTTTTTTTTTTTTTTTTTT NUMDFT      TELAPSE       44.46 TCPU     1136.33
 CYC   4 ETOT(AU) -1.289105742684E+03 DETOT -2.88E-03 tst  2.72E-05 PX  1.40E-02
 TTTTTTTTTTTTTTTTTTTTTTTTTTTTTT DIIS        TELAPSE       44.52 TCPU     1138.36
 DIIS TEST: 0.40493E-02 AT SCF   CYCLE   4 - DIIS ACTIVE - HISTORY:     4 CYCLES
 TTTTTTTTTTTTTTTTTTTTTTTTTTTTTT FDIK        TELAPSE       45.02 TCPU     1154.50
 INSULATING STATE
 TOP OF VALENCE BANDS -    BAND     99; K    1; EIG -2.4701918E-01 AU
 BOTTOM OF VIRTUAL BANDS - BAND    100; K   17; EIG -8.7216750E-02 AU
 INDIRECT ENERGY BAND GAP:   4.3484 eV
 BOTTOM OF VIRTUAL BANDS - BAND    100; K    1; EIG -8.0781513E-02 AU
 TTTTTTTTTTTTTTTTTTTTTTTTTTTTTT PDIG        TELAPSE       45.34 TCPU     1160.67
 CHARGE NORMALIZATION FACTOR   1.00000000
 TOTAL ATOMIC CHARGES:
   4.5086438   4.5075472   4.5082114   4.5094947   4.5078785   4.5078675
   0.8736397   0.8735940   0.8765006   0.8766685   0.8688391   0.8685805
   0.8700419   0.8696361   0.8726825   0.8736990   0.8768674   0.8765534
   5.9204543   6.1691042   6.1692229   6.1660997   6.1661102   5.9207975
   5.9282341   6.1653808   6.1660381   6.1684272   6.1678779   5.9285360
   5.9210029   6.1681164   6.1687780   6.1668489   6.1665648   5.9208197
   8.4879288   8.4871348   8.4875296   8.4863620   8.4853388   8.4903467
 TTTTTTTTTTTTTTTTTTTTTTTTTTTTTT MOQGAD      TELAPSE       45.39 TCPU     1160.71
 TTTTTTTTTTTTTTTTTTTTTTTTTTTTTT SHELLXN     TELAPSE       51.13 TCPU     1343.78
 TTTTTTTTTTTTTTTTTTTTTTTTTTTTTT MONMO3      TELAPSE       51.26 TCPU     1347.92
 NUMERICALLY INTEGRATED DENSITY    197.9999679142
 TTTTTTTTTTTTTTTTTTTTTTTTTTTTTT NUMDFT      TELAPSE       51.82 TCPU     1365.90
 CYC   5 ETOT(AU) -1.289106669924E+03 DETOT -9.27E-04 tst  6.88E-06 PX  6.83E-03
 TTTTTTTTTTTTTTTTTTTTTTTTTTTTTT DIIS        TELAPSE       51.89 TCPU     1368.02
 DIIS TEST: 0.59759E-04 AT SCF   CYCLE   5 - DIIS ACTIVE - HISTORY:     5 CYCLES
 TTTTTTTTTTTTTTTTTTTTTTTTTTTTTT FDIK        TELAPSE       52.39 TCPU     1384.13
 INSULATING STATE
 TOP OF VALENCE BANDS -    BAND     99; K    1; EIG -2.4682122E-01 AU
 BOTTOM OF VIRTUAL BANDS - BAND    100; K   17; EIG -8.6647002E-02 AU
 INDIRECT ENERGY BAND GAP:   4.3586 eV
 BOTTOM OF VIRTUAL BANDS - BAND    100; K    1; EIG -8.0322142E-02 AU
 TTTTTTTTTTTTTTTTTTTTTTTTTTTTTT PDIG        TELAPSE       52.71 TCPU     1390.31
 CHARGE NORMALIZATION FACTOR   1.00000000
 TOTAL ATOMIC CHARGES:
   4.5080194   4.5077689   4.5084047   4.5096417   4.5079287   4.5071359
   0.8743506   0.8745990   0.8772785   0.8775162   0.8696423   0.8696118
   0.8708213   0.8707150   0.8736430   0.8744542   0.8776503   0.8774214
   5.9214388   6.1692659   6.1680718   6.1656891   6.1655240   5.9197861
   5.9291288   6.1657559   6.1650655   6.1688150   6.1666870   5.9263330
   5.9207757   6.1672333   6.1687528   6.1665519   6.1656866   5.9210623
   8.4878608   8.4869376   8.4863235   8.4861708   8.4840403   8.4904403
 TTTTTTTTTTTTTTTTTTTTTTTTTTTTTT MOQGAD      TELAPSE       52.75 TCPU     1390.35
 TTTTTTTTTTTTTTTTTTTTTTTTTTTTTT SHELLXN     TELAPSE       58.50 TCPU     1573.46
 TTTTTTTTTTTTTTTTTTTTTTTTTTTTTT MONMO3      TELAPSE       58.63 TCPU     1577.61
 NUMERICALLY INTEGRATED DENSITY    197.9999678804
 TTTTTTTTTTTTTTTTTTTTTTTTTTTTTT NUMDFT      TELAPSE       59.19 TCPU     1595.63
 CYC   6 ETOT(AU) -1.289106686557E+03 DETOT -1.66E-05 tst  1.33E-07 PX  8.78E-04
 TTTTTTTTTTTTTTTTTTTTTTTTTTTTTT DIIS        TELAPSE       59.28 TCPU     1598.35
 DIIS TEST: 0.63765E-05 AT SCF   CYCLE   6 - DIIS ACTIVE - HISTORY:     6 CYCLES
 TTTTTTTTTTTTTTTTTTTTTTTTTTTTTT FDIK        TELAPSE       59.79 TCPU     1614.58
 INSULATING STATE
 TOP OF VALENCE BANDS -    BAND     99; K    1; EIG -2.4682126E-01 AU
 BOTTOM OF VIRTUAL BANDS - BAND    100; K   17; EIG -8.6734980E-02 AU
 INDIRECT ENERGY BAND GAP:   4.3562 eV
 BOTTOM OF VIRTUAL BANDS - BAND    100; K    1; EIG -8.0348395E-02 AU
 TTTTTTTTTTTTTTTTTTTTTTTTTTTTTT PDIG        TELAPSE       60.11 TCPU     1620.75
 CHARGE NORMALIZATION FACTOR   1.00000000
 TOTAL ATOMIC CHARGES:
   4.5083856   4.5076808   4.5083436   4.5096339   4.5079678   4.5075816
   0.8744690   0.8744545   0.8773174   0.8774941   0.8696863   0.8694417
   0.8708866   0.8705201   0.8735351   0.8745338   0.8776935   0.8773836
   5.9205725   6.1685185   6.1685247   6.1654829   6.1654880   5.9207077
   5.9283858   6.1647934   6.1653961   6.1678718   6.1671040   5.9283627
   5.9210207   6.1674350   6.1681984   6.1662180   6.1658766   5.9208771
   8.4876386   8.4867912   8.4869114   8.4860306   8.4847146   8.4900705
 TTTTTTTTTTTTTTTTTTTTTTTTTTTTTT MOQGAD      TELAPSE       60.15 TCPU     1620.79
 TTTTTTTTTTTTTTTTTTTTTTTTTTTTTT SHELLXN     TELAPSE       65.89 TCPU     1803.64
 TTTTTTTTTTTTTTTTTTTTTTTTTTTTTT MONMO3      TELAPSE       66.02 TCPU     1807.78
 NUMERICALLY INTEGRATED DENSITY    197.9999678819
 TTTTTTTTTTTTTTTTTTTTTTTTTTTTTT NUMDFT      TELAPSE       66.59 TCPU     1826.18
 CYC   7 ETOT(AU) -1.289106687279E+03 DETOT -7.22E-07 tst  5.41E-08 PX  4.23E-04
 TTTTTTTTTTTTTTTTTTTTTTTTTTTTTT DIIS        TELAPSE       66.68 TCPU     1828.97
 DIIS TEST: 0.14108E-05 AT SCF   CYCLE   7 - DIIS ACTIVE - HISTORY:     7 CYCLES
 TTTTTTTTTTTTTTTTTTTTTTTTTTTTTT FDIK        TELAPSE       67.19 TCPU     1845.22
 INSULATING STATE
 TOP OF VALENCE BANDS -    BAND     99; K    1; EIG -2.4683055E-01 AU
 BOTTOM OF VIRTUAL BANDS - BAND    100; K   17; EIG -8.6746127E-02 AU
 INDIRECT ENERGY BAND GAP:   4.3561 eV
 BOTTOM OF VIRTUAL BANDS - BAND    100; K    1; EIG -8.0359716E-02 AU
 TTTTTTTTTTTTTTTTTTTTTTTTTTTTTT PDIG        TELAPSE       67.51 TCPU     1851.39
 CHARGE NORMALIZATION FACTOR   1.00000000
 TOTAL ATOMIC CHARGES:
   4.5084043   4.5077517   4.5084030   4.5096656   4.5079899   4.5075724
   0.8743835   0.8744815   0.8772747   0.8774776   0.8696071   0.8694631
   0.8708070   0.8705426   0.8735452   0.8744652   0.8776477   0.8773725
   5.9209246   6.1688356   6.1683157   6.1655321   6.1654594   5.9202907
   5.9288106   6.1651758   6.1651658   6.1681989   6.1669081   5.9276108
   5.9208973   6.1673437   6.1684115   6.1663305   6.1657643   5.9209305
   8.4877187   8.4868709   8.4867840   8.4860950   8.4845445   8.4902262
 TTTTTTTTTTTTTTTTTTTTTTTTTTTTTT MOQGAD      TELAPSE       67.55 TCPU     1851.43
 TTTTTTTTTTTTTTTTTTTTTTTTTTTTTT SHELLXN     TELAPSE       73.29 TCPU     2034.40
 +++ ENERGIES IN A.U. +++
 ::: EXT EL-POLE                                  -1.2851685753204E+03
 ::: EXT EL-SPHEROPOLE                             1.3939596461919E+01
 ::: BIELET ZONE E-E                               2.0035178171929E+03
 ::: TOTAL E-E                                     7.3228883833439E+02
 ::: TOTAL E-N + N-E                              -3.2949219104388E+03
 ::: TOTAL N-N                                     1.2731585895972E+02
 ::: KINETIC ENERGY                                1.2799260259308E+03
 ::: PSEUDO TOTAL   ENERGY                        -1.1553911872139E+03
 ::: VIRIAL COEFFICIENT                            1.0511370091932E+00
 TTTTTTTTTTTTTTTTTTTTTTTTTTTTTT MONMO3      TELAPSE       73.42 TCPU     2038.57
 NUMERICALLY INTEGRATED DENSITY    197.9999678816
 EXCHANGE ENERGY: -0.126026003853E+03  CORRELATION ENERGY: -0.768949648938E+01
 TTTTTTTTTTTTTTTTTTTTTTTTTTTTTT NUMDFT      TELAPSE       74.00 TCPU     2056.91
 CYC   8 ETOT(AU) -1.289106687556E+03 DETOT -2.78E-07 tst  9.86E-09 PX  4.23E-04

 == SCF ENDED - CONVERGENCE ON ENERGY      E(AU) -1.2891066875563E+03 CYCLES   8


 ENERGY EXPRESSION=HARTREE+FOCK EXCH*0.00000+(HSESOL     EXCH)*1.00000+PBESOL     CORR


 TOTAL ENERGY(DFT)(AU)(  8) -1.2891066875563E+03 DE-2.8E-07 tester 9.9E-09
 TTTTTTTTTTTTTTTTTTTTTTTTTTTTTT EDFT        TELAPSE       74.00 TCPU     2056.92
 
 INFORMATION **** DFTD3 ENERGY **** CALCULATE DFTD3 ENERGY

           DFT-D V3(BJ)
 DF                                         hsesol3c  
 parameters
 s6       :    1.0000
 s8       :    0.0000
 a1       :    0.5196
 a2       :    4.9385
 k1 k3    :   16.0000   -4.0000
 Cutoff   :   50.2022
 CN-Cutoff:   21.1671
 ABC-Cutoff:   21.1671
 
 Edisp /kcal,au:   -22.9284 -0.03653874

 E6    /kcal :   -24.1025
 E8    /kcal :     0.0000
 E6(ABC) "   :   1.174081
 
 INFORMATION **** DFTD3 ENERGY **** NORMAL TERMINATION OF DFTD3 MODULE

 GCP ENERGY CALCULATION
  level        hsesol3c            basis:hsesol3c
  Nbf            474
  Atoms           42

  Parameters: 
  sigma     1.0000
  eta       1.4281
  alpha     0.2936
  beta      1.9467

  dmp_scal      4.0000
  dmp_exp       6.0000
 cutoffs: 
   distance [bohr] 60.0
   noise    [a.u.] 2.2E-16
 SR-damping   T
 ** gCP correction **
  Egcp:        0.0829542545 / (a.u.) ||      52.0546 / (kcal/mol)
 INFORMATION **** GCP **** NORMAL TERMINATION OF GCP MODULE

 *******************************************************************************

 DFT-D3-GCP DISPERSION AND COUNTERPOISE CORRECTION

 D3 DISPERSION ENERGY (AU)      -3.6538737978034E-02
 GCP ENERGY (AU)                 8.2954254498385E-02
 TOTAL ENERGY + DISP + GCP (AU) -1.2890602720398E+03

 *******************************************************************************

 EIGENVECTORS IN FORTRAN UNIT  8
 TTTTTTTTTTTTTTTTTTTTTTTTTTTTTT END         TELAPSE       75.29 TCPU     2064.18
 EEEEEEEEEE TERMINATION  DATE 02 12 2025 TIME 08:05:52.5
