 Default number of threads is:           32

         
 *******************************************************************************
 *                                                                             *
 *                               CRYSTAL23                                     *
 *                      public : 1.0.1 - October 2022                          *
 *                       HTTP://WWW.CRYSTAL.UNITO.IT                           *
 *                                                                             *
 *                              MAIN AUTHORS                                   *
 *                                                                             *
 *  R. DOVESI(1,11), V.R. SAUNDERS(2), C. ROETTI(1,11), R. ORLANDO(1,11),      *
 *  C.M. ZICOVICH-WILSON(1,3), F. PASCALE(4), B. CIVALLERI(1,11),              *
 *  K. DOLL(5), N.M. HARRISON(6), I.J. BUSH(7), Ph. D'ARCO(8),                 *
 *  M. LLUNELL(9), M. CAUSA'(10), Y. NOEL(8), L. MASCHIO(1,11), A. ERBA(1,11)  *
 *  M. RE'RAT(14), S. CASASSA(1,11), B.G. SEARLE(2), J.K. DESMARAIS(1)         *
 *                                                                             *
 *        CONTRIBUTIONS TO THE CODE HAVE ALSO BEEN GIVEN BY                    *
 *                                                                             *
 *  M. FERRABONE(1,11), M. DE LA PIERRE(1,11), M. FERRERO(1,11),               *
 *  J. BAIMA(1,11), E. ALBANESE(1,11), M.F. PEINTINGER(12), R. BAST(13),       *
 *  B. KIRTMAN(15), V. LACIVITA(1,11), R. DEMICHELIS(1,16)                     *
 *  G. BRANDEBURG(17), S. SALUSTRO(1,11), G. SANSONE(1,11)                     *
 *  M.T. RUGGIERO(18), L.E. DAGA(1), L. DONA'(1), A. COSSARD(1)                *
 *                                                                             *
 * (1) THEORETICAL CHEMISTRY GROUP - UNIVERSITA' DI TORINO - TORINO (ITALY)    *
 * (2) SCIENTIFIC COMPUTING DEPARTMENT - STFC DARESBURY (UK)                   *
 * (3) UNIVERSIDAD AUTONOMA DEL ESTADO DE MORELOS - CUERNAVACA (MEXICO)        *
 * (4) UNIVERSITE' DE LORRAINE - NANCY (FRANCE)                                *
 * (5) UNIVERSITAET STUTTGART- STUTTGART (GERMANY)                             *
 * (6) IMPERIAL COLLEGE - LONDON (UK)                                          *
 * (7) SCIENTIFIC COMPUTING DEPARTMENT - STFC RAL (UK)                         *
 * (8) UPMC - SORBONNE UNIVERSITES - PARIS (FRANCE)                            *
 * (9) UNIVERSIDAD DE BARCELONA - BARCELONA (SPAIN)                            *
 *(10) UNIVERSITA' DI NAPOLI "FEDERICO II" - NAPOLI (ITALY)                    *
 *(11) NIS - NANOSTRUCTURED INTERFACES AND SURFACES - TORINO (ITALY)           *
 *(12) MPI FUER CHEMISCHE ENERGIEKONVERSION - MUELHEIM AN DER RUHR (GERMANY)   *
 *(13) UNIVERSITY OF TROMSO - TROMSO (NORWAY)                                  *
 *(14) UNIVERSITE' DE PAU ET DES PAYS DE L'ADOUR - PAU (FRANCE)                *
 *(15) UNIVERSITY OF CALIFORNIA SANTA BARBARA - SANTA BARBARA (USA)            *
 *(16) CURTIN UNIVERSITY - PERTH (AUSTRALIA)                                   *
 *(17) UNIVERSITY COLLEGE LONDON - LONDON (UK)                                 *
 *(18) UNIVERSITY OF VERMONT - BURLINGTON (USA)                                *
 *                                                                             *
 *******************************************************************************
 EEEEEEEEEE STARTING  DATE 19 02 2026 TIME 18:52:40.0
 cof-1_z37_L070_incl                                                             

 CRYSTAL CALCULATION
 (INPUT ACCORDING TO THE INTERNATIONAL TABLES FOR X-RAY CRYSTALLOGRAPHY)
 CRYSTAL FAMILY                       :  TRICLINIC   
 CRYSTAL CLASS  (GROTH - 1921)        :  TRICLINIC PEDIAL                     

 SPACE GROUP (NONCENTROSYMMETRIC)     :  P 1             

 LATTICE PARAMETERS  (ANGSTROMS AND DEGREES) - CONVENTIONAL CELL
        A           B           C        ALPHA        BETA       GAMMA
    15.02361    15.02392     7.91770    40.03272    89.99997   119.99596


 NUMBER OF IRREDUCIBLE ATOMS IN THE CONVENTIONAL CELL:   42

 INPUT COORDINATES

 ATOM AT. N.              COORDINATES
   1   5     4.788533500000E-01 -4.236358000000E-02  5.012853800000E-01
   2   5     6.379090100000E-01  1.166960800000E-01  5.012853900000E-01
   3   5     4.795791300000E-01  1.181391400000E-01  4.985710500000E-01
   4   5     9.242806000000E-02  3.439514200000E-01  5.012853900000E-01
   5   5     2.515360300000E-01  3.439306500000E-01  5.012853800000E-01
   6   5     2.522463600000E-01  5.045301100000E-01  4.985710600000E-01
   7   1     7.697299800000E-01  4.227567000000E-02  4.956580100000E-01
   8   1    -3.644766000000E-02  4.248620100000E-01  4.947974900000E-01
   9   1     7.699248500000E-01  3.279522500000E-01  4.946650500000E-01
  10   1    -3.631927000000E-02  1.395469900000E-01  4.946980800000E-01
  11   1     5.553861000000E-01 -1.743160600000E-01  5.043308100000E-01
  12   1     1.730519600000E-01  6.316541600000E-01  5.051913800000E-01
  13   1     2.699565800000E-01 -1.748044600000E-01  5.053239100000E-01
  14   1     4.584077500000E-01  6.315107700000E-01  5.052906500000E-01
  15   1     5.577590900000E-01  3.273998100000E-01  4.956580600000E-01
  16   1     1.758796600000E-01  1.394179200000E-01  4.947974400000E-01
  17   1     2.727940300000E-01  4.270312000000E-02  4.946649500000E-01
  18   1     4.612354000000E-01  4.248199200000E-01  4.946981900000E-01
  19   6     7.578198800000E-01  1.777755800000E-01  4.984717400000E-01
  20   6     8.131398600000E-01  1.260600100000E-01  4.957904400000E-01
  21   6    -7.989884000000E-02  3.405842900000E-01  4.955588100000E-01
  22   6     8.129781900000E-01  2.867172100000E-01  4.962539400000E-01
  23   6    -7.956679000000E-02  1.802366700000E-01  4.944663700000E-01
  24   6    -2.544692000000E-02  2.870428600000E-01  4.962870100000E-01
  25   6     4.191499000000E-01 -1.616380100000E-01  5.015171200000E-01
  26   6     4.715671700000E-01 -2.176929800000E-01  5.041983600000E-01
  27   6     2.571256700000E-01  6.752895800000E-01  5.044300800000E-01
  28   6     3.108015400000E-01 -2.173967600000E-01  5.037349700000E-01
  29   6     4.177500600000E-01  6.746623300000E-01  5.055224100000E-01
  30   6     3.104507800000E-01  6.210102600000E-01  5.037018300000E-01
  31   6     4.199744500000E-01  1.777064500000E-01  4.984717300000E-01
  32   6     4.738609500000E-01  2.869001300000E-01  4.957905000000E-01
  33   6     2.595364300000E-01  1.795710500000E-01  4.955587600000E-01
  34   6     3.128133600000E-01  1.257150500000E-01  4.962538700000E-01
  35   6     4.207498100000E-01  3.410846600000E-01  4.944664400000E-01
  36   6     3.124771700000E-01  2.869654600000E-01  4.962870100000E-01
  37   8     4.264436800000E-01  1.175732000000E-02  4.992992800000E-01
  38   8     5.838484500000E-01  8.684220000000E-03  5.050258800000E-01
  39   8     5.861698900000E-01  1.722772500000E-01  4.963863400000E-01
  40   8     1.460315000000E-01  4.510377900000E-01  4.992993100000E-01
  41   8     1.445107200000E-01  2.890015000000E-01  5.050258800000E-01
  42   8     3.057543100000E-01  4.525892300000E-01  4.963863200000E-01

 *******************************************************************************

 << INFORMATION >>: FROM NOW ON, ALL COORDINATES REFER TO THE PRIMITIVE CELL

 *******************************************************************************

 LATTICE PARAMETERS  (ANGSTROMS AND DEGREES) - PRIMITIVE CELL
       A          B          C        ALPHA      BETA     GAMMA        VOLUME
   15.02361   15.02392    7.91770    40.03272  89.99997 119.99596    723.289881

 COORDINATES OF THE EQUIVALENT ATOMS (FRACTIONAL UNITS)

 N. ATOM EQUIV AT. N.          X                  Y                  Z

   1   1   1    5 B     4.78853350000E-01 -4.23635800000E-02 -4.98714620000E-01

   2   2   1    5 B    -3.62090990000E-01  1.16696080000E-01 -4.98714610000E-01

   3   3   1    5 B     4.79579130000E-01  1.18139140000E-01  4.98571050000E-01

   4   4   1    5 B     9.24280600000E-02  3.43951420000E-01 -4.98714610000E-01

   5   5   1    5 B     2.51536030000E-01  3.43930650000E-01 -4.98714620000E-01

   6   6   1    5 B     2.52246360000E-01 -4.95469890000E-01  4.98571060000E-01

   7   7   1    1 H    -2.30270020000E-01  4.22756700000E-02  4.95658010000E-01

   8   8   1    1 H    -3.64476600000E-02  4.24862010000E-01  4.94797490000E-01

   9   9   1    1 H    -2.30075150000E-01  3.27952250000E-01  4.94665050000E-01

  10  10   1    1 H    -3.63192700000E-02  1.39546990000E-01  4.94698080000E-01

  11  11   1    1 H    -4.44613900000E-01 -1.74316060000E-01 -4.95669190000E-01

  12  12   1    1 H     1.73051960000E-01 -3.68345840000E-01 -4.94808620000E-01

  13  13   1    1 H     2.69956580000E-01 -1.74804460000E-01 -4.94676090000E-01

  14  14   1    1 H     4.58407750000E-01 -3.68489230000E-01 -4.94709350000E-01

  15  15   1    1 H    -4.42240910000E-01  3.27399810000E-01  4.95658060000E-01

  16  16   1    1 H     1.75879660000E-01  1.39417920000E-01  4.94797440000E-01

  17  17   1    1 H     2.72794030000E-01  4.27031200000E-02  4.94664950000E-01

  18  18   1    1 H     4.61235400000E-01  4.24819920000E-01  4.94698190000E-01

  19  19   1    6 C    -2.42180120000E-01  1.77775580000E-01  4.98471740000E-01

  20  20   1    6 C    -1.86860140000E-01  1.26060010000E-01  4.95790440000E-01

  21  21   1    6 C    -7.98988400000E-02  3.40584290000E-01  4.95558810000E-01

  22  22   1    6 C    -1.87021810000E-01  2.86717210000E-01  4.96253940000E-01

  23  23   1    6 C    -7.95667900000E-02  1.80236670000E-01  4.94466370000E-01

  24  24   1    6 C    -2.54469200000E-02  2.87042860000E-01  4.96287010000E-01

  25  25   1    6 C     4.19149900000E-01 -1.61638010000E-01 -4.98482880000E-01

  26  26   1    6 C     4.71567170000E-01 -2.17692980000E-01 -4.95801640000E-01

  27  27   1    6 C     2.57125670000E-01 -3.24710420000E-01 -4.95569920000E-01

  28  28   1    6 C     3.10801540000E-01 -2.17396760000E-01 -4.96265030000E-01

  29  29   1    6 C     4.17750060000E-01 -3.25337670000E-01 -4.94477590000E-01

  30  30   1    6 C     3.10450780000E-01 -3.78989740000E-01 -4.96298170000E-01

  31  31   1    6 C     4.19974450000E-01  1.77706450000E-01  4.98471730000E-01

  32  32   1    6 C     4.73860950000E-01  2.86900130000E-01  4.95790500000E-01

  33  33   1    6 C     2.59536430000E-01  1.79571050000E-01  4.95558760000E-01

  34  34   1    6 C     3.12813360000E-01  1.25715050000E-01  4.96253870000E-01

  35  35   1    6 C     4.20749810000E-01  3.41084660000E-01  4.94466440000E-01

  36  36   1    6 C     3.12477170000E-01  2.86965460000E-01  4.96287010000E-01

  37  37   1    8 O     4.26443680000E-01  1.17573200000E-02  4.99299280000E-01

  38  38   1    8 O    -4.16151550000E-01  8.68422000000E-03 -4.94974120000E-01

  39  39   1    8 O    -4.13830110000E-01  1.72277250000E-01  4.96386340000E-01

  40  40   1    8 O     1.46031500000E-01  4.51037790000E-01  4.99299310000E-01

  41  41   1    8 O     1.44510720000E-01  2.89001500000E-01 -4.94974120000E-01

  42  42   1    8 O     3.05754310000E-01  4.52589230000E-01  4.96386320000E-01

 NUMBER OF SYMMETRY OPERATORS         :    1
 *******************************************************************************
 * GEOMETRY EDITING - INPUT COORDINATES ARE GIVEN IN ANGSTROM         
 *******************************************************************************

 GCALCO - MAX INDICES DIRECT LATTICE VECTOR     9    14    24
 NO.OF VECTORS CREATED 6999 STARS 3500 RMAX   210.41929 BOHR

 GEOMETRY FOR WAVE FUNCTION - DIMENSIONALITY OF THE SYSTEM    3
 (NON PERIODIC DIRECTION: LATTICE PARAMETER FORMALLY SET TO 500)
 *******************************************************************************
 LATTICE PARAMETERS (ANGSTROMS AND DEGREES) - BOHR = 0.5291772083 ANGSTROM
 PRIMITIVE CELL - CENTRING CODE 1/0 VOLUME=   723.289881 - DENSITY  0.896 g/cm^3
         A              B              C           ALPHA      BETA       GAMMA 
    15.02361100    15.02391600     7.91770200    40.032725  89.999974 119.995964
 *******************************************************************************
 ATOMS IN THE ASYMMETRIC UNIT   42 - ATOMS IN THE UNIT CELL:   42
     ATOM                 X/A                 Y/B                 Z/C    
 *******************************************************************************
      1 T   5 B     4.788533500000E-01 -4.236358000000E-02 -4.987146200000E-01
      2 T   5 B    -3.620909900000E-01  1.166960800000E-01 -4.987146100000E-01
      3 T   5 B     4.795791300000E-01  1.181391400000E-01  4.985710500000E-01
      4 T   5 B     9.242806000000E-02  3.439514200000E-01 -4.987146100000E-01
      5 T   5 B     2.515360300000E-01  3.439306500000E-01 -4.987146200000E-01
      6 T   5 B     2.522463600000E-01 -4.954698900000E-01  4.985710600000E-01
      7 T   1 H    -2.302700200000E-01  4.227567000000E-02  4.956580100000E-01
      8 T   1 H    -3.644766000000E-02  4.248620100000E-01  4.947974900000E-01
      9 T   1 H    -2.300751500000E-01  3.279522500000E-01  4.946650500000E-01
     10 T   1 H    -3.631927000000E-02  1.395469900000E-01  4.946980800000E-01
     11 T   1 H    -4.446139000000E-01 -1.743160600000E-01 -4.956691900000E-01
     12 T   1 H     1.730519600000E-01 -3.683458400000E-01 -4.948086200000E-01
     13 T   1 H     2.699565800000E-01 -1.748044600000E-01 -4.946760900000E-01
     14 T   1 H     4.584077500000E-01 -3.684892300000E-01 -4.947093500000E-01
     15 T   1 H    -4.422409100000E-01  3.273998100000E-01  4.956580600000E-01
     16 T   1 H     1.758796600000E-01  1.394179200000E-01  4.947974400000E-01
     17 T   1 H     2.727940300000E-01  4.270312000000E-02  4.946649500000E-01
     18 T   1 H     4.612354000000E-01  4.248199200000E-01  4.946981900000E-01
     19 T   6 C    -2.421801200000E-01  1.777755800000E-01  4.984717400000E-01
     20 T   6 C    -1.868601400000E-01  1.260600100000E-01  4.957904400000E-01
     21 T   6 C    -7.989884000000E-02  3.405842900000E-01  4.955588100000E-01
     22 T   6 C    -1.870218100000E-01  2.867172100000E-01  4.962539400000E-01
     23 T   6 C    -7.956679000000E-02  1.802366700000E-01  4.944663700000E-01
     24 T   6 C    -2.544692000000E-02  2.870428600000E-01  4.962870100000E-01
     25 T   6 C     4.191499000000E-01 -1.616380100000E-01 -4.984828800000E-01
     26 T   6 C     4.715671700000E-01 -2.176929800000E-01 -4.958016400000E-01
     27 T   6 C     2.571256700000E-01 -3.247104200000E-01 -4.955699200000E-01
     28 T   6 C     3.108015400000E-01 -2.173967600000E-01 -4.962650300000E-01
     29 T   6 C     4.177500600000E-01 -3.253376700000E-01 -4.944775900000E-01
     30 T   6 C     3.104507800000E-01 -3.789897400000E-01 -4.962981700000E-01
     31 T   6 C     4.199744500000E-01  1.777064500000E-01  4.984717300000E-01
     32 T   6 C     4.738609500000E-01  2.869001300000E-01  4.957905000000E-01
     33 T   6 C     2.595364300000E-01  1.795710500000E-01  4.955587600000E-01
     34 T   6 C     3.128133600000E-01  1.257150500000E-01  4.962538700000E-01
     35 T   6 C     4.207498100000E-01  3.410846600000E-01  4.944664400000E-01
     36 T   6 C     3.124771700000E-01  2.869654600000E-01  4.962870100000E-01
     37 T   8 O     4.264436800000E-01  1.175732000000E-02  4.992992800000E-01
     38 T   8 O    -4.161515500000E-01  8.684220000000E-03 -4.949741200000E-01
     39 T   8 O    -4.138301100000E-01  1.722772500000E-01  4.963863400000E-01
     40 T   8 O     1.460315000000E-01  4.510377900000E-01  4.992993100000E-01
     41 T   8 O     1.445107200000E-01  2.890015000000E-01 -4.949741200000E-01
     42 T   8 O     3.057543100000E-01  4.525892300000E-01  4.963863200000E-01

 T = ATOM BELONGING TO THE ASYMMETRIC UNIT

 ****    1 SYMMOPS - TRANSLATORS IN FRACTIONAL UNITS
 **** MATRICES AND TRANSLATORS IN THE CRYSTALLOGRAPHIC REFERENCE FRAME
   V INV                    ROTATION MATRICES                   TRANSLATORS
   1   1  1.00 -0.00  0.00  0.00  1.00  0.00 -0.00 -0.00  1.00  0.00  0.00  0.00

 DIRECT LATTICE VECTORS CARTESIAN COMPONENTS (ANGSTROM)
          X                    Y                    Z
   0.130113578931E+02  -0.751088897922E+01   0.000000000000E+00
   0.000000000000E+00   0.150239160000E+02   0.000000000000E+00
   0.349956522914E+01   0.606240377318E+01   0.370004171040E+01


 CARTESIAN COORDINATES - PRIMITIVE CELL
 *******************************************************************************
 *      ATOM          X(ANGSTROM)         Y(ANGSTROM)         Z(ANGSTROM)
 *******************************************************************************
    1     5 B     9.856827425791E-01  1.705021616234E+00 -5.545306605984E+00
    2     5 B    -6.456579769163E+00  1.449447996309E+00 -1.845264858585E+00
    3     5 B    -1.527035054606E+00 -2.552373193892E-01  5.544775390995E+00
    4     5 B    -5.426697404006E-01  1.449871011531E+00 -1.845264858585E+00
    5     5 B     1.527540965911E+00  2.545166057935E-01 -1.845264895585E+00
    6     5 B     1.527284383871E+00  2.645558888901E+00 -1.855307992801E+00
    7     1 H    -4.761103334062E+00 -6.928461127644E-01 -1.866086399305E+00
    8     1 H    -2.242222686296E+00  3.594103874798E+00 -1.869270359198E+00
    9     1 H    -1.262477509896E+00 -5.369860769881E+00  1.830281317676E+00
   10     1 H    -2.240900049836E+00 -6.940120058151E-01 -1.869638180344E+00
   11     1 H    -4.020092010466E+00  3.777992804101E+00  1.866045032839E+00
   12     1 H     5.200259440228E-01  5.190415336804E+00 -1.830812532665E+00
   13     1 H     5.280915662856E+00 -1.590383846391E+00  1.869719544262E+00
   14     1 H     4.233239656409E+00  3.045587214044E+00 -1.830445229524E+00
   15     1 H    -4.019567042641E+00 -3.778587085914E+00  1.833955496095E+00
   16     1 H     5.204438897192E-01 -2.289151386953E+00 -1.869270544200E+00
   17     1 H     1.780967785372E+00 -4.470902699546E+00 -1.869760762726E+00
   18     1 H     4.232962217848E+00 -1.451726890175E-01 -1.869637773340E+00
   19     6 C    -4.906223076032E+00  1.449406559283E+00 -1.855675480943E+00
   20     6 C    -4.195818401864E+00  2.406788283616E-01 -1.865596402782E+00
   21     6 C    -2.804917251151E+00  2.658894907083E+00 -1.866453443443E+00
   22     6 C    -4.196299899611E+00  2.658403315527E+00 -1.863881433449E+00
   23     6 C    -2.804419894802E+00  2.407289303400E-01 -1.870495517009E+00
   24     6 C    -2.093875448668E+00  1.449925276846E+00 -1.863759073069E+00
   25     6 C     2.096707764251E-01  3.628834850425E-01 -5.544449158318E+00
   26     6 C     9.010738104470E-01 -8.567272116908E-01 -5.534528458482E+00
   27     6 C     1.611274855221E+00  5.209906611635E+00 -1.833629374419E+00
   28     6 C    -1.192327001917E+00  3.524067140261E-01 -5.536243020810E+00
   29     6 C     3.705038959952E+00  4.000673045193E+00 -1.829587707857E+00
   30     6 C     2.302558387739E+00  3.989484740856E+00 -1.836323929794E+00
   31     6 C     3.709306979765E+00 -3.525001567005E+00 -1.855675517944E+00
   32     6 C     4.401060377590E+00 -2.305475108801E+00 -1.865596180779E+00
   33     6 C     1.611596353367E+00 -2.309615417285E+00 -1.866453628445E+00
   34     6 C     2.307234139826E+00 -3.514686506278E+00 -1.863881692452E+00
   35     6 C     3.705378692605E+00 -1.100526391822E+00 -1.870495258006E+00
   36     6 C     2.302975827008E+00 -1.089347897645E+00 -1.863759073069E+00
   37     8 O    -2.215850922978E+00 -1.449999556886E+00  5.547469872370E+00
   38     8 O     2.364901689436E+00  1.706029357270E+00 -5.531466599966E+00
   39     8 O    -1.477900633047E-01 -2.557068610681E-01  5.536691872870E+00
   40     8 O     1.478333852281E-01  2.644077733526E+00 -1.852613437425E+00
   41     8 O     1.480864776257E-01  2.557973129319E-01 -1.831424889568E+00
   42     8 O     2.215849831306E+00  1.450066422840E+00 -1.863391621927E+00

 *******************************************************************************
 STARTING BASIS SET HANDLING 
 *******************************************************************************

 Loading internal basis set: SOLDEF2MSVP         

 Please cite in your publication:
 L. Dona', J. G. Brandenburg and B. Civalleri, J. Chem. Phys., 151, 121101 (2019
 )                                                                              
                                                                                
                    

 *******************************************************************************
 LOCAL ATOMIC FUNCTIONS BASIS SET
 *******************************************************************************
   ATOM   X(AU)   Y(AU)   Z(AU)  N. TYPE  EXPONENT  S COEF   P COEF   D/F/G COEF
 *******************************************************************************
   1 B    1.863   3.222 -10.479
                                  1 S  
                                         2.410E+03 1.755E-03 0.000E+00 0.000E+00
                                         3.619E+02 1.344E-02 0.000E+00 0.000E+00
                                         8.231E+01 6.637E-02 0.000E+00 0.000E+00
                                         2.311E+01 2.303E-01 0.000E+00 0.000E+00
                                         7.252E+00 5.150E-01 0.000E+00 0.000E+00
                                  2 S  
                                         2.367E+00 1.000E+00 0.000E+00 0.000E+00
                                  3 S  
                                         5.533E-01 1.000E+00 0.000E+00 0.000E+00
                                  4 S  
                                         1.716E-01 1.000E+00 0.000E+00 0.000E+00
                           5-     7 P  
                                         6.002E+00 0.000E+00-3.555E-02 0.000E+00
                                         1.240E+00 0.000E+00-1.983E-01 0.000E+00
                                         3.367E-01 0.000E+00-5.048E-01 0.000E+00
                           8-    10 P  
                                         1.256E-01 0.000E+00 1.000E+00 0.000E+00
                          11-    15 D  
                                         8.880E-01 0.000E+00 0.000E+00 1.000E+00
   2 B  -12.201   2.739  -3.487
   3 B   -2.886  -0.482  10.478
   4 B   -1.025   2.740  -3.487
   5 B    2.887   0.481  -3.487
   6 B    2.886   4.999  -3.506
   7 H   -8.997  -1.309  -3.526
                                 91 S  
                                         1.874E+01 1.968E-02 0.000E+00 0.000E+00
                                         2.826E+00 1.380E-01 0.000E+00 0.000E+00
                                         6.401E-01 4.783E-01 0.000E+00 0.000E+00
                                 92 S  
                                         1.756E-01 1.000E+00 0.000E+00 0.000E+00
   8 H   -4.237   6.792  -3.532
   9 H   -2.386 -10.148   3.459
  10 H   -4.235  -1.311  -3.533
  11 H   -7.597   7.139   3.526
  12 H    0.983   9.808  -3.460
  13 H    9.979  -3.005   3.533
  14 H    8.000   5.755  -3.459
  15 H   -7.596  -7.140   3.466
  16 H    0.983  -4.326  -3.532
  17 H    3.366  -8.449  -3.533
  18 H    7.999  -0.274  -3.533
  19 C   -9.271   2.739  -3.507
                                115 S  
                                         3.624E+03 1.634E-03 0.000E+00 0.000E+00
                                         5.440E+02 1.252E-02 0.000E+00 0.000E+00
                                         1.237E+02 6.211E-02 0.000E+00 0.000E+00
                                         3.476E+01 2.182E-01 0.000E+00 0.000E+00
                                         1.093E+01 4.980E-01 0.000E+00 0.000E+00
                                116 S  
                                         3.574E+00 1.000E+00 0.000E+00 0.000E+00
                                117 S  
                                         7.742E-01 1.000E+00 0.000E+00 0.000E+00
                                118 S  
                                         2.330E-01 1.000E+00 0.000E+00 0.000E+00
                         119-   121 P  
                                         9.443E+00 0.000E+00 3.790E-02 0.000E+00
                                         2.002E+00 0.000E+00 2.082E-01 0.000E+00
                                         5.463E-01 0.000E+00 5.047E-01 0.000E+00
                         122-   124 P  
                                         1.820E-01 0.000E+00 1.000E+00 0.000E+00
                         125-   129 D  
                                         8.880E-01 0.000E+00 0.000E+00 1.000E+00
  20 C   -7.929   0.455  -3.525
  21 C   -5.301   5.025  -3.527
  22 C   -7.930   5.024  -3.522
  23 C   -5.300   0.455  -3.535
  24 C   -3.957   2.740  -3.522
  25 C    0.396   0.686 -10.477
  26 C    1.703  -1.619 -10.459
  27 C    3.045   9.845  -3.465
  28 C   -2.253   0.666 -10.462
  29 C    7.002   7.560  -3.457
  30 C    4.351   7.539  -3.470
  31 C    7.010  -6.661  -3.507
  32 C    8.317  -4.357  -3.525
  33 C    3.045  -4.365  -3.527
  34 C    4.360  -6.642  -3.522
  35 C    7.002  -2.080  -3.535
  36 C    4.352  -2.059  -3.522
  37 O   -4.187  -2.740  10.483
                                385 S  
                                         6.773E+03 1.727E-03 0.000E+00 0.000E+00
                                         1.017E+03 1.325E-02 0.000E+00 0.000E+00
                                         2.313E+02 6.603E-02 0.000E+00 0.000E+00
                                         6.501E+01 2.353E-01 0.000E+00 0.000E+00
                                         2.050E+01 5.498E-01 0.000E+00 0.000E+00
                                386 S  
                                         6.716E+00 1.000E+00 0.000E+00 0.000E+00
                                387 S  
                                         1.147E+00 1.000E+00 0.000E+00 0.000E+00
                                388 S  
                                         3.342E-01 1.000E+00 0.000E+00 0.000E+00
                         389-   391 P  
                                         1.769E+01 0.000E+00 4.359E-02 0.000E+00
                                         3.854E+00 0.000E+00 2.318E-01 0.000E+00
                                         1.047E+00 0.000E+00 5.146E-01 0.000E+00
                         392-   394 P  
                                         2.759E-01 0.000E+00 1.000E+00 0.000E+00
                         395-   399 D  
                                         8.000E-01 0.000E+00 0.000E+00 1.000E+00
  38 O    4.469   3.224 -10.453
  39 O   -0.279  -0.483  10.463
  40 O    0.279   4.997  -3.501
  41 O    0.280   0.483  -3.461
  42 O    4.187   2.740  -3.521

 *******************************************************************************
 FINISHED BASIS SET HANDLING 
 *******************************************************************************

 INFORMATION **** SET_MPP **** PCRYSTAL CALCULATION
 INFORMATION **** READM2 **** NEW DEFAULT: FOCK/KS MATRIX MIXING SET TO 30 %
 INFORMATION **** READM2 **** NEW DEFAULT: FULL DIRECT SCF MODE
 INFORMATION **** READM2 **** NEW DEFAULT: COULOMB BIPOLAR BUFFER SET TO 32 Mb
 INFORMATION **** READM2 **** NEW DEFAULT: EXCHANGE BIPOLAR BUFFER SET TO 32 Mb

 *******************************************************************************
 NEW DEFAULT: DFT INTEGRATION GRID INCREASED TO XLGRID
 NEW DEFAULT: DIIS ACCELERATOR ACTIVE
 USE KEYWORD NODIIS TO TURN IT OFF
 *******************************************************************************

 WARNING **** RDDFTP **** HSEsol-HJS ACTIVE
 RANGE SEPARATION - OMEGA:   0.110000000000000     
 WARNING **** RDDFTP **** HSEsol-3c has to be combined with sol-def2-mSVP basis set
 *******************************************************************************
 N. OF ATOMS PER CELL        42  COULOMB OVERLAP TOL         (T1) 10**   -6
 NUMBER OF SHELLS           234  COULOMB PENETRATION TOL     (T2) 10**   -6
 NUMBER OF AO               474  EXCHANGE OVERLAP TOL        (T3) 10**   -6
 N. OF ELECTRONS PER CELL   198  EXCHANGE PSEUDO OVP (F(G))  (T4) 10**   -6
 CORE ELECTRONS PER CELL     60  EXCHANGE PSEUDO OVP (P(G))  (T5) 10**  -12
 N. OF SYMMETRY OPERATORS     1  POLE ORDER IN MONO ZONE                  4
 *******************************************************************************
 TYPE OF CALCULATION :  RESTRICTED CLOSED SHELL
 KOHN-SHAM HAMILTONIAN

 (EXCHANGE)[CORRELATION] FUNCTIONAL:(HSEsol GGA)[PBEsol]

 RANGE-SEPARATED HYBRID FUNCTIONAL 
 OMEGA (SHORT-RANGE)[LONG-RANGE]:(    0.1100)[    0.0000]

 HYBRID EXCHANGE - PERCENTAGE OF FOCK EXCHANGE    25.0000

 CAPPA:IS1  2;IS2  2;IS3  8; K PTS MONK NET  20; SYMMOPS:K SPACE   2;G SPACE   1

 *******************************************************************************
 MAX NUMBER OF SCF CYCLES      50  CONVERGENCE ON DELTAP        10**-16
 WEIGHT OF F(I) IN F(I+1)      30% CONVERGENCE ON ENERGY        10**- 6
 SHRINK. FACT.(MONKH.)    2  2  8  NUMBER OF K POINTS IN THE IBZ     20
 SHRINKING FACTOR(GILAT NET)    8  NUMBER OF K POINTS(GILAT NET)   1028
 *******************************************************************************
 *** K POINTS COORDINATES (OBLIQUE COORDINATES IN UNITS OF IS =  2)
   1-R(  0  0  0)   2-R(  1  0  0)   3-R(  0  1  0)   4-R(  1  1  0)
   5-C(  0  0  1)   6-C(  1  0  1)   7-C(  0  1  1)   8-C(  1  1  1)
   9-C(  0  0  2)  10-C(  1  0  2)  11-C(  0  1  2)  12-C(  1  1  2)
  13-C(  0  0  3)  14-C(  1  0  3)  15-C(  0  1  3)  16-C(  1  1  3)
  17-R(  0  0  4)  18-R(  1  0  4)  19-R(  0  1  4)  20-R(  1  1  4)

 DIRECT LATTICE VECTORS COMPON. (A.U.)     RECIP. LATTICE VECTORS COMPON. (A.U.) 
        X            Y            Z              X            Y            Z
   24.5879030  -14.1935232    0.0000000      0.2555397    0.0000000   -0.2416940
    0.0000000   28.3910867    0.0000000      0.1277517    0.2213084   -0.4834367
    6.6132199   11.4562828    6.9920655      0.0000000    0.0000000    0.8986165

 DISK SPACE FOR EIGENVECTORS (FTN 10)     7189632 REALS

 SYMMETRY ADAPTION OF THE BLOCH FUNCTIONS DISABLED
 TTTTTTTTTTTTTTTTTTTTTTTTTTTTTT gordsh1     TELAPSE        0.04 TCPU        0.04

 MATRIX SIZE: P(G)  317032, F(G)   62011, P(G) IRR  159701, F(G) IRR   62491
 MAX G-VECTOR INDEX FOR 1- AND 2-ELECTRON INTEGRALS  47

 TTTTTTTTTTTTTTTTTTTTTTTTTTTTTT INPUT       TELAPSE        0.41 TCPU        0.41

 NEIGHBORS OF THE NON-EQUIVALENT ATOMS

 N = NUMBER OF NEIGHBORS AT DISTANCE R
    ATOM  N     R/ANG      R/AU   NEIGHBORS (ATOM LABELS AND CELL INDICES)
   1 B    1     1.3791     2.6061   37 O    1 2-3
   1 B    1     1.3793     2.6065   38 O    0 0 0
   1 B    1     1.5503     2.9297   25 C    0 0 0
   1 B    1     2.3895     4.5155    3 B    1 2-3
   1 B    1     2.3898     4.5160    2 B    1 1-1
   1 B    1     2.5632     4.8437   26 C    0 0 0

   2 B    1     1.3793     2.6065   39 O    0 1-2
   2 B    1     1.3793     2.6065   38 O   -1-1 1
   2 B    1     1.5504     2.9298   19 C    0 0 0
   2 B    1     2.3895     4.5156    3 B    0 1-2
   2 B    1     2.3898     4.5160    1 B   -1-1 1
   2 B    1     2.5634     4.8440   22 C    0 0 0

   3 B    1     1.3791     2.6061   37 O    0 0 0
   3 B    1     1.3793     2.6064   39 O    0 0 0
   3 B    1     1.5502     2.9294   31 C   -1-1 2
   3 B    1     2.3895     4.5155    1 B   -1-2 3
   3 B    1     2.3895     4.5156    2 B    0-1 2
   3 B    1     2.5629     4.8433   32 C   -1-1 2

   4 B    1     1.3795     2.6068   40 O    0 0 0
   4 B    1     1.3795     2.6070   41 O    0 0 0
   4 B    1     1.5513     2.9316   24 C    0 0 0
   4 B    1     2.3905     4.5174    6 B    0 0 0
   4 B    1     2.3905     4.5175    5 B    0 0 0
   4 B    1     2.5648     4.8468   23 C    0 0 0

   5 B    1     1.3795     2.6069   41 O    0 0 0
   5 B    1     1.3797     2.6072   42 O    0 0 0
   5 B    1     1.5516     2.9322   36 C    0 0 0
   5 B    1     2.3905     4.5175    4 B    0 0 0
   5 B    1     2.3911     4.5185    6 B    0 0 0
   5 B    1     2.5651     4.8473   35 C    0 0 0

   6 B    1     1.3795     2.6068   40 O    0 0 0
   6 B    1     1.3796     2.6071   42 O    0 0 0
   6 B    1     1.5516     2.9322   30 C    0 0 0
   6 B    1     2.3905     4.5174    4 B    0 0 0
   6 B    1     2.3911     4.5185    5 B    0 0 0
   6 B    1     2.5651     4.8473   29 C    0 0 0

   7 H    1     1.0913     2.0623   20 C    0 0 0
   7 H    1     2.1472     4.0576   19 C    0 0 0
   7 H    1     2.1680     4.0969   23 C    0 0 0
   7 H    1     2.5202     4.7625   10 H    0 0 0
   7 H    1     2.5676     4.8520   38 O   -1-1 1
   7 H    1     2.7321     5.1630    2 B    0 0 0

   8 H    1     1.0914     2.0625   21 C    0 0 0
   8 H    1     2.1493     4.0616   24 C    0 0 0
   8 H    1     2.1666     4.0942   22 C    0 0 0
   8 H    1     2.5198     4.7618    9 H    0 1-1
   8 H    1     2.5720     4.8604   40 O    0 0 0
   8 H    1     2.7362     5.1707    4 B    0 0 0

   9 H    1     1.0914     2.0624   22 C    0-1 1
   9 H    1     2.1471     4.0575   19 C    0-1 1
   9 H    1     2.1680     4.0970   21 C    0-1 1
   9 H    1     2.5198     4.7618    8 H    0-1 1
   9 H    1     2.5665     4.8500   39 O    0 0-1
   9 H    1     2.7315     5.1618    2 B    0-1 1

  10 H    1     1.0915     2.0626   23 C    0 0 0
  10 H    1     2.1490     4.0610   24 C    0 0 0
  10 H    1     2.1669     4.0948   20 C    0 0 0
  10 H    1     2.5202     4.7625    7 H    0 0 0
  10 H    1     2.5712     4.8588   41 O    0 0 0
  10 H    1     2.7351     5.1686    4 B    0 0 0

  11 H    1     1.0913     2.0623   26 C   -1-1 2
  11 H    1     2.1469     4.0571   25 C   -1-1 2
  11 H    1     2.1680     4.0968   29 C   -1-1 1
  11 H    1     2.5198     4.7617   14 H   -1-1 1
  11 H    1     2.5670     4.8510   38 O   -1-1 2
  11 H    1     2.7310     5.1609    1 B   -1-1 2

  12 H    1     1.0914     2.0625   27 C    0 0 0
  12 H    1     2.1493     4.0617   30 C    0 0 0
  12 H    1     2.1664     4.0939   28 C    0 0 1
  12 H    1     2.5192     4.7606   13 H    0 1-1
  12 H    1     2.5735     4.8632   40 O    0 0 0
  12 H    1     2.7371     5.1723    6 B    0 0 0

  13 H    1     1.0914     2.0624   28 C    0-1 2
  13 H    1     2.1475     4.0581   25 C    0-1 2
  13 H    1     2.1679     4.0967   27 C    0-1 1
  13 H    1     2.5192     4.7606   12 H    0-1 1
  13 H    1     2.5675     4.8519   37 O    1 1-1
  13 H    1     2.7328     5.1643    1 B    0-1 2

  14 H    1     1.0914     2.0625   29 C    0 0 0
  14 H    1     2.1491     4.0612   30 C    0 0 0
  14 H    1     2.1666     4.0942   26 C    0 0 1
  14 H    1     2.5198     4.7617   11 H    1 1-1
  14 H    1     2.5723     4.8609   42 O    0 0 0
  14 H    1     2.7355     5.1693    6 B    0 0 0

  15 H    1     1.0914     2.0624   32 C   -1-1 1
  15 H    1     2.1475     4.0582   31 C   -1-1 1
  15 H    1     2.1678     4.0966   35 C   -1-1 1
  15 H    1     2.5200     4.7621   18 H   -1-1 1
  15 H    1     2.5667     4.8503   39 O    0 0-1
  15 H    1     2.7315     5.1618    3 B    0 0-1

  16 H    1     1.0913     2.0623   33 C    0 0 0
  16 H    1     2.1487     4.0605   36 C    0 0 0
  16 H    1     2.1667     4.0945   34 C    0 0 0
  16 H    1     2.5197     4.7616   17 H    0 0 0
  16 H    1     2.5723     4.8610   41 O    0 0 0
  16 H    1     2.7359     5.1701    5 B    0 0 0

  17 H    1     1.0915     2.0626   34 C    0 0 0
  17 H    1     2.1479     4.0589   31 C    0 0 0
  17 H    1     2.1679     4.0968   33 C    0 0 0
  17 H    1     2.5197     4.7616   16 H    0 0 0
  17 H    1     2.5677     4.8522   37 O    1 1-2
  17 H    1     2.7331     5.1648    3 B    1 1-2

  18 H    1     1.0914     2.0624   35 C    0 0 0
  18 H    1     2.1486     4.0602   36 C    0 0 0
  18 H    1     2.1668     4.0947   32 C    0 0 0
  18 H    1     2.5200     4.7621   15 H    1 1-1
  18 H    1     2.5717     4.8598   42 O    0 0 0
  18 H    1     2.7349     5.1682    5 B    0 0 0

  19 C    1     1.4020     2.6495   22 C    0 0 0
  19 C    1     1.4021     2.6495   20 C    0 0 0
  19 C    1     1.5504     2.9298    2 B    0 0 0
  19 C    1     2.1471     4.0575    9 H    0 1-1
  19 C    1     2.1472     4.0576    7 H    0 0 0
  19 C    1     2.4246     4.5817   21 C    0 0 0

  20 C    1     1.0913     2.0623    7 H    0 0 0
  20 C    1     1.3914     2.6294   23 C    0 0 0
  20 C    1     1.4021     2.6495   19 C    0 0 0
  20 C    1     2.1669     4.0948   10 H    0 0 0
  20 C    1     2.4177     4.5688   22 C    0 0 0
  20 C    1     2.4250     4.5825   24 C    0 0 0

  21 C    1     1.0914     2.0625    8 H    0 0 0
  21 C    1     1.3914     2.6293   22 C    0 0 0
  21 C    1     1.4026     2.6505   24 C    0 0 0
  21 C    1     2.1680     4.0970    9 H    0 1-1
  21 C    1     2.4182     4.5697   23 C    0 0 0
  21 C    1     2.4246     4.5817   19 C    0 0 0

  22 C    1     1.0914     2.0624    9 H    0 1-1
  22 C    1     1.3914     2.6293   21 C    0 0 0
  22 C    1     1.4020     2.6495   19 C    0 0 0
  22 C    1     2.1666     4.0942    8 H    0 0 0
  22 C    1     2.4177     4.5688   20 C    0 0 0
  22 C    1     2.4250     4.5826   24 C    0 0 0

  23 C    1     1.0915     2.0626   10 H    0 0 0
  23 C    1     1.3914     2.6294   20 C    0 0 0
  23 C    1     1.4025     2.6504   24 C    0 0 0
  23 C    1     2.1680     4.0969    7 H    0 0 0
  23 C    1     2.4182     4.5697   21 C    0 0 0
  23 C    1     2.4246     4.5818   19 C    0 0 0

  24 C    1     1.4025     2.6504   23 C    0 0 0
  24 C    1     1.4026     2.6505   21 C    0 0 0
  24 C    1     1.5513     2.9316    4 B    0 0 0
  24 C    1     2.1490     4.0610   10 H    0 0 0
  24 C    1     2.1493     4.0616    8 H    0 0 0
  24 C    1     2.4250     4.5825   20 C    0 0 0

  25 C    1     1.4020     2.6494   26 C    0 0 0
  25 C    1     1.4021     2.6495   28 C    0 0 0
  25 C    1     1.5503     2.9297    1 B    0 0 0
  25 C    1     2.1469     4.0571   11 H    1 1-2
  25 C    1     2.1475     4.0581   13 H    0 1-2
  25 C    1     2.4246     4.5818   27 C    0 0-1

  26 C    1     1.0913     2.0623   11 H    1 1-2
  26 C    1     1.3914     2.6293   29 C    0 0-1
  26 C    1     1.4020     2.6494   25 C    0 0 0
  26 C    1     2.1666     4.0942   14 H    0 0-1
  26 C    1     2.4175     4.5684   28 C    0 0 0
  26 C    1     2.4251     4.5828   30 C    0 0-1

  27 C    1     1.0914     2.0625   12 H    0 0 0
  27 C    1     1.3915     2.6295   28 C    0 0 1
  27 C    1     1.4026     2.6505   30 C    0 0 0
  27 C    1     2.1679     4.0967   13 H    0 1-1
  27 C    1     2.4179     4.5691   29 C    0 0 0
  27 C    1     2.4246     4.5818   25 C    0 0 1

  28 C    1     1.0914     2.0624   13 H    0 1-2
  28 C    1     1.3915     2.6295   27 C    0 0-1
  28 C    1     1.4021     2.6495   25 C    0 0 0
  28 C    1     2.1664     4.0939   12 H    0 0-1
  28 C    1     2.4175     4.5684   26 C    0 0 0
  28 C    1     2.4253     4.5832   30 C    0 0-1

  29 C    1     1.0914     2.0625   14 H    0 0 0
  29 C    1     1.3914     2.6293   26 C    0 0 1
  29 C    1     1.4025     2.6504   30 C    0 0 0
  29 C    1     2.1680     4.0968   11 H    1 1-1
  29 C    1     2.4179     4.5691   27 C    0 0 0
  29 C    1     2.4247     4.5819   25 C    0 0 1

  30 C    1     1.4025     2.6504   29 C    0 0 0
  30 C    1     1.4026     2.6505   27 C    0 0 0
  30 C    1     1.5516     2.9322    6 B    0 0 0
  30 C    1     2.1491     4.0612   14 H    0 0 0
  30 C    1     2.1493     4.0617   12 H    0 0 0
  30 C    1     2.4251     4.5828   26 C    0 0 1

  31 C    1     1.4021     2.6496   32 C    0 0 0
  31 C    1     1.4021     2.6497   34 C    0 0 0
  31 C    1     1.5502     2.9294    3 B    1 1-2
  31 C    1     2.1475     4.0582   15 H    1 1-1
  31 C    1     2.1479     4.0589   17 H    0 0 0
  31 C    1     2.4244     4.5814   33 C    0 0 0

  32 C    1     1.0914     2.0624   15 H    1 1-1
  32 C    1     1.3914     2.6293   35 C    0 0 0
  32 C    1     1.4021     2.6496   31 C    0 0 0
  32 C    1     2.1668     4.0947   18 H    0 0 0
  32 C    1     2.4179     4.5692   34 C    0 0 0
  32 C    1     2.4251     4.5827   36 C    0 0 0

  33 C    1     1.0913     2.0623   16 H    0 0 0
  33 C    1     1.3914     2.6294   34 C    0 0 0
  33 C    1     1.4025     2.6504   36 C    0 0 0
  33 C    1     2.1679     4.0968   17 H    0 0 0
  33 C    1     2.4178     4.5690   35 C    0 0 0
  33 C    1     2.4244     4.5814   31 C    0 0 0

  34 C    1     1.0915     2.0626   17 H    0 0 0
  34 C    1     1.3914     2.6294   33 C    0 0 0
  34 C    1     1.4021     2.6497   31 C    0 0 0
  34 C    1     2.1667     4.0945   16 H    0 0 0
  34 C    1     2.4179     4.5692   32 C    0 0 0
  34 C    1     2.4253     4.5832   36 C    0 0 0

  35 C    1     1.0914     2.0624   18 H    0 0 0
  35 C    1     1.3914     2.6293   32 C    0 0 0
  35 C    1     1.4025     2.6503   36 C    0 0 0
  35 C    1     2.1678     4.0966   15 H    1 1-1
  35 C    1     2.4178     4.5690   33 C    0 0 0
  35 C    1     2.4245     4.5817   31 C    0 0 0

  36 C    1     1.4025     2.6503   35 C    0 0 0
  36 C    1     1.4025     2.6504   33 C    0 0 0
  36 C    1     1.5516     2.9322    5 B    0 0 0
  36 C    1     2.1486     4.0602   18 H    0 0 0
  36 C    1     2.1487     4.0605   16 H    0 0 0
  36 C    1     2.4251     4.5827   32 C    0 0 0

  37 O    1     1.3791     2.6061    1 B   -1-2 3
  37 O    1     1.3791     2.6061    3 B    0 0 0
  37 O    1     2.3880     4.5126   38 O   -1-2 3
  37 O    1     2.3882     4.5130   39 O    0 0 0
  37 O    1     2.5383     4.7966   31 C   -1-1 2
  37 O    1     2.5384     4.7968   25 C   -1-2 3

  38 O    1     1.3793     2.6065    1 B    0 0 0
  38 O    1     1.3793     2.6065    2 B    1 1-1
  38 O    1     2.3880     4.5126   37 O    1 2-3
  38 O    1     2.3882     4.5131   39 O    1 2-3
  38 O    1     2.5391     4.7981   19 C    1 1-1
  38 O    1     2.5395     4.7990   25 C    0 0 0

  39 O    1     1.3793     2.6064    3 B    0 0 0
  39 O    1     1.3793     2.6065    2 B    0-1 2
  39 O    1     2.3882     4.5130   37 O    0 0 0
  39 O    1     2.3882     4.5131   38 O   -1-2 3
  39 O    1     2.5390     4.7980   19 C    0-1 2
  39 O    1     2.5391     4.7982   31 C   -1-1 2

  40 O    1     1.3795     2.6068    6 B    0 0 0
  40 O    1     1.3795     2.6068    4 B    0 0 0
  40 O    1     2.3880     4.5126   42 O    0 0 0
  40 O    1     2.3884     4.5134   41 O    0 0 0
  40 O    1     2.5400     4.7998   24 C    0 0 0
  40 O    1     2.5403     4.8005   30 C    0 0 0

  41 O    1     1.3795     2.6069    5 B    0 0 0
  41 O    1     1.3795     2.6070    4 B    0 0 0
  41 O    1     2.3881     4.5128   42 O    0 0 0
  41 O    1     2.3884     4.5134   40 O    0 0 0
  41 O    1     2.5404     4.8006   24 C    0 0 0
  41 O    1     2.5405     4.8008   36 C    0 0 0

  42 O    1     1.3796     2.6071    6 B    0 0 0
  42 O    1     1.3797     2.6072    5 B    0 0 0
  42 O    1     2.3880     4.5126   40 O    0 0 0
  42 O    1     2.3881     4.5128   41 O    0 0 0
  42 O    1     2.5409     4.8016   36 C    0 0 0
  42 O    1     2.5410     4.8019   30 C    0 0 0


 SYMMETRY ALLOWED INTERNAL DEGREE(S) OF FREEDOM: 123
 TTTTTTTTTTTTTTTTTTTTTTTTTTTTTT SYMM        TELAPSE        0.42 TCPU        0.41
 TTTTTTTTTTTTTTTTTTTTTTTTTTTTTT INT_SCREEN  TELAPSE        0.45 TCPU        0.45

 DFT PARAMETERS

     ATOM       ELECTRONS   NET CHARGE   R(ANGSTROM)
   1   5  B       5.0000      0.0000     0.89000000
   7   1  H       1.0000      0.0000     1.11000000
  19   6  C       6.0000      0.0000     0.77000000
  37   8  O       8.0000      0.0000     0.74000000

 SIZE OF GRID=    1306466
 TTTTTTTTTTTTTTTTTTTTTTTTTTTTTT MAKE_GRID2  TELAPSE        8.99 TCPU        8.98
 BECKE WEIGHT FUNCTION
 RADSAFE =     2.00
 TOLERANCES - DENSITY:10**- 6; POTENTIAL:10**- 9; GRID WGT:10**-14

 RADIAL INTEGRATION  - INTERVALS (POINTS,UPPER LIMIT):            1( 75,  4.0*R)

 ANGULAR INTEGRATION - INTERVALS (ACCURACY LEVEL [N. POINTS] UPPER LIMIT):
  1(  4[  86]   0.2)  2(  8[ 194]   0.5)  3( 12[ 350]   0.9)  4( 16[ 974]   3.5)
  5( 12[ 350]9999.0)
 TTTTTTTTTTTTTTTTTTTTTTTTTTTTTT INT_CALC    TELAPSE        9.07 TCPU        9.06
 EEEEEEEEEE INT_CALC TERMINATION  DATE 19 02 2026 TIME 18:52:49.0

 *******************************************************************************
 cof-1_z37_L070_incl                                                             
 CRYSTAL - SCF - TYPE OF CALCULATION :  RESTRICTED CLOSED SHELL
 *******************************************************************************

 CAPPA:IS1  2;IS2  2;IS3  8; K PTS MONK NET  20; SYMMOPS:K SPACE   2;G SPACE   1

 TTTTTTTTTTTTTTTTTTTTTTTTTTTTTT SDIK        TELAPSE        9.64 TCPU       17.00

 AAAAAAAAAAAAAAAAAAAAAAAAAAAAAAAAAAAAAAAAAAAAAAAAAAAAAAAAAAAAAAAAAAAAAAAAAAAAAAA
         ATOMIC WAVEFUNCTION(S)


 NUCLEAR CHARGE  5.0  SYMMETRY SPECIES            S    P
 N. ELECTRONS    5.0  NUMBER OF PRIMITIVE GTOS    8    4
                      NUMBER OF CONTRACTED GTOS   4    2
                      NUMBER OF CLOSED SHELLS     2    0
                      OPEN SHELL OCCUPATION       0    1

  ZNUC  SCFIT    TOTAL HF ENERGY   KINETIC ENERGY   VIRIAL THEOREM ACCURACY
   5.0    11    -2.451164084E+01  2.462155050E+01 -1.995536038E+00  1.5E-06

 NUCLEAR CHARGE  1.0  SYMMETRY SPECIES            S
 N. ELECTRONS    1.0  NUMBER OF PRIMITIVE GTOS    4
                      NUMBER OF CONTRACTED GTOS   2
                      NUMBER OF CLOSED SHELLS     0
                      OPEN SHELL OCCUPATION       1

  ZNUC  SCFIT    TOTAL HF ENERGY   KINETIC ENERGY   VIRIAL THEOREM ACCURACY
   1.0     1    -4.977266687E-01  5.190767460E-01 -1.958869132E+00  0.0E+00

 NUCLEAR CHARGE  6.0  SYMMETRY SPECIES            S    P
 N. ELECTRONS    6.0  NUMBER OF PRIMITIVE GTOS    8    4
                      NUMBER OF CONTRACTED GTOS   4    2
                      NUMBER OF CLOSED SHELLS     2    0
                      OPEN SHELL OCCUPATION       0    2

  ZNUC  SCFIT    TOTAL HF ENERGY   KINETIC ENERGY   VIRIAL THEOREM ACCURACY
   6.0     9    -3.766704647E+01  3.775180683E+01 -1.997754800E+00  1.1E-06

 NUCLEAR CHARGE  8.0  SYMMETRY SPECIES            S    P
 N. ELECTRONS    8.0  NUMBER OF PRIMITIVE GTOS    8    4
                      NUMBER OF CONTRACTED GTOS   4    2
                      NUMBER OF CLOSED SHELLS     2    0
                      OPEN SHELL OCCUPATION       0    4

  ZNUC  SCFIT    TOTAL HF ENERGY   KINETIC ENERGY   VIRIAL THEOREM ACCURACY
   8.0    12    -7.477373220E+01  7.477365593E+01 -2.000001020E+00  3.8E-06

 AAAAAAAAAAAAAAAAAAAAAAAAAAAAAAAAAAAAAAAAAAAAAAAAAAAAAAAAAAAAAAAAAAAAAAAAAAAAAAA

 CHARGE NORMALIZATION FACTOR   1.00000000
 TOTAL ATOMIC CHARGES:
   5.0000000   5.0000000   5.0000000   5.0000000   5.0000000   5.0000000
   1.0000000   1.0000000   1.0000000   1.0000000   1.0000000   1.0000000
   1.0000000   1.0000000   1.0000000   1.0000000   1.0000000   1.0000000
   6.0000000   6.0000000   6.0000000   6.0000000   6.0000000   6.0000000
   6.0000000   6.0000000   6.0000000   6.0000000   6.0000000   6.0000000
   6.0000000   6.0000000   6.0000000   6.0000000   6.0000000   6.0000000
   8.0000000   8.0000000   8.0000000   8.0000000   8.0000000   8.0000000
 TTTTTTTTTTTTTTTTTTTTTTTTTTTTTT MOQGAD      TELAPSE        9.69 TCPU       18.36
 TTTTTTTTTTTTTTTTTTTTTTTTTTTTTT SHELLXN     TELAPSE       16.25 TCPU      228.09
 TTTTTTTTTTTTTTTTTTTTTTTTTTTTTT MONMO3      TELAPSE       16.39 TCPU      232.47
 NUMERICALLY INTEGRATED DENSITY    197.9999249387
 TTTTTTTTTTTTTTTTTTTTTTTTTTTTTT NUMDFT      TELAPSE       17.00 TCPU      251.94
 CYC   0 ETOT(AU) -1.295959325427E+03 DETOT -1.30E+03 tst  0.00E+00 PX  1.00E+00
 TTTTTTTTTTTTTTTTTTTTTTTTTTTTTT DIIS        TELAPSE       17.03 TCPU      253.10
 TTTTTTTTTTTTTTTTTTTTTTTTTTTTTT FDIK        TELAPSE       17.52 TCPU      268.56
 INSULATING STATE
 TOP OF VALENCE BANDS -    BAND     99; K    1; EIG -3.0973422E-01 AU
 BOTTOM OF VIRTUAL BANDS - BAND    100; K   17; EIG -1.5811522E-01 AU
 INDIRECT ENERGY BAND GAP:   4.1258 eV
 BOTTOM OF VIRTUAL BANDS - BAND    100; K    1; EIG -1.5761682E-01 AU
 TTTTTTTTTTTTTTTTTTTTTTTTTTTTTT PDIG        TELAPSE       17.85 TCPU      274.75
 CHARGE NORMALIZATION FACTOR   1.00000000
 TOTAL ATOMIC CHARGES:
   4.1462536   4.1621914   4.1626319   4.1619905   4.1616835   4.1451851
   0.7852965   0.7854260   0.7852108   0.7853575   0.7857591   0.7859579
   0.7857421   0.7858996   0.7852114   0.7854274   0.7852442   0.7854187
   6.0437987   6.2664154   6.2664053   6.2656241   6.2656502   6.0433005
   6.0470885   6.2656586   6.2659205   6.2655920   6.2658951   6.0457711
   6.0442240   6.2653597   6.2660153   6.2660154   6.2666945   6.0428665
   8.6955807   8.6958442   8.6957361   8.6960845   8.6962040   8.6963681
 TTTTTTTTTTTTTTTTTTTTTTTTTTTTTT MOQGAD      TELAPSE       17.90 TCPU      274.79
 TTTTTTTTTTTTTTTTTTTTTTTTTTTTTT SHELLXN     TELAPSE       24.73 TCPU      492.67
 TTTTTTTTTTTTTTTTTTTTTTTTTTTTTT MONMO3      TELAPSE       24.86 TCPU      497.04
 NUMERICALLY INTEGRATED DENSITY    197.9999511677
 TTTTTTTTTTTTTTTTTTTTTTTTTTTTTT NUMDFT      TELAPSE       25.48 TCPU      516.72
 CYC   1 ETOT(AU) -1.288816349989E+03 DETOT  7.14E+00 tst  0.00E+00 PX  1.00E+00
 TTTTTTTTTTTTTTTTTTTTTTTTTTTTTT DIIS        TELAPSE       25.53 TCPU      518.22
 DIIS TEST: 0.11123E+01 AT SCF   CYCLE   1 - MIX   30 %
 TTTTTTTTTTTTTTTTTTTTTTTTTTTTTT FDIK        TELAPSE       26.02 TCPU      534.10
 INSULATING STATE
 TOP OF VALENCE BANDS -    BAND     99; K    1; EIG -2.2081956E-01 AU
 BOTTOM OF VIRTUAL BANDS - BAND    100; K    1; EIG -8.3688599E-02 AU
 DIRECT ENERGY BAND GAP:   3.7315 eV
 TTTTTTTTTTTTTTTTTTTTTTTTTTTTTT PDIG        TELAPSE       26.36 TCPU      540.30
 CHARGE NORMALIZATION FACTOR   1.00000000
 TOTAL ATOMIC CHARGES:
   4.7085386   4.7031209   4.7037775   4.7033139   4.7028279   4.7086862
   0.9080062   0.9081243   0.9093676   0.9091641   0.9040701   0.9043016
   0.9041406   0.9041710   0.9092760   0.9092282   0.9080885   0.9080999
   5.8682488   6.1440313   6.1445898   6.1301752   6.1302808   5.8708751
   5.8928029   6.1249160   6.1265296   6.1253863   6.1265463   5.8962626
   5.8682475   6.1301705   6.1304239   6.1444564   6.1439718   5.8707536
   8.3386967   8.3390639   8.3300128   8.3387767   8.3293802   8.3390983
 TTTTTTTTTTTTTTTTTTTTTTTTTTTTTT MOQGAD      TELAPSE       26.40 TCPU      540.34
 TTTTTTTTTTTTTTTTTTTTTTTTTTTTTT SHELLXN     TELAPSE       33.23 TCPU      758.05
 TTTTTTTTTTTTTTTTTTTTTTTTTTTTTT MONMO3      TELAPSE       33.37 TCPU      762.42
 NUMERICALLY INTEGRATED DENSITY    197.9999401455
 TTTTTTTTTTTTTTTTTTTTTTTTTTTTTT NUMDFT      TELAPSE       33.98 TCPU      782.08
 CYC   2 ETOT(AU) -1.289010183467E+03 DETOT -1.94E-01 tst  3.51E-03 PX  1.59E-01
 TTTTTTTTTTTTTTTTTTTTTTTTTTTTTT DIIS        TELAPSE       34.03 TCPU      783.69
 DIIS TEST: 0.46361E+00 AT SCF   CYCLE   2 - DIIS ACTIVE - HISTORY:     2 CYCLES
 TTTTTTTTTTTTTTTTTTTTTTTTTTTTTT FDIK        TELAPSE       34.53 TCPU      799.51
 INSULATING STATE
 TOP OF VALENCE BANDS -    BAND     99; K    1; EIG -2.3402856E-01 AU
 BOTTOM OF VIRTUAL BANDS - BAND    100; K   17; EIG -7.7675903E-02 AU
 INDIRECT ENERGY BAND GAP:   4.2546 eV
 BOTTOM OF VIRTUAL BANDS - BAND    100; K    1; EIG -7.7536962E-02 AU
 TTTTTTTTTTTTTTTTTTTTTTTTTTTTTT PDIG        TELAPSE       34.85 TCPU      805.69
 CHARGE NORMALIZATION FACTOR   1.00000000
 TOTAL ATOMIC CHARGES:
   4.4940602   4.4988119   4.4993418   4.4990011   4.4985075   4.4937450
   0.8868244   0.8870862   0.8879124   0.8877585   0.8823166   0.8828353
   0.8824171   0.8826870   0.8878131   0.8878364   0.8869797   0.8869525
   5.8922993   6.1625375   6.1621683   6.1613612   6.1615063   5.8923747
   5.8940774   6.1639655   6.1636937   6.1638730   6.1638509   5.8926186
   5.8922765   6.1613521   6.1616243   6.1621908   6.1623752   5.8923849
   8.5119704   8.5123833   8.5155341   8.5122229   8.5158603   8.5126119
 TTTTTTTTTTTTTTTTTTTTTTTTTTTTTT MOQGAD      TELAPSE       34.90 TCPU      805.74
 TTTTTTTTTTTTTTTTTTTTTTTTTTTTTT SHELLXN     TELAPSE       41.73 TCPU     1023.60
 TTTTTTTTTTTTTTTTTTTTTTTTTTTTTT MONMO3      TELAPSE       41.87 TCPU     1027.97
 NUMERICALLY INTEGRATED DENSITY    197.9999415097
 TTTTTTTTTTTTTTTTTTTTTTTTTTTTTT NUMDFT      TELAPSE       42.48 TCPU     1047.66
 CYC   3 ETOT(AU) -1.289105626495E+03 DETOT -9.54E-02 tst  7.07E-04 PX  6.55E-02
 TTTTTTTTTTTTTTTTTTTTTTTTTTTTTT DIIS        TELAPSE       42.54 TCPU     1049.49
 DIIS TEST: 0.13602E-01 AT SCF   CYCLE   3 - DIIS ACTIVE - HISTORY:     3 CYCLES
 TTTTTTTTTTTTTTTTTTTTTTTTTTTTTT FDIK        TELAPSE       43.03 TCPU     1065.28
 INSULATING STATE
 TOP OF VALENCE BANDS -    BAND     99; K    1; EIG -2.4346974E-01 AU
 BOTTOM OF VIRTUAL BANDS - BAND    100; K    1; EIG -8.6314389E-02 AU
 DIRECT ENERGY BAND GAP:   4.2764 eV
 TTTTTTTTTTTTTTTTTTTTTTTTTTTTTT PDIG        TELAPSE       43.37 TCPU     1071.47
 CHARGE NORMALIZATION FACTOR   1.00000000
 TOTAL ATOMIC CHARGES:
   4.5004031   4.5034700   4.5040335   4.5035431   4.5029973   4.5001254
   0.8696261   0.8697461   0.8712240   0.8711388   0.8662878   0.8664809
   0.8663462   0.8663693   0.8711709   0.8711989   0.8696981   0.8697092
   5.9387938   6.1731286   6.1736831   6.1641759   6.1643659   5.9402691
   5.9549049   6.1623158   6.1636786   6.1626104   6.1635898   5.9570557
   5.9390670   6.1640117   6.1646115   6.1733475   6.1733240   5.9399449
   8.4828685   8.4831312   8.4757324   8.4830809   8.4754031   8.4833370
 TTTTTTTTTTTTTTTTTTTTTTTTTTTTTT MOQGAD      TELAPSE       43.41 TCPU     1071.51
 TTTTTTTTTTTTTTTTTTTTTTTTTTTTTT SHELLXN     TELAPSE       50.24 TCPU     1289.39
 TTTTTTTTTTTTTTTTTTTTTTTTTTTTTT MONMO3      TELAPSE       50.38 TCPU     1293.76
 NUMERICALLY INTEGRATED DENSITY    197.9999421958
 TTTTTTTTTTTTTTTTTTTTTTTTTTTTTT NUMDFT      TELAPSE       50.99 TCPU     1313.45
 CYC   4 ETOT(AU) -1.289108489166E+03 DETOT -2.86E-03 tst  3.37E-05 PX  1.37E-02
 TTTTTTTTTTTTTTTTTTTTTTTTTTTTTT DIIS        TELAPSE       51.06 TCPU     1315.40
 DIIS TEST: 0.39375E-02 AT SCF   CYCLE   4 - DIIS ACTIVE - HISTORY:     4 CYCLES
 TTTTTTTTTTTTTTTTTTTTTTTTTTTTTT FDIK        TELAPSE       51.55 TCPU     1331.21
 INSULATING STATE
 TOP OF VALENCE BANDS -    BAND     99; K    1; EIG -2.4181142E-01 AU
 BOTTOM OF VIRTUAL BANDS - BAND    100; K    1; EIG -8.6006060E-02 AU
 DIRECT ENERGY BAND GAP:   4.2397 eV
 TTTTTTTTTTTTTTTTTTTTTTTTTTTTTT PDIG        TELAPSE       51.88 TCPU     1337.40
 CHARGE NORMALIZATION FACTOR   1.00000000
 TOTAL ATOMIC CHARGES:
   4.5041639   4.5053782   4.5059633   4.5055957   4.5050663   4.5039927
   0.8727602   0.8729819   0.8740479   0.8739265   0.8686391   0.8690669
   0.8687288   0.8689278   0.8739633   0.8740018   0.8728927   0.8728851
   5.9215140   6.1717375   6.1715987   6.1658019   6.1658710   5.9220209
   5.9323593   6.1657895   6.1659185   6.1657875   6.1660874   5.9319530
   5.9214595   6.1657594   6.1660197   6.1715367   6.1716508   5.9220169
   8.4904042   8.4908104   8.4896394   8.4905975   8.4896966   8.4909874
 TTTTTTTTTTTTTTTTTTTTTTTTTTTTTT MOQGAD      TELAPSE       51.92 TCPU     1337.45
 TTTTTTTTTTTTTTTTTTTTTTTTTTTTTT SHELLXN     TELAPSE       58.75 TCPU     1555.20
 TTTTTTTTTTTTTTTTTTTTTTTTTTTTTT MONMO3      TELAPSE       58.89 TCPU     1559.56
 NUMERICALLY INTEGRATED DENSITY    197.9999422210
 TTTTTTTTTTTTTTTTTTTTTTTTTTTTTT NUMDFT      TELAPSE       59.51 TCPU     1579.26
 CYC   5 ETOT(AU) -1.289109391182E+03 DETOT -9.02E-04 tst  7.12E-06 PX  6.88E-03
 TTTTTTTTTTTTTTTTTTTTTTTTTTTTTT DIIS        TELAPSE       59.57 TCPU     1581.45
 DIIS TEST: 0.70662E-04 AT SCF   CYCLE   5 - DIIS ACTIVE - HISTORY:     5 CYCLES
 TTTTTTTTTTTTTTTTTTTTTTTTTTTTTT FDIK        TELAPSE       60.07 TCPU     1597.32
 INSULATING STATE
 TOP OF VALENCE BANDS -    BAND     99; K    1; EIG -2.4163427E-01 AU
 BOTTOM OF VIRTUAL BANDS - BAND    100; K    1; EIG -8.5418702E-02 AU
 DIRECT ENERGY BAND GAP:   4.2508 eV
 TTTTTTTTTTTTTTTTTTTTTTTTTTTTTT PDIG        TELAPSE       60.40 TCPU     1603.52
 CHARGE NORMALIZATION FACTOR   1.00000000
 TOTAL ATOMIC CHARGES:
   4.5029110   4.5056444   4.5062073   4.5057366   4.5052185   4.5026074
   0.8736328   0.8737807   0.8748941   0.8747684   0.8697050   0.8699606
   0.8697610   0.8698554   0.8748210   0.8748315   0.8737167   0.8737312
   5.9213009   6.1712931   6.1716645   6.1649780   6.1652529   5.9224859
   5.9312573   6.1647350   6.1658800   6.1650034   6.1657709   5.9326425
   5.9215719   6.1648715   6.1654586   6.1714195   6.1713951   5.9221663
   8.4909698   8.4912368   8.4871612   8.4912144   8.4870176   8.4914695
 TTTTTTTTTTTTTTTTTTTTTTTTTTTTTT MOQGAD      TELAPSE       60.44 TCPU     1603.56
 TTTTTTTTTTTTTTTTTTTTTTTTTTTTTT SHELLXN     TELAPSE       67.27 TCPU     1821.38
 TTTTTTTTTTTTTTTTTTTTTTTTTTTTTT MONMO3      TELAPSE       67.41 TCPU     1825.74
 NUMERICALLY INTEGRATED DENSITY    197.9999421575
 TTTTTTTTTTTTTTTTTTTTTTTTTTTTTT NUMDFT      TELAPSE       68.03 TCPU     1845.46
 CYC   6 ETOT(AU) -1.289109409542E+03 DETOT -1.84E-05 tst  1.92E-07 PX  1.40E-03
 TTTTTTTTTTTTTTTTTTTTTTTTTTTTTT DIIS        TELAPSE       68.10 TCPU     1847.74
 DIIS TEST: 0.10773E-04 AT SCF   CYCLE   6 - DIIS ACTIVE - HISTORY:     6 CYCLES
 TTTTTTTTTTTTTTTTTTTTTTTTTTTTTT FDIK        TELAPSE       68.60 TCPU     1863.68
 INSULATING STATE
 TOP OF VALENCE BANDS -    BAND     99; K    1; EIG -2.4163789E-01 AU
 BOTTOM OF VIRTUAL BANDS - BAND    100; K    1; EIG -8.5515903E-02 AU
 DIRECT ENERGY BAND GAP:   4.2483 eV
 TTTTTTTTTTTTTTTTTTTTTTTTTTTTTT PDIG        TELAPSE       68.93 TCPU     1869.87
 CHARGE NORMALIZATION FACTOR   1.00000000
 TOTAL ATOMIC CHARGES:
   4.5035497   4.5054575   4.5060319   4.5056594   4.5051313   4.5033468
   0.8736007   0.8738037   0.8749045   0.8747868   0.8695400   0.8699472
   0.8696300   0.8698070   0.8748249   0.8748566   0.8737278   0.8737118
   5.9216876   6.1711346   6.1710999   6.1650597   6.1651301   5.9223051
   5.9326089   6.1649607   6.1652040   6.1649675   6.1653615   5.9325283
   5.9216584   6.1649879   6.1653049   6.1709743   6.1711145   5.9222824
   8.4902658   8.4906606   8.4885359   8.4904643   8.4885402   8.4908453
 TTTTTTTTTTTTTTTTTTTTTTTTTTTTTT MOQGAD      TELAPSE       68.97 TCPU     1869.91
 TTTTTTTTTTTTTTTTTTTTTTTTTTTTTT SHELLXN     TELAPSE       75.80 TCPU     2087.69
 TTTTTTTTTTTTTTTTTTTTTTTTTTTTTT MONMO3      TELAPSE       75.94 TCPU     2092.06
 NUMERICALLY INTEGRATED DENSITY    197.9999421563
 TTTTTTTTTTTTTTTTTTTTTTTTTTTTTT NUMDFT      TELAPSE       76.55 TCPU     2111.75
 CYC   7 ETOT(AU) -1.289109411395E+03 DETOT -1.85E-06 tst  3.03E-08 PX  5.81E-04
 TTTTTTTTTTTTTTTTTTTTTTTTTTTTTT DIIS        TELAPSE       76.63 TCPU     2114.27
 DIIS TEST: 0.12900E-05 AT SCF   CYCLE   7 - DIIS ACTIVE - HISTORY:     7 CYCLES
 TTTTTTTTTTTTTTTTTTTTTTTTTTTTTT FDIK        TELAPSE       77.12 TCPU     2130.06
 INSULATING STATE
 TOP OF VALENCE BANDS -    BAND     99; K    1; EIG -2.4164170E-01 AU
 BOTTOM OF VIRTUAL BANDS - BAND    100; K    1; EIG -8.5529008E-02 AU
 DIRECT ENERGY BAND GAP:   4.2480 eV
 TTTTTTTTTTTTTTTTTTTTTTTTTTTTTT PDIG        TELAPSE       77.46 TCPU     2136.24
 CHARGE NORMALIZATION FACTOR   1.00000000
 TOTAL ATOMIC CHARGES:
   4.5035532   4.5055663   4.5061379   4.5057179   4.5051934   4.5033157
   0.8735741   0.8737586   0.8748727   0.8747464   0.8695544   0.8698913
   0.8696250   0.8697708   0.8747929   0.8748167   0.8736817   0.8736863
   5.9214907   6.1711804   6.1713041   6.1649750   6.1651594   5.9223596
   5.9320961   6.1647976   6.1654670   6.1649504   6.1654785   5.9326249
   5.9216200   6.1649055   6.1653308   6.1711556   6.1711831   5.9221787
   8.4905129   8.4908425   8.4882008   8.4907309   8.4881534   8.4910466
 TTTTTTTTTTTTTTTTTTTTTTTTTTTTTT MOQGAD      TELAPSE       77.50 TCPU     2136.29
 TTTTTTTTTTTTTTTTTTTTTTTTTTTTTT SHELLXN     TELAPSE       84.33 TCPU     2354.17
 TTTTTTTTTTTTTTTTTTTTTTTTTTTTTT MONMO3      TELAPSE       84.47 TCPU     2358.54
 NUMERICALLY INTEGRATED DENSITY    197.9999421559
 TTTTTTTTTTTTTTTTTTTTTTTTTTTTTT NUMDFT      TELAPSE       85.09 TCPU     2378.25
 CYC   8 ETOT(AU) -1.289109411540E+03 DETOT -1.45E-07 tst  2.26E-09 PX  1.37E-04
 TTTTTTTTTTTTTTTTTTTTTTTTTTTTTT DIIS        TELAPSE       85.17 TCPU     2380.83
 DIIS TEST: 0.46281E-07 AT SCF   CYCLE   8 - DIIS ACTIVE - HISTORY:     8 CYCLES
 TTTTTTTTTTTTTTTTTTTTTTTTTTTTTT FDIK        TELAPSE       85.66 TCPU     2396.66
 INSULATING STATE
 TOP OF VALENCE BANDS -    BAND     99; K    1; EIG -2.4164580E-01 AU
 BOTTOM OF VIRTUAL BANDS - BAND    100; K    1; EIG -8.5520834E-02 AU
 DIRECT ENERGY BAND GAP:   4.2484 eV
 TTTTTTTTTTTTTTTTTTTTTTTTTTTTTT PDIG        TELAPSE       86.00 TCPU     2402.85
 CHARGE NORMALIZATION FACTOR   1.00000000
 TOTAL ATOMIC CHARGES:
   4.5035028   4.5055517   4.5061239   4.5057227   4.5051971   4.5032745
   0.8735695   0.8737573   0.8748612   0.8747425   0.8695332   0.8699004
   0.8696156   0.8697681   0.8747844   0.8748096   0.8736854   0.8736764
   5.9215475   6.1711945   6.1712699   6.1650477   6.1651683   5.9223114
   5.9321660   6.1649355   6.1654134   6.1650013   6.1655107   5.9324797
   5.9215880   6.1649617   6.1653564   6.1711074   6.1712116   5.9222193
   8.4904828   8.4908468   8.4882001   8.4906943   8.4881645   8.4910449
 TTTTTTTTTTTTTTTTTTTTTTTTTTTTTT MOQGAD      TELAPSE       86.04 TCPU     2402.90
 TTTTTTTTTTTTTTTTTTTTTTTTTTTTTT SHELLXN     TELAPSE       92.87 TCPU     2620.71
 +++ ENERGIES IN A.U. +++
 ::: EXT EL-POLE                                  -1.4128306590431E+03
 ::: EXT EL-SPHEROPOLE                             1.5465733331953E+01
 ::: BIELET ZONE E-E                               2.0774625720537E+03
 ::: TOTAL E-E                                     6.8009764634260E+02
 ::: TOTAL E-N + N-E                              -3.1876126451466E+03
 ::: TOTAL N-N                                     7.2183089549758E+01
 ::: KINETIC ENERGY                                1.2799402032340E+03
 ::: PSEUDO TOTAL   ENERGY                        -1.1553917060203E+03
 ::: VIRIAL COEFFICIENT                            1.0511423090792E+00
 TTTTTTTTTTTTTTTTTTTTTTTTTTTTTT MONMO3      TELAPSE       93.01 TCPU     2625.08
 NUMERICALLY INTEGRATED DENSITY    197.9999421556
 EXCHANGE ENERGY: -0.126025957028E+03  CORRELATION ENERGY: -0.769174855571E+01
 TTTTTTTTTTTTTTTTTTTTTTTTTTTTTT NUMDFT      TELAPSE       93.62 TCPU     2644.77
 CYC   9 ETOT(AU) -1.289109411604E+03 DETOT -6.35E-08 tst  2.40E-10 PX  1.37E-04

 == SCF ENDED - CONVERGENCE ON ENERGY      E(AU) -1.2891094116036E+03 CYCLES   9


 ENERGY EXPRESSION=HARTREE+FOCK EXCH*0.00000+(HSESOL     EXCH)*1.00000+PBESOL     CORR


 TOTAL ENERGY(DFT)(AU)(  9) -1.2891094116036E+03 DE-6.3E-08 tester 2.4E-10
 TTTTTTTTTTTTTTTTTTTTTTTTTTTTTT EDFT        TELAPSE       93.62 TCPU     2644.78
 
 INFORMATION **** DFTD3 ENERGY **** CALCULATE DFTD3 ENERGY

           DFT-D V3(BJ)
 DF                                         hsesol3c  
 parameters
 s6       :    1.0000
 s8       :    0.0000
 a1       :    0.5196
 a2       :    4.9385
 k1 k3    :   16.0000   -4.0000
 Cutoff   :   50.2022
 CN-Cutoff:   21.1671
 ABC-Cutoff:   21.1671
 
 Edisp /kcal,au:   -24.8620 -0.03962018

 E6    /kcal :   -26.2578
 E8    /kcal :     0.0000
 E6(ABC) "   :   1.395777
 
 INFORMATION **** DFTD3 ENERGY **** NORMAL TERMINATION OF DFTD3 MODULE

 GCP ENERGY CALCULATION
  level        hsesol3c            basis:hsesol3c
  Nbf            474
  Atoms           42

  Parameters: 
  sigma     1.0000
  eta       1.4281
  alpha     0.2936
  beta      1.9467

  dmp_scal      4.0000
  dmp_exp       6.0000
 cutoffs: 
   distance [bohr] 60.0
   noise    [a.u.] 2.2E-16
 SR-damping   T
 ** gCP correction **
  Egcp:        0.0830704638 / (a.u.) ||      52.1275 / (kcal/mol)
 INFORMATION **** GCP **** NORMAL TERMINATION OF GCP MODULE

 *******************************************************************************

 DFT-D3-GCP DISPERSION AND COUNTERPOISE CORRECTION

 D3 DISPERSION ENERGY (AU)      -3.9620181538501E-02
 GCP ENERGY (AU)                 8.3070463752367E-02
 TOTAL ENERGY + DISP + GCP (AU) -1.2890659613213E+03

 *******************************************************************************

 EIGENVECTORS IN FORTRAN UNIT 10
 TTTTTTTTTTTTTTTTTTTTTTTTTTTTTT END         TELAPSE       95.22 TCPU     2652.36
 EEEEEEEEEE TERMINATION  DATE 19 02 2026 TIME 18:54:15.2
