 Default number of threads is:           32

         
 *******************************************************************************
 *                                                                             *
 *                               CRYSTAL23                                     *
 *                      public : 1.0.1 - October 2022                          *
 *                       HTTP://WWW.CRYSTAL.UNITO.IT                           *
 *                                                                             *
 *                              MAIN AUTHORS                                   *
 *                                                                             *
 *  R. DOVESI(1,11), V.R. SAUNDERS(2), C. ROETTI(1,11), R. ORLANDO(1,11),      *
 *  C.M. ZICOVICH-WILSON(1,3), F. PASCALE(4), B. CIVALLERI(1,11),              *
 *  K. DOLL(5), N.M. HARRISON(6), I.J. BUSH(7), Ph. D'ARCO(8),                 *
 *  M. LLUNELL(9), M. CAUSA'(10), Y. NOEL(8), L. MASCHIO(1,11), A. ERBA(1,11)  *
 *  M. RE'RAT(14), S. CASASSA(1,11), B.G. SEARLE(2), J.K. DESMARAIS(1)         *
 *                                                                             *
 *        CONTRIBUTIONS TO THE CODE HAVE ALSO BEEN GIVEN BY                    *
 *                                                                             *
 *  M. FERRABONE(1,11), M. DE LA PIERRE(1,11), M. FERRERO(1,11),               *
 *  J. BAIMA(1,11), E. ALBANESE(1,11), M.F. PEINTINGER(12), R. BAST(13),       *
 *  B. KIRTMAN(15), V. LACIVITA(1,11), R. DEMICHELIS(1,16)                     *
 *  G. BRANDEBURG(17), S. SALUSTRO(1,11), G. SANSONE(1,11)                     *
 *  M.T. RUGGIERO(18), L.E. DAGA(1), L. DONA'(1), A. COSSARD(1)                *
 *                                                                             *
 * (1) THEORETICAL CHEMISTRY GROUP - UNIVERSITA' DI TORINO - TORINO (ITALY)    *
 * (2) SCIENTIFIC COMPUTING DEPARTMENT - STFC DARESBURY (UK)                   *
 * (3) UNIVERSIDAD AUTONOMA DEL ESTADO DE MORELOS - CUERNAVACA (MEXICO)        *
 * (4) UNIVERSITE' DE LORRAINE - NANCY (FRANCE)                                *
 * (5) UNIVERSITAET STUTTGART- STUTTGART (GERMANY)                             *
 * (6) IMPERIAL COLLEGE - LONDON (UK)                                          *
 * (7) SCIENTIFIC COMPUTING DEPARTMENT - STFC RAL (UK)                         *
 * (8) UPMC - SORBONNE UNIVERSITES - PARIS (FRANCE)                            *
 * (9) UNIVERSIDAD DE BARCELONA - BARCELONA (SPAIN)                            *
 *(10) UNIVERSITA' DI NAPOLI "FEDERICO II" - NAPOLI (ITALY)                    *
 *(11) NIS - NANOSTRUCTURED INTERFACES AND SURFACES - TORINO (ITALY)           *
 *(12) MPI FUER CHEMISCHE ENERGIEKONVERSION - MUELHEIM AN DER RUHR (GERMANY)   *
 *(13) UNIVERSITY OF TROMSO - TROMSO (NORWAY)                                  *
 *(14) UNIVERSITE' DE PAU ET DES PAYS DE L'ADOUR - PAU (FRANCE)                *
 *(15) UNIVERSITY OF CALIFORNIA SANTA BARBARA - SANTA BARBARA (USA)            *
 *(16) CURTIN UNIVERSITY - PERTH (AUSTRALIA)                                   *
 *(17) UNIVERSITY COLLEGE LONDON - LONDON (UK)                                 *
 *(18) UNIVERSITY OF VERMONT - BURLINGTON (USA)                                *
 *                                                                             *
 *******************************************************************************
 EEEEEEEEEE STARTING  DATE 02 12 2025 TIME 07:55:30.0
 COF-5_z31_inc_L050                                                              

 CRYSTAL CALCULATION
 (INPUT ACCORDING TO THE INTERNATIONAL TABLES FOR X-RAY CRYSTALLOGRAPHY)
 CRYSTAL FAMILY                       :  TRICLINIC   
 CRYSTAL CLASS  (GROTH - 1921)        :  TRICLINIC PEDIAL                     

 SPACE GROUP (NONCENTROSYMMETRIC)     :  P 1             

 LATTICE PARAMETERS  (ANGSTROMS AND DEGREES) - CONVENTIONAL CELL
        A           B           C        ALPHA        BETA       GAMMA
    15.02070    15.04439     5.88303    42.64098    89.99962   120.05310


 NUMBER OF IRREDUCIBLE ATOMS IN THE CONVENTIONAL CELL:   42

 INPUT COORDINATES

 ATOM AT. N.              COORDINATES
   1   5     5.191983900000E-01  3.585109000000E-02  5.006221300000E-01
   2   5     6.779758600000E-01  1.948739800000E-01  5.006321200000E-01
   3   5     5.190195400000E-01  1.951104000000E-01  4.992022400000E-01
   4   5     1.314484600000E-01  4.202940000000E-01  5.054168300000E-01
   5   5     2.892442600000E-01  4.182405400000E-01  5.094604700000E-01
   6   5     2.906657000000E-01  5.798695400000E-01  5.034952000000E-01
   7   1     8.072526100000E-01  1.158278500000E-01  5.045202900000E-01
   8   1     3.932650000000E-03  5.021692900000E-01  4.929306800000E-01
   9   1     8.095770100000E-01  4.049229100000E-01  4.927923900000E-01
  10   1     1.775080000000E-03  2.132072500000E-01  5.040888900000E-01
  11   1     4.972910300000E-01  7.096271400000E-01  5.042109500000E-01
  12   1     3.130095800000E-01 -9.126137000000E-02  4.945628000000E-01
  13   1     2.144176100000E-01  7.145250300000E-01  4.958695700000E-01
  14   1     5.957510700000E-01 -9.596819000000E-02  5.023497300000E-01
  15   1     4.981296100000E-01  4.994373100000E-01  4.977669200000E-01
  16   1     3.092241500000E-01  1.146438700000E-01  5.060495400000E-01
  17   1     2.119303700000E-01  2.107054300000E-01  5.056846800000E-01
  18   1     5.957412500000E-01  4.032196700000E-01  4.987003100000E-01
  19   6     7.973165200000E-01  2.543990500000E-01  5.003821400000E-01
  20   6     8.515006100000E-01  2.005444900000E-01  5.021481200000E-01
  21   6    -4.025114000000E-02  4.173353300000E-01  4.957556300000E-01
  22   6     8.527054500000E-01  3.636809600000E-01  4.960927600000E-01
  23   6    -4.134479000000E-02  2.543565900000E-01  5.015044600000E-01
  24   6     1.357698000000E-02  3.628669400000E-01  4.993213200000E-01
  25   6     3.499430300000E-01  6.998721300000E-01  5.018635100000E-01
  26   6     4.577411500000E-01  7.542043600000E-01  5.022536600000E-01
  27   6     3.522978100000E-01 -1.362247200000E-01  4.969776300000E-01
  28   6     2.979640700000E-01  7.563905500000E-01  4.980962300000E-01
  29   6     5.121012700000E-01 -1.383772200000E-01  5.008163500000E-01
  30   6     4.597346000000E-01 -8.276036000000E-02  4.991922000000E-01
  31   6     3.499096300000E-01  3.615482400000E-01  4.999633600000E-01
  32   6     4.578650300000E-01  4.150149700000E-01  4.994119200000E-01
  33   6     3.501563000000E-01  1.992487400000E-01  5.039351600000E-01
  34   6     2.963719200000E-01  2.525277500000E-01  5.033272600000E-01
  35   6     5.114979600000E-01  3.615901600000E-01  5.003502200000E-01
  36   6     4.585041900000E-01  2.533900500000E-01  5.015919900000E-01
  37   8     4.662800400000E-01  8.906204000000E-02  4.995920800000E-01
  38   8     6.248636600000E-01  8.821124000000E-02  5.025819300000E-01
  39   8     6.253425100000E-01  2.486903500000E-01  4.980625100000E-01
  40   8     1.848048400000E-01  5.271878700000E-01  5.027286000000E-01
  41   8     1.831230400000E-01  3.652513500000E-01  5.102158700000E-01
  42   8     3.431373200000E-01  5.259492100000E-01  5.052001700000E-01

 *******************************************************************************

 << INFORMATION >>: FROM NOW ON, ALL COORDINATES REFER TO THE PRIMITIVE CELL

 *******************************************************************************

 LATTICE PARAMETERS  (ANGSTROMS AND DEGREES) - PRIMITIVE CELL
       A          B          C        ALPHA      BETA     GAMMA        VOLUME
   15.02070   15.04439    5.88303    42.64098  89.99962 120.05310    606.409470

 COORDINATES OF THE EQUIVALENT ATOMS (FRACTIONAL UNITS)

 N. ATOM EQUIV AT. N.          X                  Y                  Z

   1   1   1    5 B    -4.80801610000E-01  3.58510900000E-02 -4.99377870000E-01

   2   2   1    5 B    -3.22024140000E-01  1.94873980000E-01 -4.99367880000E-01

   3   3   1    5 B    -4.80980460000E-01  1.95110400000E-01  4.99202240000E-01

   4   4   1    5 B     1.31448460000E-01  4.20294000000E-01 -4.94583170000E-01

   5   5   1    5 B     2.89244260000E-01  4.18240540000E-01 -4.90539530000E-01

   6   6   1    5 B     2.90665700000E-01 -4.20130460000E-01 -4.96504800000E-01

   7   7   1    1 H    -1.92747390000E-01  1.15827850000E-01 -4.95479710000E-01

   8   8   1    1 H     3.93265000000E-03 -4.97830710000E-01  4.92930680000E-01

   9   9   1    1 H    -1.90422990000E-01  4.04922910000E-01  4.92792390000E-01

  10  10   1    1 H     1.77508000000E-03  2.13207250000E-01 -4.95911110000E-01

  11  11   1    1 H     4.97291030000E-01 -2.90372860000E-01 -4.95789050000E-01

  12  12   1    1 H     3.13009580000E-01 -9.12613700000E-02  4.94562800000E-01

  13  13   1    1 H     2.14417610000E-01 -2.85474970000E-01  4.95869570000E-01

  14  14   1    1 H    -4.04248930000E-01 -9.59681900000E-02 -4.97650270000E-01

  15  15   1    1 H     4.98129610000E-01  4.99437310000E-01  4.97766920000E-01

  16  16   1    1 H     3.09224150000E-01  1.14643870000E-01 -4.93950460000E-01

  17  17   1    1 H     2.11930370000E-01  2.10705430000E-01 -4.94315320000E-01

  18  18   1    1 H    -4.04258750000E-01  4.03219670000E-01  4.98700310000E-01

  19  19   1    6 C    -2.02683480000E-01  2.54399050000E-01 -4.99617860000E-01

  20  20   1    6 C    -1.48499390000E-01  2.00544490000E-01 -4.97851880000E-01

  21  21   1    6 C    -4.02511400000E-02  4.17335330000E-01  4.95755630000E-01

  22  22   1    6 C    -1.47294550000E-01  3.63680960000E-01  4.96092760000E-01

  23  23   1    6 C    -4.13447900000E-02  2.54356590000E-01 -4.98495540000E-01

  24  24   1    6 C     1.35769800000E-02  3.62866940000E-01  4.99321320000E-01

  25  25   1    6 C     3.49943030000E-01 -3.00127870000E-01 -4.98136490000E-01

  26  26   1    6 C     4.57741150000E-01 -2.45795640000E-01 -4.97746340000E-01

  27  27   1    6 C     3.52297810000E-01 -1.36224720000E-01  4.96977630000E-01

  28  28   1    6 C     2.97964070000E-01 -2.43609450000E-01  4.98096230000E-01

  29  29   1    6 C    -4.87898730000E-01 -1.38377220000E-01 -4.99183650000E-01

  30  30   1    6 C     4.59734600000E-01 -8.27603600000E-02  4.99192200000E-01

  31  31   1    6 C     3.49909630000E-01  3.61548240000E-01  4.99963360000E-01

  32  32   1    6 C     4.57865030000E-01  4.15014970000E-01  4.99411920000E-01

  33  33   1    6 C     3.50156300000E-01  1.99248740000E-01 -4.96064840000E-01

  34  34   1    6 C     2.96371920000E-01  2.52527750000E-01 -4.96672740000E-01

  35  35   1    6 C    -4.88502040000E-01  3.61590160000E-01 -4.99649780000E-01

  36  36   1    6 C     4.58504190000E-01  2.53390050000E-01 -4.98408010000E-01

  37  37   1    8 O     4.66280040000E-01  8.90620400000E-02  4.99592080000E-01

  38  38   1    8 O    -3.75136340000E-01  8.82112400000E-02 -4.97418070000E-01

  39  39   1    8 O    -3.74657490000E-01  2.48690350000E-01  4.98062510000E-01

  40  40   1    8 O     1.84804840000E-01 -4.72812130000E-01 -4.97271400000E-01

  41  41   1    8 O     1.83123040000E-01  3.65251350000E-01 -4.89784130000E-01

  42  42   1    8 O     3.43137320000E-01 -4.74050790000E-01 -4.94799830000E-01

 NUMBER OF SYMMETRY OPERATORS         :    1
 *******************************************************************************
 * GEOMETRY EDITING - INPUT COORDINATES ARE GIVEN IN ANGSTROM         
 *******************************************************************************

 GCALCO - MAX INDICES DIRECT LATTICE VECTOR     8    13    29
 NO.OF VECTORS CREATED 6999 STARS 3500 RMAX   193.60525 BOHR

 GEOMETRY FOR WAVE FUNCTION - DIMENSIONALITY OF THE SYSTEM    3
 (NON PERIODIC DIRECTION: LATTICE PARAMETER FORMALLY SET TO 500)
 *******************************************************************************
 LATTICE PARAMETERS (ANGSTROMS AND DEGREES) - BOHR = 0.5291772083 ANGSTROM
 PRIMITIVE CELL - CENTRING CODE 1/0 VOLUME=   606.409470 - DENSITY  1.068 g/cm^3
         A              B              C           ALPHA      BETA       GAMMA 
    15.02070100    15.04438700     5.88302600    42.640982  89.999624 120.053104
 *******************************************************************************
 ATOMS IN THE ASYMMETRIC UNIT   42 - ATOMS IN THE UNIT CELL:   42
     ATOM                 X/A                 Y/B                 Z/C    
 *******************************************************************************
      1 T   5 B    -4.808016100000E-01  3.585109000000E-02 -4.993778700000E-01
      2 T   5 B    -3.220241400000E-01  1.948739800000E-01 -4.993678800000E-01
      3 T   5 B    -4.809804600000E-01  1.951104000000E-01  4.992022400000E-01
      4 T   5 B     1.314484600000E-01  4.202940000000E-01 -4.945831700000E-01
      5 T   5 B     2.892442600000E-01  4.182405400000E-01 -4.905395300000E-01
      6 T   5 B     2.906657000000E-01 -4.201304600000E-01 -4.965048000000E-01
      7 T   1 H    -1.927473900000E-01  1.158278500000E-01 -4.954797100000E-01
      8 T   1 H     3.932650000000E-03 -4.978307100000E-01  4.929306800000E-01
      9 T   1 H    -1.904229900000E-01  4.049229100000E-01  4.927923900000E-01
     10 T   1 H     1.775080000000E-03  2.132072500000E-01 -4.959111100000E-01
     11 T   1 H     4.972910300000E-01 -2.903728600000E-01 -4.957890500000E-01
     12 T   1 H     3.130095800000E-01 -9.126137000000E-02  4.945628000000E-01
     13 T   1 H     2.144176100000E-01 -2.854749700000E-01  4.958695700000E-01
     14 T   1 H    -4.042489300000E-01 -9.596819000000E-02 -4.976502700000E-01
     15 T   1 H     4.981296100000E-01  4.994373100000E-01  4.977669200000E-01
     16 T   1 H     3.092241500000E-01  1.146438700000E-01 -4.939504600000E-01
     17 T   1 H     2.119303700000E-01  2.107054300000E-01 -4.943153200000E-01
     18 T   1 H    -4.042587500000E-01  4.032196700000E-01  4.987003100000E-01
     19 T   6 C    -2.026834800000E-01  2.543990500000E-01 -4.996178600000E-01
     20 T   6 C    -1.484993900000E-01  2.005444900000E-01 -4.978518800000E-01
     21 T   6 C    -4.025114000000E-02  4.173353300000E-01  4.957556300000E-01
     22 T   6 C    -1.472945500000E-01  3.636809600000E-01  4.960927600000E-01
     23 T   6 C    -4.134479000000E-02  2.543565900000E-01 -4.984955400000E-01
     24 T   6 C     1.357698000000E-02  3.628669400000E-01  4.993213200000E-01
     25 T   6 C     3.499430300000E-01 -3.001278700000E-01 -4.981364900000E-01
     26 T   6 C     4.577411500000E-01 -2.457956400000E-01 -4.977463400000E-01
     27 T   6 C     3.522978100000E-01 -1.362247200000E-01  4.969776300000E-01
     28 T   6 C     2.979640700000E-01 -2.436094500000E-01  4.980962300000E-01
     29 T   6 C    -4.878987300000E-01 -1.383772200000E-01 -4.991836500000E-01
     30 T   6 C     4.597346000000E-01 -8.276036000000E-02  4.991922000000E-01
     31 T   6 C     3.499096300000E-01  3.615482400000E-01  4.999633600000E-01
     32 T   6 C     4.578650300000E-01  4.150149700000E-01  4.994119200000E-01
     33 T   6 C     3.501563000000E-01  1.992487400000E-01 -4.960648400000E-01
     34 T   6 C     2.963719200000E-01  2.525277500000E-01 -4.966727400000E-01
     35 T   6 C    -4.885020400000E-01  3.615901600000E-01 -4.996497800000E-01
     36 T   6 C     4.585041900000E-01  2.533900500000E-01 -4.984080100000E-01
     37 T   8 O     4.662800400000E-01  8.906204000000E-02  4.995920800000E-01
     38 T   8 O    -3.751363400000E-01  8.821124000000E-02 -4.974180700000E-01
     39 T   8 O    -3.746574900000E-01  2.486903500000E-01  4.980625100000E-01
     40 T   8 O     1.848048400000E-01 -4.728121300000E-01 -4.972714000000E-01
     41 T   8 O     1.831230400000E-01  3.652513500000E-01 -4.897841300000E-01
     42 T   8 O     3.431373200000E-01 -4.740507900000E-01 -4.947998300000E-01

 T = ATOM BELONGING TO THE ASYMMETRIC UNIT

 ****    1 SYMMOPS - TRANSLATORS IN FRACTIONAL UNITS
 **** MATRICES AND TRANSLATORS IN THE CRYSTALLOGRAPHIC REFERENCE FRAME
   V INV                    ROTATION MATRICES                   TRANSLATORS
   1   1  1.00 -0.00  0.00  0.00  1.00  0.00 -0.00 -0.00  1.00  0.00  0.00  0.00

 DIRECT LATTICE VECTORS CARTESIAN COMPONENTS (ANGSTROM)
          X                    Y                    Z
   0.130013421718E+02  -0.752240388864E+01   0.000000000000E+00
   0.000000000000E+00   0.150443870000E+02   0.000000000000E+00
   0.250395321981E+01   0.432762892961E+01   0.310029692727E+01


 CARTESIAN COORDINATES - PRIMITIVE CELL
 *******************************************************************************
 *      ATOM          X(ANGSTROM)         Y(ANGSTROM)         Z(ANGSTROM)
 *******************************************************************************
    1     5 B     2.995903878130E+00  5.189373637786E+00 -4.648516603185E+00
    2     5 B    -5.437139842705E+00  3.193076330315E+00 -1.548188703944E+00
    3     5 B    -2.499459262407E+00 -2.002950366846E+00  4.647972098036E+00
    4     5 B     4.705932854289E-01  3.193884748526E+00 -1.533354682233E+00
    5     5 B     2.532275559895E+00  1.993487335511E+00 -1.520818197566E+00
    6     5 B     3.186621088168E-02  6.095951151230E-02 -4.639609233092E+00
    7     1 H    -3.746632785310E+00  1.048230389807E+00 -1.536134222440E+00
    8     1 H    -1.218548128187E+00  5.330838298071E+00 -1.572065454711E+00
    9     1 H     1.262127861081E+00 -1.059879863461E+00  4.628099659777E+00
   10     1 H    -1.218659798160E+00  1.048100245359E+00 -1.537471690535E+00
   11     1 H     2.720065032084E+00  4.618613766259E-01 -4.637390195567E+00
   12     1 H     5.307906768080E+00 -1.587271569414E+00  1.533291529185E+00
   13     1 H     4.029350921670E+00 -3.761792294304E+00  1.537342904200E+00
   14     1 H    -3.997918437601E+00  3.771124357293E+00  1.557433324336E+00
   15     1 H     5.218785367743E+00  1.593117652151E+00 -1.557071674700E+00
   16     1 H     2.783500137184E+00 -2.738996501456E+00 -1.531393093364E+00
   17     1 H     1.517636819847E+00 -5.635050866709E-01 -1.532524267701E+00
   18     1 H    -1.503230867933E+00  5.486221728859E-01  4.646415965999E+00
   19     6 C    -3.886177025266E+00  3.189784054060E+00 -1.548963716170E+00
   20     6 C    -3.177289199603E+00  1.979623108524E+00 -1.543488653802E+00
   21     6 C    -1.785923157775E+00  4.399157022144E+00 -1.563307270907E+00
   22     6 C     1.831119438944E+00 -1.990486487972E+00  4.638331786746E+00
   23     6 C    -1.785747274253E+00  1.980347464844E+00 -1.545484190922E+00
   24     6 C    -1.077157030235E+00  3.190227607709E+00 -1.552252573156E+00
   25     6 C     7.984653858116E-01  1.413355549926E+00 -4.644667956586E+00
   26     6 C     2.200962546754E+00  1.421538071970E+00 -4.643458375739E+00
   27     6 C     5.824753110987E+00 -2.548809053592E+00  1.540778219213E+00
   28     6 C     5.121142487847E+00 -3.750785266822E+00  1.544246211356E+00
   29     6 C     2.904118110371E+00  2.622443430966E+00 -4.647914463516E+00
   30     6 C    -5.774221412478E+00  4.979334267917E+00  1.547644043780E+00
   31     6 C     3.297226474079E+00  6.431370512131E-01 -1.550262058517E+00
   32     6 C     4.699410788807E+00  6.330406805007E-01 -1.551971686254E+00
   33     6 C     3.310378716551E+00 -1.783226511478E+00 -1.537948299181E+00
   34     6 C     2.609587435512E+00 -5.797194024273E-01 -1.539832969683E+00
   35     6 C     5.399060322717E+00 -5.700907835074E-01 -1.549062677648E+00
   36     6 C     4.713179519965E+00 -1.793880650492E+00 -1.545212821932E+00
   37     8 O    -3.184167406753E+00 -3.199968032654E+00  4.649180717790E+00
   38     8 O    -6.122787495374E+00  1.996370265253E+00 -1.542143713992E+00
   39     8 O    -1.119971779321E+00 -2.001609515105E+00  4.644438596619E+00
   40     8 O     1.157566636692E+00  4.389035594421E+00 -1.541688993442E+00
   41     8 O     1.154448753252E+00  1.997853223223E+00 -1.518476233267E+00
   42     8 O     3.222290081737E+00  3.190055888602E+00 -1.534026392565E+00

 *******************************************************************************
 STARTING BASIS SET HANDLING 
 *******************************************************************************

 Loading internal basis set: SOLDEF2MSVP         

 Please cite in your publication:
 L. Dona', J. G. Brandenburg and B. Civalleri, J. Chem. Phys., 151, 121101 (2019
 )                                                                              
                                                                                
                    

 *******************************************************************************
 LOCAL ATOMIC FUNCTIONS BASIS SET
 *******************************************************************************
   ATOM   X(AU)   Y(AU)   Z(AU)  N. TYPE  EXPONENT  S COEF   P COEF   D/F/G COEF
 *******************************************************************************
   1 B    5.661   9.806  -8.784
                                  1 S  
                                         2.410E+03 1.755E-03 0.000E+00 0.000E+00
                                         3.619E+02 1.344E-02 0.000E+00 0.000E+00
                                         8.231E+01 6.637E-02 0.000E+00 0.000E+00
                                         2.311E+01 2.303E-01 0.000E+00 0.000E+00
                                         7.252E+00 5.150E-01 0.000E+00 0.000E+00
                                  2 S  
                                         2.367E+00 1.000E+00 0.000E+00 0.000E+00
                                  3 S  
                                         5.533E-01 1.000E+00 0.000E+00 0.000E+00
                                  4 S  
                                         1.716E-01 1.000E+00 0.000E+00 0.000E+00
                           5-     7 P  
                                         6.002E+00 0.000E+00-3.555E-02 0.000E+00
                                         1.240E+00 0.000E+00-1.983E-01 0.000E+00
                                         3.367E-01 0.000E+00-5.048E-01 0.000E+00
                           8-    10 P  
                                         1.256E-01 0.000E+00 1.000E+00 0.000E+00
                          11-    15 D  
                                         8.880E-01 0.000E+00 0.000E+00 1.000E+00
   2 B  -10.275   6.034  -2.926
   3 B   -4.723  -3.785   8.783
   4 B    0.889   6.036  -2.898
   5 B    4.785   3.767  -2.874
   6 B    0.060   0.115  -8.768
   7 H   -7.080   1.981  -2.903
                                 91 S  
                                         1.874E+01 1.968E-02 0.000E+00 0.000E+00
                                         2.826E+00 1.380E-01 0.000E+00 0.000E+00
                                         6.401E-01 4.783E-01 0.000E+00 0.000E+00
                                 92 S  
                                         1.756E-01 1.000E+00 0.000E+00 0.000E+00
   8 H   -2.303  10.074  -2.971
   9 H    2.385  -2.003   8.746
  10 H   -2.303   1.981  -2.905
  11 H    5.140   0.873  -8.763
  12 H   10.030  -3.000   2.898
  13 H    7.614  -7.109   2.905
  14 H   -7.555   7.126   2.943
  15 H    9.862   3.011  -2.942
  16 H    5.260  -5.176  -2.894
  17 H    2.868  -1.065  -2.896
  18 H   -2.841   1.037   8.780
  19 C   -7.344   6.028  -2.927
                                115 S  
                                         3.624E+03 1.634E-03 0.000E+00 0.000E+00
                                         5.440E+02 1.252E-02 0.000E+00 0.000E+00
                                         1.237E+02 6.211E-02 0.000E+00 0.000E+00
                                         3.476E+01 2.182E-01 0.000E+00 0.000E+00
                                         1.093E+01 4.980E-01 0.000E+00 0.000E+00
                                116 S  
                                         3.574E+00 1.000E+00 0.000E+00 0.000E+00
                                117 S  
                                         7.742E-01 1.000E+00 0.000E+00 0.000E+00
                                118 S  
                                         2.330E-01 1.000E+00 0.000E+00 0.000E+00
                         119-   121 P  
                                         9.443E+00 0.000E+00 3.790E-02 0.000E+00
                                         2.002E+00 0.000E+00 2.082E-01 0.000E+00
                                         5.463E-01 0.000E+00 5.047E-01 0.000E+00
                         122-   124 P  
                                         1.820E-01 0.000E+00 1.000E+00 0.000E+00
                         125-   129 D  
                                         8.880E-01 0.000E+00 0.000E+00 1.000E+00
  20 C   -6.004   3.741  -2.917
  21 C   -3.375   8.313  -2.954
  22 C    3.460  -3.761   8.765
  23 C   -3.375   3.742  -2.921
  24 C   -2.036   6.029  -2.933
  25 C    1.509   2.671  -8.777
  26 C    4.159   2.686  -8.775
  27 C   11.007  -4.817   2.912
  28 C    9.678  -7.088   2.918
  29 C    5.488   4.956  -8.783
  30 C  -10.912   9.410   2.925
  31 C    6.231   1.215  -2.930
  32 C    8.881   1.196  -2.933
  33 C    6.256  -3.370  -2.906
  34 C    4.931  -1.096  -2.910
  35 C   10.203  -1.077  -2.927
  36 C    8.907  -3.390  -2.920
  37 O   -6.017  -6.047   8.786
                                385 S  
                                         6.773E+03 1.727E-03 0.000E+00 0.000E+00
                                         1.017E+03 1.325E-02 0.000E+00 0.000E+00
                                         2.313E+02 6.603E-02 0.000E+00 0.000E+00
                                         6.501E+01 2.353E-01 0.000E+00 0.000E+00
                                         2.050E+01 5.498E-01 0.000E+00 0.000E+00
                                386 S  
                                         6.716E+00 1.000E+00 0.000E+00 0.000E+00
                                387 S  
                                         1.147E+00 1.000E+00 0.000E+00 0.000E+00
                                388 S  
                                         3.342E-01 1.000E+00 0.000E+00 0.000E+00
                         389-   391 P  
                                         1.769E+01 0.000E+00 4.359E-02 0.000E+00
                                         3.854E+00 0.000E+00 2.318E-01 0.000E+00
                                         1.047E+00 0.000E+00 5.146E-01 0.000E+00
                         392-   394 P  
                                         2.759E-01 0.000E+00 1.000E+00 0.000E+00
                         395-   399 D  
                                         8.000E-01 0.000E+00 0.000E+00 1.000E+00
  38 O  -11.570   3.773  -2.914
  39 O   -2.116  -3.782   8.777
  40 O    2.187   8.294  -2.913
  41 O    2.182   3.775  -2.870
  42 O    6.089   6.028  -2.899

 *******************************************************************************
 FINISHED BASIS SET HANDLING 
 *******************************************************************************

 INFORMATION **** SET_MPP **** PCRYSTAL CALCULATION
 INFORMATION **** READM2 **** NEW DEFAULT: FOCK/KS MATRIX MIXING SET TO 30 %
 INFORMATION **** READM2 **** NEW DEFAULT: FULL DIRECT SCF MODE
 INFORMATION **** READM2 **** NEW DEFAULT: COULOMB BIPOLAR BUFFER SET TO 32 Mb
 INFORMATION **** READM2 **** NEW DEFAULT: EXCHANGE BIPOLAR BUFFER SET TO 32 Mb

 *******************************************************************************
 NEW DEFAULT: DFT INTEGRATION GRID INCREASED TO XLGRID
 NEW DEFAULT: DIIS ACCELERATOR ACTIVE
 USE KEYWORD NODIIS TO TURN IT OFF
 *******************************************************************************

 WARNING **** RDDFTP **** HSEsol-HJS ACTIVE
 RANGE SEPARATION - OMEGA:   0.110000000000000     
 WARNING **** RDDFTP **** HSEsol-3c has to be combined with sol-def2-mSVP basis set
 *******************************************************************************
 N. OF ATOMS PER CELL        42  COULOMB OVERLAP TOL         (T1) 10**   -6
 NUMBER OF SHELLS           234  COULOMB PENETRATION TOL     (T2) 10**   -6
 NUMBER OF AO               474  EXCHANGE OVERLAP TOL        (T3) 10**   -6
 N. OF ELECTRONS PER CELL   198  EXCHANGE PSEUDO OVP (F(G))  (T4) 10**   -6
 CORE ELECTRONS PER CELL     60  EXCHANGE PSEUDO OVP (P(G))  (T5) 10**  -12
 N. OF SYMMETRY OPERATORS     1  POLE ORDER IN MONO ZONE                  4
 *******************************************************************************
 TYPE OF CALCULATION :  RESTRICTED CLOSED SHELL
 KOHN-SHAM HAMILTONIAN

 (EXCHANGE)[CORRELATION] FUNCTIONAL:(HSEsol GGA)[PBEsol]

 RANGE-SEPARATED HYBRID FUNCTIONAL 
 OMEGA (SHORT-RANGE)[LONG-RANGE]:(    0.1100)[    0.0000]

 HYBRID EXCHANGE - PERCENTAGE OF FOCK EXCHANGE    25.0000

 CAPPA:IS1  2;IS2  2;IS3  8; K PTS MONK NET  20; SYMMOPS:K SPACE   2;G SPACE   1

 *******************************************************************************
 MAX NUMBER OF SCF CYCLES      50  CONVERGENCE ON DELTAP        10**-16
 WEIGHT OF F(I) IN F(I+1)      30% CONVERGENCE ON ENERGY        10**- 6
 SHRINK. FACT.(MONKH.)    2  2  8  NUMBER OF K POINTS IN THE IBZ     20
 SHRINKING FACTOR(GILAT NET)    8  NUMBER OF K POINTS(GILAT NET)   1028
 *******************************************************************************
 *** K POINTS COORDINATES (OBLIQUE COORDINATES IN UNITS OF IS =  2)
   1-R(  0  0  0)   2-R(  1  0  0)   3-R(  0  1  0)   4-R(  1  1  0)
   5-C(  0  0  1)   6-C(  1  0  1)   7-C(  0  1  1)   8-C(  1  1  1)
   9-C(  0  0  2)  10-C(  1  0  2)  11-C(  0  1  2)  12-C(  1  1  2)
  13-C(  0  0  3)  14-C(  1  0  3)  15-C(  0  1  3)  16-C(  1  1  3)
  17-R(  0  0  4)  18-R(  1  0  4)  19-R(  0  1  4)  20-R(  1  1  4)

 DIRECT LATTICE VECTORS COMPON. (A.U.)     RECIP. LATTICE VECTORS COMPON. (A.U.) 
        X            Y            Z              X            Y            Z
   24.5689761  -14.2152832    0.0000000      0.2557366    0.0000000   -0.2065455
    0.0000000   28.4297713    0.0000000      0.1278719    0.2210072   -0.4117743
    4.7317858    8.1780335    5.8587121      0.0000000    0.0000000    1.0724516

 DISK SPACE FOR EIGENVECTORS (FTN 10)     7189632 REALS

 SYMMETRY ADAPTION OF THE BLOCH FUNCTIONS DISABLED
 TTTTTTTTTTTTTTTTTTTTTTTTTTTTTT gordsh1     TELAPSE        0.04 TCPU        0.04

 MATRIX SIZE: P(G)  386434, F(G)   75140, P(G) IRR  194408, F(G) IRR   75764
 MAX G-VECTOR INDEX FOR 1- AND 2-ELECTRON INTEGRALS  75

 TTTTTTTTTTTTTTTTTTTTTTTTTTTTTT INPUT       TELAPSE        0.41 TCPU        0.41

 NEIGHBORS OF THE NON-EQUIVALENT ATOMS

 N = NUMBER OF NEIGHBORS AT DISTANCE R
    ATOM  N     R/ANG      R/AU   NEIGHBORS (ATOM LABELS AND CELL INDICES)
   1 B    1     1.3787     2.6054   38 O    1 1-1
   1 B    1     1.3795     2.6068   37 O    1 2-3
   1 B    1     1.5517     2.9323   30 C    1 1-2
   1 B    1     2.3868     4.5104    2 B    1 1-1
   1 B    1     2.3912     4.5187    3 B    1 2-3
   1 B    1     2.5629     4.8431   27 C    0 1-2

   2 B    1     1.3792     2.6064   38 O    0 0 0
   2 B    1     1.3798     2.6075   39 O    0 1-2
   2 B    1     1.5510     2.9309   19 C    0 0 0
   2 B    1     2.3868     4.5104    1 B   -1-1 1
   2 B    1     2.3894     4.5154    3 B    0 1-2
   2 B    1     2.5618     4.8411   22 C    0 1-2

   3 B    1     1.3790     2.6060   37 O    0 0 0
   3 B    1     1.3795     2.6069   39 O    0 0 0
   3 B    1     1.5529     2.9346   36 C   -1-1 2
   3 B    1     2.3894     4.5154    2 B    0-1 2
   3 B    1     2.3912     4.5187    1 B   -1-2 3
   3 B    1     2.5679     4.8526   35 C   -1-1 2

   4 B    1     1.3778     2.6037   41 O    0 0 0
   4 B    1     1.3785     2.6051   40 O    0 0 0
   4 B    1     1.5479     2.9251   24 C    0 0 0
   4 B    1     2.3857     4.5084    5 B    0 0 0
   4 B    1     2.3859     4.5087    6 B    0 0 1
   4 B    1     2.5584     4.8347   21 C    0 0 0

   5 B    1     1.3778     2.6037   41 O    0 0 0
   5 B    1     1.3813     2.6103   42 O    0 0 0
   5 B    1     1.5522     2.9333   31 C    0 0 0
   5 B    1     2.3857     4.5084    4 B    0 0 0
   5 B    1     2.3952     4.5262    6 B    0 0 1
   5 B    1     2.5590     4.8357   32 C    0 0 0

   6 B    1     1.3783     2.6045   40 O    0 0-1
   6 B    1     1.3812     2.6101   42 O    0 0-1
   6 B    1     1.5546     2.9377   25 C    0 0 0
   6 B    1     2.3859     4.5087    4 B    0 0-1
   6 B    1     2.3952     4.5262    5 B    0 0-1
   6 B    1     2.5605     4.8386   26 C    0 0 0

   7 H    1     1.0916     2.0629   20 C    0 0 0
   7 H    1     2.1461     4.0556   19 C    0 0 0
   7 H    1     2.1712     4.1029   23 C    0 0 0
   7 H    1     2.5280     4.7772   10 H    0 0 0
   7 H    1     2.5583     4.8346   38 O    0 0 0
   7 H    1     2.7310     5.1608    2 B    0 0 0

   8 H    1     1.0909     2.0615   21 C    0 0 0
   8 H    1     2.1454     4.0542   24 C    0 0 0
   8 H    1     2.1688     4.0985   22 C    0 1-2
   8 H    1     2.5272     4.7758    9 H    0 1-2
   8 H    1     2.5561     4.8304   40 O    0 0 0
   8 H    1     2.7242     5.1480    4 B    0 0 0

   9 H    1     1.0908     2.0613   22 C    0 0 0
   9 H    1     2.1442     4.0519   19 C    0-1 2
   9 H    1     2.1694     4.0995   21 C    0-1 2
   9 H    1     2.5272     4.7758    8 H    0-1 2
   9 H    1     2.5615     4.8406   39 O    0 0 0
   9 H    1     2.7248     5.1491    2 B    0-1 2

  10 H    1     1.0912     2.0621   23 C    0 0 0
  10 H    1     2.1468     4.0570   24 C    0 0 0
  10 H    1     2.1689     4.0986   20 C    0 0 0
  10 H    1     2.5280     4.7772    7 H    0 0 0
  10 H    1     2.5562     4.8305   41 O    0 0 0
  10 H    1     2.7309     5.1607    4 B    0 0 0

  11 H    1     1.0911     2.0619   26 C    0 0 0
  11 H    1     2.1443     4.0521   25 C    0 0 0
  11 H    1     2.1684     4.0977   29 C    0 0 0
  11 H    1     2.5222     4.7664   14 H    1 1-2
  11 H    1     2.5622     4.8419   42 O    0 0-1
  11 H    1     2.7179     5.1361    6 B    0 0 0

  12 H    1     1.0917     2.0630   27 C    0 0 0
  12 H    1     2.1441     4.0518   30 C    1 0 0
  12 H    1     2.1716     4.1037   28 C    0 0 0
  12 H    1     2.5226     4.7669   13 H    0 0 0
  12 H    1     2.5541     4.8265   37 O    1 1-1
  12 H    1     2.7237     5.1470    1 B    0-1 2

  13 H    1     1.0919     2.0633   28 C    0 0 0
  13 H    1     2.1522     4.0670   25 C    0-1 2
  13 H    1     2.1668     4.0946   27 C    0 0 0
  13 H    1     2.5226     4.7669   12 H    0 0 0
  13 H    1     2.5922     4.8986   40 O    0-1 1
  13 H    1     2.7582     5.2123    6 B    0-1 2

  14 H    1     1.0915     2.0627   29 C   -1-1 2
  14 H    1     2.1483     4.0597   30 C    0 0 0
  14 H    1     2.1679     4.0968   26 C   -1-1 2
  14 H    1     2.5222     4.7664   11 H   -1-1 2
  14 H    1     2.5809     4.8771   38 O    0 0 1
  14 H    1     2.7404     5.1785    1 B   -1-1 2

  15 H    1     1.0916     2.0628   32 C    0 0 0
  15 H    1     2.1436     4.0508   31 C    0 0 0
  15 H    1     2.1707     4.1021   35 C    0 0 0
  15 H    1     2.5217     4.7654   18 H    1 1-2
  15 H    1     2.5567     4.8315   42 O    0 0 0
  15 H    1     2.7164     5.1333    5 B    0 0 0

  16 H    1     1.0914     2.0624   33 C    0 0 0
  16 H    1     2.1487     4.0605   36 C    0 0 0
  16 H    1     2.1663     4.0937   34 C    0 0 0
  16 H    1     2.5170     4.7564   17 H    0 0 0
  16 H    1     2.5779     4.8716   37 O    1 1-2
  16 H    1     2.7395     5.1769    3 B    1 1-2

  17 H    1     1.0921     2.0638   34 C    0 0 0
  17 H    1     2.1502     4.0632   31 C    0 0 0
  17 H    1     2.1683     4.0976   33 C    0 0 0
  17 H    1     2.5170     4.7564   16 H    0 0 0
  17 H    1     2.5870     4.8888   41 O    0 0 0
  17 H    1     2.7510     5.1986    5 B    0 0 0

  18 H    1     1.0913     2.0622   35 C   -1-1 2
  18 H    1     2.1494     4.0619   36 C   -1-1 2
  18 H    1     2.1656     4.0923   32 C   -1-1 2
  18 H    1     2.5217     4.7654   15 H   -1-1 2
  18 H    1     2.5789     4.8734   39 O    0 0 0
  18 H    1     2.7392     5.1763    3 B    0 0 0

  19 C    1     1.4017     2.6488   22 C    0 1-2
  19 C    1     1.4025     2.6504   20 C    0 0 0
  19 C    1     1.5510     2.9309    2 B    0 0 0
  19 C    1     2.1442     4.0519    9 H    0 1-2
  19 C    1     2.1461     4.0556    7 H    0 0 0
  19 C    1     2.4236     4.5799   21 C    0 0 0

  20 C    1     1.0916     2.0629    7 H    0 0 0
  20 C    1     1.3915     2.6296   23 C    0 0 0
  20 C    1     1.4025     2.6504   19 C    0 0 0
  20 C    1     2.1689     4.0986   10 H    0 0 0
  20 C    1     2.4191     4.5714   22 C    0 1-2
  20 C    1     2.4241     4.5809   24 C    0 0 0

  21 C    1     1.0909     2.0615    8 H    0 0 0
  21 C    1     1.3909     2.6284   22 C    0 1-2
  21 C    1     1.4014     2.6483   24 C    0 0 0
  21 C    1     2.1694     4.0995    9 H    0 1-2
  21 C    1     2.4189     4.5710   23 C    0 0 0
  21 C    1     2.4236     4.5799   19 C    0 0 0

  22 C    1     1.0908     2.0613    9 H    0 0 0
  22 C    1     1.3909     2.6284   21 C    0-1 2
  22 C    1     1.4017     2.6488   19 C    0-1 2
  22 C    1     2.1688     4.0985    8 H    0-1 2
  22 C    1     2.4191     4.5714   20 C    0-1 2
  22 C    1     2.4226     4.5780   24 C    0-1 2

  23 C    1     1.0912     2.0621   10 H    0 0 0
  23 C    1     1.3915     2.6296   20 C    0 0 0
  23 C    1     1.4021     2.6496   24 C    0 0 0
  23 C    1     2.1712     4.1029    7 H    0 0 0
  23 C    1     2.4189     4.5710   21 C    0 0 0
  23 C    1     2.4237     4.5802   19 C    0 0 0

  24 C    1     1.4014     2.6483   21 C    0 0 0
  24 C    1     1.4021     2.6496   23 C    0 0 0
  24 C    1     1.5479     2.9251    4 B    0 0 0
  24 C    1     2.1454     4.0542    8 H    0 0 0
  24 C    1     2.1468     4.0570   10 H    0 0 0
  24 C    1     2.4226     4.5780   22 C    0 1-2

  25 C    1     1.4025     2.6504   26 C    0 0 0
  25 C    1     1.4037     2.6525   28 C    0 1-2
  25 C    1     1.5546     2.9377    6 B    0 0 0
  25 C    1     2.1443     4.0521   11 H    0 0 0
  25 C    1     2.1522     4.0670   13 H    0 1-2
  25 C    1     2.4271     4.5865   27 C    0 1-2

  26 C    1     1.0911     2.0619   11 H    0 0 0
  26 C    1     1.3916     2.6298   29 C    0 0 0
  26 C    1     1.4025     2.6504   25 C    0 0 0
  26 C    1     2.1679     4.0968   14 H    1 1-2
  26 C    1     2.4165     4.5665   28 C    0 1-2
  26 C    1     2.4246     4.5818   30 C    1 1-2

  27 C    1     1.0917     2.0630   12 H    0 0 0
  27 C    1     1.3928     2.6320   28 C    0 0 0
  27 C    1     1.4024     2.6501   30 C    1 0 0
  27 C    1     2.1668     4.0946   13 H    0 0 0
  27 C    1     2.4166     4.5668   29 C    0-1 2
  27 C    1     2.4271     4.5865   25 C    0-1 2

  28 C    1     1.0919     2.0633   13 H    0 0 0
  28 C    1     1.3928     2.6320   27 C    0 0 0
  28 C    1     1.4037     2.6525   25 C    0-1 2
  28 C    1     2.1716     4.1037   12 H    0 0 0
  28 C    1     2.4165     4.5665   26 C    0-1 2
  28 C    1     2.4277     4.5877   30 C    1 0 0

  29 C    1     1.0915     2.0627   14 H    1 1-2
  29 C    1     1.3916     2.6298   26 C    0 0 0
  29 C    1     1.4023     2.6499   30 C    1 1-2
  29 C    1     2.1684     4.0977   11 H    0 0 0
  29 C    1     2.4166     4.5668   27 C    0 1-2
  29 C    1     2.4281     4.5884   25 C    0 0 0

  30 C    1     1.4023     2.6499   29 C   -1-1 2
  30 C    1     1.4024     2.6501   27 C   -1 0 0
  30 C    1     1.5517     2.9323    1 B   -1-1 2
  30 C    1     2.1441     4.0518   12 H   -1 0 0
  30 C    1     2.1483     4.0597   14 H    0 0 0
  30 C    1     2.4246     4.5818   26 C   -1-1 2

  31 C    1     1.4022     2.6498   32 C    0 0 0
  31 C    1     1.4030     2.6512   34 C    0 0 0
  31 C    1     1.5522     2.9333    5 B    0 0 0
  31 C    1     2.1436     4.0508   15 H    0 0 0
  31 C    1     2.1502     4.0632   17 H    0 0 0
  31 C    1     2.4264     4.5853   33 C    0 0 0

  32 C    1     1.0916     2.0628   15 H    0 0 0
  32 C    1     1.3918     2.6301   35 C    0 0 0
  32 C    1     1.4022     2.6498   31 C    0 0 0
  32 C    1     2.1656     4.0923   18 H    1 1-2
  32 C    1     2.4163     4.5661   34 C    0 0 0
  32 C    1     2.4270     4.5863   36 C    0 0 0

  33 C    1     1.0914     2.0624   16 H    0 0 0
  33 C    1     1.3927     2.6318   34 C    0 0 0
  33 C    1     1.4029     2.6510   36 C    0 0 0
  33 C    1     2.1683     4.0976   17 H    0 0 0
  33 C    1     2.4155     4.5645   35 C    0 0 0
  33 C    1     2.4264     4.5853   31 C    0 0 0

  34 C    1     1.0921     2.0638   17 H    0 0 0
  34 C    1     1.3927     2.6318   33 C    0 0 0
  34 C    1     1.4030     2.6512   31 C    0 0 0
  34 C    1     2.1663     4.0937   16 H    0 0 0
  34 C    1     2.4163     4.5661   32 C    0 0 0
  34 C    1     2.4289     4.5899   36 C    0 0 0

  35 C    1     1.0913     2.0622   18 H    1 1-2
  35 C    1     1.3918     2.6301   32 C    0 0 0
  35 C    1     1.4029     2.6511   36 C    0 0 0
  35 C    1     2.1707     4.1021   15 H    0 0 0
  35 C    1     2.4155     4.5645   33 C    0 0 0
  35 C    1     2.4269     4.5861   31 C    0 0 0

  36 C    1     1.4029     2.6510   33 C    0 0 0
  36 C    1     1.4029     2.6511   35 C    0 0 0
  36 C    1     1.5529     2.9346    3 B    1 1-2
  36 C    1     2.1487     4.0605   16 H    0 0 0
  36 C    1     2.1494     4.0619   18 H    1 1-2
  36 C    1     2.4270     4.5863   32 C    0 0 0

  37 O    1     1.3790     2.6060    3 B    0 0 0
  37 O    1     1.3795     2.6068    1 B   -1-2 3
  37 O    1     2.3868     4.5105   39 O    0 0 0
  37 O    1     2.3885     4.5136   38 O    0-1 2
  37 O    1     2.5389     4.7979   30 C    0-1 1
  37 O    1     2.5412     4.8021   36 C   -1-1 2

  38 O    1     1.3787     2.6054    1 B   -1-1 1
  38 O    1     1.3792     2.6064    2 B    0 0 0
  38 O    1     2.3885     4.5136   37 O    0 1-2
  38 O    1     2.3912     4.5187   39 O    0 1-2
  38 O    1     2.5351     4.7906   19 C    0 0 0
  38 O    1     2.5405     4.8008   30 C    0 0-1

  39 O    1     1.3795     2.6069    3 B    0 0 0
  39 O    1     1.3798     2.6075    2 B    0-1 2
  39 O    1     2.3868     4.5105   37 O    0 0 0
  39 O    1     2.3912     4.5187   38 O    0-1 2
  39 O    1     2.5416     4.8030   19 C    0-1 2
  39 O    1     2.5427     4.8050   36 C   -1-1 2

  40 O    1     1.3783     2.6045    6 B    0 0 1
  40 O    1     1.3785     2.6051    4 B    0 0 0
  40 O    1     2.3876     4.5119   42 O    0 0 0
  40 O    1     2.3913     4.5189   41 O    0 0 0
  40 O    1     2.5354     4.7912   25 C    0 0 1
  40 O    1     2.5360     4.7923   24 C    0 0 0

  41 O    1     1.3778     2.6037    4 B    0 0 0
  41 O    1     1.3778     2.6037    5 B    0 0 0
  41 O    1     2.3870     4.5107   42 O    0 0 0
  41 O    1     2.3913     4.5189   40 O    0 0 0
  41 O    1     2.5304     4.7818   24 C    0 0 0
  41 O    1     2.5353     4.7910   31 C    0 0 0

  42 O    1     1.3812     2.6101    6 B    0 0 1
  42 O    1     1.3813     2.6103    5 B    0 0 0
  42 O    1     2.3870     4.5107   41 O    0 0 0
  42 O    1     2.3876     4.5119   40 O    0 0 0
  42 O    1     2.5481     4.8152   31 C    0 0 0
  42 O    1     2.5522     4.8230   25 C    0 0 1


 SYMMETRY ALLOWED INTERNAL DEGREE(S) OF FREEDOM: 123
 TTTTTTTTTTTTTTTTTTTTTTTTTTTTTT SYMM        TELAPSE        0.41 TCPU        0.41
 TTTTTTTTTTTTTTTTTTTTTTTTTTTTTT INT_SCREEN  TELAPSE        0.45 TCPU        0.45

 DFT PARAMETERS

     ATOM       ELECTRONS   NET CHARGE   R(ANGSTROM)
   1   5  B       5.0000      0.0000     0.89000000
   7   1  H       1.0000      0.0000     1.11000000
  19   6  C       6.0000      0.0000     0.77000000
  37   8  O       8.0000      0.0000     0.74000000

 SIZE OF GRID=    1244868
 TTTTTTTTTTTTTTTTTTTTTTTTTTTTTT MAKE_GRID2  TELAPSE       11.74 TCPU       11.71
 BECKE WEIGHT FUNCTION
 RADSAFE =     2.00
 TOLERANCES - DENSITY:10**- 6; POTENTIAL:10**- 9; GRID WGT:10**-14

 RADIAL INTEGRATION  - INTERVALS (POINTS,UPPER LIMIT):            1( 75,  4.0*R)

 ANGULAR INTEGRATION - INTERVALS (ACCURACY LEVEL [N. POINTS] UPPER LIMIT):
  1(  4[  86]   0.2)  2(  8[ 194]   0.5)  3( 12[ 350]   0.9)  4( 16[ 974]   3.5)
  5( 12[ 350]9999.0)
 TTTTTTTTTTTTTTTTTTTTTTTTTTTTTT INT_CALC    TELAPSE       11.83 TCPU       11.81
 EEEEEEEEEE INT_CALC TERMINATION  DATE 02 12 2025 TIME 07:55:41.8

 *******************************************************************************
 COF-5_z31_inc_L050                                                              
 CRYSTAL - SCF - TYPE OF CALCULATION :  RESTRICTED CLOSED SHELL
 *******************************************************************************

 CAPPA:IS1  2;IS2  2;IS3  8; K PTS MONK NET  20; SYMMOPS:K SPACE   2;G SPACE   1

 TTTTTTTTTTTTTTTTTTTTTTTTTTTTTT SDIK        TELAPSE       12.46 TCPU       19.35

 AAAAAAAAAAAAAAAAAAAAAAAAAAAAAAAAAAAAAAAAAAAAAAAAAAAAAAAAAAAAAAAAAAAAAAAAAAAAAAA
         ATOMIC WAVEFUNCTION(S)


 NUCLEAR CHARGE  5.0  SYMMETRY SPECIES            S    P
 N. ELECTRONS    5.0  NUMBER OF PRIMITIVE GTOS    8    4
                      NUMBER OF CONTRACTED GTOS   4    2
                      NUMBER OF CLOSED SHELLS     2    0
                      OPEN SHELL OCCUPATION       0    1

  ZNUC  SCFIT    TOTAL HF ENERGY   KINETIC ENERGY   VIRIAL THEOREM ACCURACY
   5.0    11    -2.451164084E+01  2.462155050E+01 -1.995536038E+00  1.5E-06

 NUCLEAR CHARGE  1.0  SYMMETRY SPECIES            S
 N. ELECTRONS    1.0  NUMBER OF PRIMITIVE GTOS    4
                      NUMBER OF CONTRACTED GTOS   2
                      NUMBER OF CLOSED SHELLS     0
                      OPEN SHELL OCCUPATION       1

  ZNUC  SCFIT    TOTAL HF ENERGY   KINETIC ENERGY   VIRIAL THEOREM ACCURACY
   1.0     1    -4.977266687E-01  5.190767460E-01 -1.958869132E+00  0.0E+00

 NUCLEAR CHARGE  6.0  SYMMETRY SPECIES            S    P
 N. ELECTRONS    6.0  NUMBER OF PRIMITIVE GTOS    8    4
                      NUMBER OF CONTRACTED GTOS   4    2
                      NUMBER OF CLOSED SHELLS     2    0
                      OPEN SHELL OCCUPATION       0    2

  ZNUC  SCFIT    TOTAL HF ENERGY   KINETIC ENERGY   VIRIAL THEOREM ACCURACY
   6.0     9    -3.766704647E+01  3.775180683E+01 -1.997754800E+00  1.1E-06

 NUCLEAR CHARGE  8.0  SYMMETRY SPECIES            S    P
 N. ELECTRONS    8.0  NUMBER OF PRIMITIVE GTOS    8    4
                      NUMBER OF CONTRACTED GTOS   4    2
                      NUMBER OF CLOSED SHELLS     2    0
                      OPEN SHELL OCCUPATION       0    4

  ZNUC  SCFIT    TOTAL HF ENERGY   KINETIC ENERGY   VIRIAL THEOREM ACCURACY
   8.0    12    -7.477373220E+01  7.477365593E+01 -2.000001020E+00  3.8E-06

 AAAAAAAAAAAAAAAAAAAAAAAAAAAAAAAAAAAAAAAAAAAAAAAAAAAAAAAAAAAAAAAAAAAAAAAAAAAAAAA

 CHARGE NORMALIZATION FACTOR   1.00000000
 TOTAL ATOMIC CHARGES:
   5.0000000   5.0000000   5.0000000   5.0000000   5.0000000   5.0000000
   1.0000000   1.0000000   1.0000000   1.0000000   1.0000000   1.0000000
   1.0000000   1.0000000   1.0000000   1.0000000   1.0000000   1.0000000
   6.0000000   6.0000000   6.0000000   6.0000000   6.0000000   6.0000000
   6.0000000   6.0000000   6.0000000   6.0000000   6.0000000   6.0000000
   6.0000000   6.0000000   6.0000000   6.0000000   6.0000000   6.0000000
   8.0000000   8.0000000   8.0000000   8.0000000   8.0000000   8.0000000
 TTTTTTTTTTTTTTTTTTTTTTTTTTTTTT MOQGAD      TELAPSE       12.51 TCPU       20.81
 TTTTTTTTTTTTTTTTTTTTTTTTTTTTTT SHELLXN     TELAPSE       23.57 TCPU      370.61
 TTTTTTTTTTTTTTTTTTTTTTTTTTTTTT MONMO3      TELAPSE       23.74 TCPU      375.95
 NUMERICALLY INTEGRATED DENSITY    198.0000114304
 TTTTTTTTTTTTTTTTTTTTTTTTTTTTTT NUMDFT      TELAPSE       24.46 TCPU      399.03
 CYC   0 ETOT(AU) -1.296008472172E+03 DETOT -1.30E+03 tst  0.00E+00 PX  1.00E+00
 TTTTTTTTTTTTTTTTTTTTTTTTTTTTTT DIIS        TELAPSE       24.50 TCPU      400.26
 TTTTTTTTTTTTTTTTTTTTTTTTTTTTTT FDIK        TELAPSE       24.99 TCPU      415.78
 INSULATING STATE
 TOP OF VALENCE BANDS -    BAND     99; K    1; EIG -3.0533810E-01 AU
 BOTTOM OF VIRTUAL BANDS - BAND    100; K   17; EIG -1.8346340E-01 AU
 INDIRECT ENERGY BAND GAP:   3.3164 eV
 BOTTOM OF VIRTUAL BANDS - BAND    100; K    1; EIG -1.5833731E-01 AU
 TTTTTTTTTTTTTTTTTTTTTTTTTTTTTT PDIG        TELAPSE       25.33 TCPU      421.97
 CHARGE NORMALIZATION FACTOR   1.00000000
 TOTAL ATOMIC CHARGES:
   4.1338884   4.1576581   4.1586654   4.1601382   4.1571899   4.1321352
   0.7856697   0.7856758   0.7837906   0.7837895   0.7860875   0.7859598
   0.7869811   0.7865259   0.7854443   0.7859721   0.7839830   0.7841661
   6.0463326   6.2714759   6.2713692   6.2683092   6.2671008   6.0489740
   6.0448169   6.2560813   6.2546311   6.2565375   6.2570417   6.0482372
   6.0457361   6.2712163   6.2723716   6.2678282   6.2695488   6.0428165
   8.7050434   8.7043271   8.6991184   8.7037570   8.6976502   8.7059585
 TTTTTTTTTTTTTTTTTTTTTTTTTTTTTT MOQGAD      TELAPSE       25.38 TCPU      422.02
 TTTTTTTTTTTTTTTTTTTTTTTTTTTTTT SHELLXN     TELAPSE       36.77 TCPU      785.36
 TTTTTTTTTTTTTTTTTTTTTTTTTTTTTT MONMO3      TELAPSE       36.93 TCPU      790.68
 NUMERICALLY INTEGRATED DENSITY    198.0000058622
 TTTTTTTTTTTTTTTTTTTTTTTTTTTTTT NUMDFT      TELAPSE       37.67 TCPU      814.25
 CYC   1 ETOT(AU) -1.288831344528E+03 DETOT  7.18E+00 tst  0.00E+00 PX  1.00E+00
 TTTTTTTTTTTTTTTTTTTTTTTTTTTTTT DIIS        TELAPSE       37.72 TCPU      815.83
 DIIS TEST: 0.10790E+01 AT SCF   CYCLE   1 - MIX   30 %
 TTTTTTTTTTTTTTTTTTTTTTTTTTTTTT FDIK        TELAPSE       38.21 TCPU      831.46
 INSULATING STATE
 TOP OF VALENCE BANDS -    BAND     99; K    1; EIG -2.2281322E-01 AU
 BOTTOM OF VIRTUAL BANDS - BAND    100; K   17; EIG -1.1298116E-01 AU
 INDIRECT ENERGY BAND GAP:   2.9887 eV
 BOTTOM OF VIRTUAL BANDS - BAND    100; K    1; EIG -8.0607288E-02 AU
 TTTTTTTTTTTTTTTTTTTTTTTTTTTTTT PDIG        TELAPSE       38.55 TCPU      837.66
 CHARGE NORMALIZATION FACTOR   1.00000000
 TOTAL ATOMIC CHARGES:
   4.6587919   4.6857696   4.6864044   4.6869495   4.6865773   4.6575570
   0.9036590   0.9041606   0.9157367   0.9160254   0.8851987   0.8849133
   0.8857857   0.8861049   0.9031717   0.9037483   0.9157161   0.9154613
   5.8747888   6.1514084   6.1497372   6.1394627   6.1409336   5.8712339
   5.9131985   6.1500352   6.1518417   6.1563837   6.1539908   5.9065912
   5.8760664   6.1468454   6.1496030   6.1414683   6.1384171   5.8770100
   8.3392272   8.3377975   8.3377958   8.3365315   8.3353019   8.3425989
 TTTTTTTTTTTTTTTTTTTTTTTTTTTTTT MOQGAD      TELAPSE       38.60 TCPU      837.71
 TTTTTTTTTTTTTTTTTTTTTTTTTTTTTT SHELLXN     TELAPSE       49.99 TCPU     1200.93
 TTTTTTTTTTTTTTTTTTTTTTTTTTTTTT MONMO3      TELAPSE       50.15 TCPU     1206.26
 NUMERICALLY INTEGRATED DENSITY    198.0000062579
 TTTTTTTTTTTTTTTTTTTTTTTTTTTTTT NUMDFT      TELAPSE       50.89 TCPU     1229.81
 CYC   2 ETOT(AU) -1.289021200198E+03 DETOT -1.90E-01 tst  3.32E-03 PX  1.59E-01
 TTTTTTTTTTTTTTTTTTTTTTTTTTTTTT DIIS        TELAPSE       50.94 TCPU     1231.52
 DIIS TEST: 0.44257E+00 AT SCF   CYCLE   2 - DIIS ACTIVE - HISTORY:     2 CYCLES
 TTTTTTTTTTTTTTTTTTTTTTTTTTTTTT FDIK        TELAPSE       51.43 TCPU     1247.28
 INSULATING STATE
 TOP OF VALENCE BANDS -    BAND     99; K    1; EIG -2.3045418E-01 AU
 BOTTOM OF VIRTUAL BANDS - BAND    100; K   17; EIG -1.0758936E-01 AU
 INDIRECT ENERGY BAND GAP:   3.3433 eV
 BOTTOM OF VIRTUAL BANDS - BAND    100; K    1; EIG -7.6733925E-02 AU
 TTTTTTTTTTTTTTTTTTTTTTTTTTTTTT PDIG        TELAPSE       51.78 TCPU     1253.48
 CHARGE NORMALIZATION FACTOR   1.00000000
 TOTAL ATOMIC CHARGES:
   4.4515906   4.4901659   4.4904370   4.4917813   4.4897941   4.4503172
   0.8851138   0.8850648   0.8928642   0.8931668   0.8738830   0.8736700
   0.8752864   0.8748000   0.8838825   0.8851061   0.8932282   0.8925141
   5.9004454   6.1696588   6.1699903   6.1562382   6.1558350   5.9019191
   5.9074940   6.1663226   6.1673113   6.1699433   6.1700852   5.9087871
   5.9010558   6.1694070   6.1699255   6.1566187   6.1579210   5.9004277
   8.5235859   8.5229566   8.5178344   8.5224515   8.5154868   8.5256331
 TTTTTTTTTTTTTTTTTTTTTTTTTTTTTT MOQGAD      TELAPSE       51.83 TCPU     1253.53
 TTTTTTTTTTTTTTTTTTTTTTTTTTTTTT SHELLXN     TELAPSE       63.22 TCPU     1616.89
 TTTTTTTTTTTTTTTTTTTTTTTTTTTTTT MONMO3      TELAPSE       63.39 TCPU     1622.21
 NUMERICALLY INTEGRATED DENSITY    198.0000062062
 TTTTTTTTTTTTTTTTTTTTTTTTTTTTTT NUMDFT      TELAPSE       64.13 TCPU     1645.77
 CYC   3 ETOT(AU) -1.289112314241E+03 DETOT -9.11E-02 tst  5.74E-04 PX  6.61E-02
 TTTTTTTTTTTTTTTTTTTTTTTTTTTTTT DIIS        TELAPSE       64.19 TCPU     1647.70
 DIIS TEST: 0.15975E-01 AT SCF   CYCLE   3 - DIIS ACTIVE - HISTORY:     3 CYCLES
 TTTTTTTTTTTTTTTTTTTTTTTTTTTTTT FDIK        TELAPSE       64.68 TCPU     1663.48
 INSULATING STATE
 TOP OF VALENCE BANDS -    BAND     99; K    1; EIG -2.4263581E-01 AU
 BOTTOM OF VIRTUAL BANDS - BAND    100; K   17; EIG -1.1641377E-01 AU
 INDIRECT ENERGY BAND GAP:   3.4347 eV
 BOTTOM OF VIRTUAL BANDS - BAND    100; K    1; EIG -8.4189009E-02 AU
 TTTTTTTTTTTTTTTTTTTTTTTTTTTTTT PDIG        TELAPSE       65.02 TCPU     1669.67
 CHARGE NORMALIZATION FACTOR   1.00000000
 TOTAL ATOMIC CHARGES:
   4.4583019   4.4942032   4.4945634   4.4957757   4.4938328   4.4568812
   0.8678435   0.8682170   0.8755253   0.8758661   0.8536455   0.8536160
   0.8549159   0.8548062   0.8672010   0.8680077   0.8758456   0.8756116
   5.9433442   6.1782440   6.1768081   6.1689621   6.1691031   5.9420066
   5.9690899   6.1776644   6.1775065   6.1808637   6.1796400   5.9654967
   5.9440771   6.1757584   6.1777798   6.1699925   6.1682915   5.9428614
   8.4860765   8.4848271   8.4832687   8.4837905   8.4814979   8.4883898
 TTTTTTTTTTTTTTTTTTTTTTTTTTTTTT MOQGAD      TELAPSE       65.07 TCPU     1669.72
 TTTTTTTTTTTTTTTTTTTTTTTTTTTTTT SHELLXN     TELAPSE       76.46 TCPU     2032.97
 TTTTTTTTTTTTTTTTTTTTTTTTTTTTTT MONMO3      TELAPSE       76.63 TCPU     2038.30
 NUMERICALLY INTEGRATED DENSITY    198.0000061517
 TTTTTTTTTTTTTTTTTTTTTTTTTTTTTT NUMDFT      TELAPSE       77.37 TCPU     2061.85
 CYC   4 ETOT(AU) -1.289115799383E+03 DETOT -3.49E-03 tst  3.37E-05 PX  1.51E-02
 TTTTTTTTTTTTTTTTTTTTTTTTTTTTTT DIIS        TELAPSE       77.43 TCPU     2063.82
 DIIS TEST: 0.42315E-02 AT SCF   CYCLE   4 - DIIS ACTIVE - HISTORY:     4 CYCLES
 TTTTTTTTTTTTTTTTTTTTTTTTTTTTTT FDIK        TELAPSE       77.92 TCPU     2079.44
 INSULATING STATE
 TOP OF VALENCE BANDS -    BAND     99; K    1; EIG -2.4011954E-01 AU
 BOTTOM OF VIRTUAL BANDS - BAND    100; K   17; EIG -1.1582757E-01 AU
 INDIRECT ENERGY BAND GAP:   3.3822 eV
 BOTTOM OF VIRTUAL BANDS - BAND    100; K    1; EIG -8.4147984E-02 AU
 TTTTTTTTTTTTTTTTTTTTTTTTTTTTTT PDIG        TELAPSE       78.26 TCPU     2085.64
 CHARGE NORMALIZATION FACTOR   1.00000000
 TOTAL ATOMIC CHARGES:
   4.4608553   4.4962831   4.4967549   4.4978926   4.4962377   4.4594948
   0.8705494   0.8706368   0.8790872   0.8793885   0.8574350   0.8571868
   0.8586510   0.8583428   0.8695965   0.8706598   0.8794570   0.8789060
   5.9277222   6.1782493   6.1780747   6.1667509   6.1665278   5.9279028
   5.9469836   6.1752797   6.1765167   6.1791013   6.1787126   5.9465607
   5.9282535   6.1769917   6.1780354   6.1670092   6.1674386   5.9281158
   8.4967942   8.4958301   8.4919289   8.4951737   8.4896228   8.4990088
 TTTTTTTTTTTTTTTTTTTTTTTTTTTTTT MOQGAD      TELAPSE       78.31 TCPU     2085.70
 TTTTTTTTTTTTTTTTTTTTTTTTTTTTTT SHELLXN     TELAPSE       89.70 TCPU     2448.87
 TTTTTTTTTTTTTTTTTTTTTTTTTTTTTT MONMO3      TELAPSE       89.86 TCPU     2454.19
 NUMERICALLY INTEGRATED DENSITY    198.0000061113
 TTTTTTTTTTTTTTTTTTTTTTTTTTTTTT NUMDFT      TELAPSE       90.60 TCPU     2477.73
 CYC   5 ETOT(AU) -1.289116764750E+03 DETOT -9.65E-04 tst  7.79E-06 PX  6.88E-03
 TTTTTTTTTTTTTTTTTTTTTTTTTTTTTT DIIS        TELAPSE       90.67 TCPU     2479.94
 DIIS TEST: 0.52336E-04 AT SCF   CYCLE   5 - DIIS ACTIVE - HISTORY:     5 CYCLES
 TTTTTTTTTTTTTTTTTTTTTTTTTTTTTT FDIK        TELAPSE       91.16 TCPU     2495.63
 INSULATING STATE
 TOP OF VALENCE BANDS -    BAND     99; K    1; EIG -2.3999381E-01 AU
 BOTTOM OF VIRTUAL BANDS - BAND    100; K   17; EIG -1.1540113E-01 AU
 INDIRECT ENERGY BAND GAP:   3.3903 eV
 BOTTOM OF VIRTUAL BANDS - BAND    100; K    1; EIG -8.3806551E-02 AU
 TTTTTTTTTTTTTTTTTTTTTTTTTTTTTT PDIG        TELAPSE       91.50 TCPU     2501.82
 CHARGE NORMALIZATION FACTOR   1.00000000
 TOTAL ATOMIC CHARGES:
   4.4605273   4.4964782   4.4968254   4.4979851   4.4962059   4.4591396
   0.8714711   0.8717493   0.8797838   0.8801135   0.8581414   0.8581359
   0.8594376   0.8592393   0.8706977   0.8715931   0.8800551   0.8797564
   5.9283197   6.1774209   6.1762638   6.1659516   6.1661671   5.9278276
   5.9471528   6.1760767   6.1756316   6.1791818   6.1783912   5.9443943
   5.9292717   6.1754119   6.1770796   6.1672923   6.1658447   5.9276329
   8.4961999   8.4952182   8.4925336   8.4941899   8.4907405   8.4984699
 TTTTTTTTTTTTTTTTTTTTTTTTTTTTTT MOQGAD      TELAPSE       91.55 TCPU     2501.88
 TTTTTTTTTTTTTTTTTTTTTTTTTTTTTT SHELLXN     TELAPSE      102.94 TCPU     2865.10
 TTTTTTTTTTTTTTTTTTTTTTTTTTTTTT MONMO3      TELAPSE      103.11 TCPU     2870.43
 NUMERICALLY INTEGRATED DENSITY    198.0000061234
 TTTTTTTTTTTTTTTTTTTTTTTTTTTTTT NUMDFT      TELAPSE      103.84 TCPU     2893.99
 CYC   6 ETOT(AU) -1.289116778265E+03 DETOT -1.35E-05 tst  8.75E-08 PX  6.82E-04
 TTTTTTTTTTTTTTTTTTTTTTTTTTTTTT DIIS        TELAPSE      103.92 TCPU     2896.29
 DIIS TEST: 0.79728E-05 AT SCF   CYCLE   6 - DIIS ACTIVE - HISTORY:     6 CYCLES
 TTTTTTTTTTTTTTTTTTTTTTTTTTTTTT FDIK        TELAPSE      104.41 TCPU     2912.00
 INSULATING STATE
 TOP OF VALENCE BANDS -    BAND     99; K    1; EIG -2.3997497E-01 AU
 BOTTOM OF VIRTUAL BANDS - BAND    100; K   17; EIG -1.1546677E-01 AU
 INDIRECT ENERGY BAND GAP:   3.3880 eV
 BOTTOM OF VIRTUAL BANDS - BAND    100; K    1; EIG -8.3811982E-02 AU
 TTTTTTTTTTTTTTTTTTTTTTTTTTTTTT PDIG        TELAPSE      104.75 TCPU     2918.19
 CHARGE NORMALIZATION FACTOR   1.00000000
 TOTAL ATOMIC CHARGES:
   4.4606038   4.4964787   4.4969267   4.4981037   4.4963345   4.4592366
   0.8714676   0.8715962   0.8797678   0.8800852   0.8582515   0.8580104
   0.8594639   0.8591939   0.8705521   0.8715806   0.8801480   0.8796091
   5.9277513   6.1773869   6.1770861   6.1661830   6.1658915   5.9276876
   5.9467703   6.1748323   6.1760716   6.1787417   6.1780968   5.9460405
   5.9281247   6.1759937   6.1772229   6.1664112   6.1667617   5.9280877
   8.4965678   8.4955091   8.4920011   8.4948697   8.4897437   8.4987570
 TTTTTTTTTTTTTTTTTTTTTTTTTTTTTT MOQGAD      TELAPSE      104.80 TCPU     2918.25
 TTTTTTTTTTTTTTTTTTTTTTTTTTTTTT SHELLXN     TELAPSE      116.19 TCPU     3281.32
 TTTTTTTTTTTTTTTTTTTTTTTTTTTTTT MONMO3      TELAPSE      116.35 TCPU     3286.65
 NUMERICALLY INTEGRATED DENSITY    198.0000061201
 TTTTTTTTTTTTTTTTTTTTTTTTTTTTTT NUMDFT      TELAPSE      117.09 TCPU     3310.17
 CYC   7 ETOT(AU) -1.289116779685E+03 DETOT -1.42E-06 tst  2.96E-08 PX  3.67E-04
 TTTTTTTTTTTTTTTTTTTTTTTTTTTTTT DIIS        TELAPSE      117.17 TCPU     3312.70
 DIIS TEST: 0.15016E-05 AT SCF   CYCLE   7 - DIIS ACTIVE - HISTORY:     7 CYCLES
 TTTTTTTTTTTTTTTTTTTTTTTTTTTTTT FDIK        TELAPSE      117.66 TCPU     3328.51
 INSULATING STATE
 TOP OF VALENCE BANDS -    BAND     99; K    1; EIG -2.3998419E-01 AU
 BOTTOM OF VIRTUAL BANDS - BAND    100; K   17; EIG -1.1548142E-01 AU
 INDIRECT ENERGY BAND GAP:   3.3879 eV
 BOTTOM OF VIRTUAL BANDS - BAND    100; K    1; EIG -8.3823610E-02 AU
 TTTTTTTTTTTTTTTTTTTTTTTTTTTTTT PDIG        TELAPSE      118.00 TCPU     3334.71
 CHARGE NORMALIZATION FACTOR   1.00000000
 TOTAL ATOMIC CHARGES:
   4.4606899   4.4965067   4.4969116   4.4980679   4.4963357   4.4593188
   0.8714184   0.8715921   0.8797652   0.8800759   0.8581515   0.8580227
   0.8594213   0.8591484   0.8705420   0.8715364   0.8800886   0.8796552
   5.9277744   6.1775106   6.1768845   6.1660501   6.1660625   5.9276799
   5.9470776   6.1753129   6.1757107   6.1787170   6.1782356   5.9456083
   5.9285808   6.1759327   6.1772115   6.1668321   6.1663725   5.9276450
   8.4964746   8.4955325   8.4920962   8.4946827   8.4900259   8.4987412
 TTTTTTTTTTTTTTTTTTTTTTTTTTTTTT MOQGAD      TELAPSE      118.06 TCPU     3334.76
 TTTTTTTTTTTTTTTTTTTTTTTTTTTTTT SHELLXN     TELAPSE      129.45 TCPU     3698.01
 TTTTTTTTTTTTTTTTTTTTTTTTTTTTTT MONMO3      TELAPSE      129.61 TCPU     3703.33
 NUMERICALLY INTEGRATED DENSITY    198.0000061199
 TTTTTTTTTTTTTTTTTTTTTTTTTTTTTT NUMDFT      TELAPSE      130.35 TCPU     3726.91
 CYC   8 ETOT(AU) -1.289116779893E+03 DETOT -2.08E-07 tst  7.99E-09 PX  1.14E-04
 TTTTTTTTTTTTTTTTTTTTTTTTTTTTTT DIIS        TELAPSE      130.43 TCPU     3729.57
 DIIS TEST: 0.15368E-06 AT SCF   CYCLE   8 - DIIS ACTIVE - HISTORY:     8 CYCLES
 TTTTTTTTTTTTTTTTTTTTTTTTTTTTTT FDIK        TELAPSE      130.92 TCPU     3745.29
 INSULATING STATE
 TOP OF VALENCE BANDS -    BAND     99; K    1; EIG -2.3998850E-01 AU
 BOTTOM OF VIRTUAL BANDS - BAND    100; K   17; EIG -1.1547430E-01 AU
 INDIRECT ENERGY BAND GAP:   3.3882 eV
 BOTTOM OF VIRTUAL BANDS - BAND    100; K    1; EIG -8.3825103E-02 AU
 TTTTTTTTTTTTTTTTTTTTTTTTTTTTTT PDIG        TELAPSE      131.27 TCPU     3751.48
 CHARGE NORMALIZATION FACTOR   1.00000000
 TOTAL ATOMIC CHARGES:
   4.4606681   4.4964917   4.4969080   4.4980720   4.4963189   4.4592947
   0.8714188   0.8715937   0.8797583   0.8800772   0.8581628   0.8580020
   0.8594049   0.8591562   0.8705469   0.8715333   0.8800983   0.8796414
   5.9278699   6.1774469   6.1768699   6.1661041   6.1660022   5.9277035
   5.9469568   6.1752356   6.1758986   6.1788636   6.1781907   5.9455609
   5.9284698   6.1758561   6.1772194   6.1667289   6.1664599   5.9278709
   8.4964733   8.4954530   8.4921769   8.4946789   8.4900736   8.4986895
 TTTTTTTTTTTTTTTTTTTTTTTTTTTTTT MOQGAD      TELAPSE      131.32 TCPU     3751.54
 TTTTTTTTTTTTTTTTTTTTTTTTTTTTTT SHELLXN     TELAPSE      142.71 TCPU     4114.81
 +++ ENERGIES IN A.U. +++
 ::: EXT EL-POLE                                  -1.6733135472870E+03
 ::: EXT EL-SPHEROPOLE                             1.8472115261910E+01
 ::: BIELET ZONE E-E                               2.3472251584427E+03
 ::: TOTAL E-E                                     6.9238372641757E+02
 ::: TOTAL E-N + N-E                              -3.2061890254027E+03
 ::: TOTAL N-N                                     7.8440223120388E+01
 ::: KINETIC ENERGY                                1.2799888249184E+03
 ::: PSEUDO TOTAL   ENERGY                        -1.1553762509464E+03
 ::: VIRIAL COEFFICIENT                            1.0511679235310E+00
 TTTTTTTTTTTTTTTTTTTTTTTTTTTTTT MONMO3      TELAPSE      142.87 TCPU     4120.13
 NUMERICALLY INTEGRATED DENSITY    198.0000061202
 EXCHANGE ENERGY: -0.126028266799E+03  CORRELATION ENERGY: -0.771226216632E+01
 TTTTTTTTTTTTTTTTTTTTTTTTTTTTTT NUMDFT      TELAPSE      143.61 TCPU     4143.67
 CYC   9 ETOT(AU) -1.289116779912E+03 DETOT -1.90E-08 tst  9.29E-10 PX  1.14E-04

 == SCF ENDED - CONVERGENCE ON ENERGY      E(AU) -1.2891167799120E+03 CYCLES   9


 ENERGY EXPRESSION=HARTREE+FOCK EXCH*0.00000+(HSESOL     EXCH)*1.00000+PBESOL     CORR


 TOTAL ENERGY(DFT)(AU)(  9) -1.2891167799120E+03 DE-1.9E-08 tester 9.3E-10
 TTTTTTTTTTTTTTTTTTTTTTTTTTTTTT EDFT        TELAPSE      143.61 TCPU     4143.68
 
 INFORMATION **** DFTD3 ENERGY **** CALCULATE DFTD3 ENERGY

           DFT-D V3(BJ)
 DF                                         hsesol3c  
 parameters
 s6       :    1.0000
 s8       :    0.0000
 a1       :    0.5196
 a2       :    4.9385
 k1 k3    :   16.0000   -4.0000
 Cutoff   :   50.2022
 CN-Cutoff:   21.1671
 ABC-Cutoff:   21.1671
 
 Edisp /kcal,au:   -30.4965 -0.04859922

 E6    /kcal :   -32.5535
 E8    /kcal :     0.0000
 E6(ABC) "   :   2.057018
 
 INFORMATION **** DFTD3 ENERGY **** NORMAL TERMINATION OF DFTD3 MODULE

 GCP ENERGY CALCULATION
  level        hsesol3c            basis:hsesol3c
  Nbf            474
  Atoms           42

  Parameters: 
  sigma     1.0000
  eta       1.4281
  alpha     0.2936
  beta      1.9467

  dmp_scal      4.0000
  dmp_exp       6.0000
 cutoffs: 
   distance [bohr] 60.0
   noise    [a.u.] 2.2E-16
 SR-damping   T
 ** gCP correction **
  Egcp:        0.0852110901 / (a.u.) ||      53.4708 / (kcal/mol)
 INFORMATION **** GCP **** NORMAL TERMINATION OF GCP MODULE

 *******************************************************************************

 DFT-D3-GCP DISPERSION AND COUNTERPOISE CORRECTION

 D3 DISPERSION ENERGY (AU)      -4.8599224516317E-02
 GCP ENERGY (AU)                 8.5211090130942E-02
 TOTAL ENERGY + DISP + GCP (AU) -1.2890801680464E+03

 *******************************************************************************

 EIGENVECTORS IN FORTRAN UNIT 10
 TTTTTTTTTTTTTTTTTTTTTTTTTTTTTT END         TELAPSE      145.65 TCPU     4151.69
 EEEEEEEEEE TERMINATION  DATE 02 12 2025 TIME 07:57:55.6
