 Default number of threads is:           32

         
 *******************************************************************************
 *                                                                             *
 *                               CRYSTAL23                                     *
 *                      public : 1.0.1 - October 2022                          *
 *                       HTTP://WWW.CRYSTAL.UNITO.IT                           *
 *                                                                             *
 *                              MAIN AUTHORS                                   *
 *                                                                             *
 *  R. DOVESI(1,11), V.R. SAUNDERS(2), C. ROETTI(1,11), R. ORLANDO(1,11),      *
 *  C.M. ZICOVICH-WILSON(1,3), F. PASCALE(4), B. CIVALLERI(1,11),              *
 *  K. DOLL(5), N.M. HARRISON(6), I.J. BUSH(7), Ph. D'ARCO(8),                 *
 *  M. LLUNELL(9), M. CAUSA'(10), Y. NOEL(8), L. MASCHIO(1,11), A. ERBA(1,11)  *
 *  M. RE'RAT(14), S. CASASSA(1,11), B.G. SEARLE(2), J.K. DESMARAIS(1)         *
 *                                                                             *
 *        CONTRIBUTIONS TO THE CODE HAVE ALSO BEEN GIVEN BY                    *
 *                                                                             *
 *  M. FERRABONE(1,11), M. DE LA PIERRE(1,11), M. FERRERO(1,11),               *
 *  J. BAIMA(1,11), E. ALBANESE(1,11), M.F. PEINTINGER(12), R. BAST(13),       *
 *  B. KIRTMAN(15), V. LACIVITA(1,11), R. DEMICHELIS(1,16)                     *
 *  G. BRANDEBURG(17), S. SALUSTRO(1,11), G. SANSONE(1,11)                     *
 *  M.T. RUGGIERO(18), L.E. DAGA(1), L. DONA'(1), A. COSSARD(1)                *
 *                                                                             *
 * (1) THEORETICAL CHEMISTRY GROUP - UNIVERSITA' DI TORINO - TORINO (ITALY)    *
 * (2) SCIENTIFIC COMPUTING DEPARTMENT - STFC DARESBURY (UK)                   *
 * (3) UNIVERSIDAD AUTONOMA DEL ESTADO DE MORELOS - CUERNAVACA (MEXICO)        *
 * (4) UNIVERSITE' DE LORRAINE - NANCY (FRANCE)                                *
 * (5) UNIVERSITAET STUTTGART- STUTTGART (GERMANY)                             *
 * (6) IMPERIAL COLLEGE - LONDON (UK)                                          *
 * (7) SCIENTIFIC COMPUTING DEPARTMENT - STFC RAL (UK)                         *
 * (8) UPMC - SORBONNE UNIVERSITES - PARIS (FRANCE)                            *
 * (9) UNIVERSIDAD DE BARCELONA - BARCELONA (SPAIN)                            *
 *(10) UNIVERSITA' DI NAPOLI "FEDERICO II" - NAPOLI (ITALY)                    *
 *(11) NIS - NANOSTRUCTURED INTERFACES AND SURFACES - TORINO (ITALY)           *
 *(12) MPI FUER CHEMISCHE ENERGIEKONVERSION - MUELHEIM AN DER RUHR (GERMANY)   *
 *(13) UNIVERSITY OF TROMSO - TROMSO (NORWAY)                                  *
 *(14) UNIVERSITE' DE PAU ET DES PAYS DE L'ADOUR - PAU (FRANCE)                *
 *(15) UNIVERSITY OF CALIFORNIA SANTA BARBARA - SANTA BARBARA (USA)            *
 *(16) CURTIN UNIVERSITY - PERTH (AUSTRALIA)                                   *
 *(17) UNIVERSITY COLLEGE LONDON - LONDON (UK)                                 *
 *(18) UNIVERSITY OF VERMONT - BURLINGTON (USA)                                *
 *                                                                             *
 *******************************************************************************
 EEEEEEEEEE STARTING  DATE 19 02 2026 TIME 19:01:41.5
 cof-1_z39_L040_incl                                                             

 CRYSTAL CALCULATION
 (INPUT ACCORDING TO THE INTERNATIONAL TABLES FOR X-RAY CRYSTALLOGRAPHY)
 CRYSTAL FAMILY                       :  TRICLINIC   
 CRYSTAL CLASS  (GROTH - 1921)        :  TRICLINIC PEDIAL                     

 SPACE GROUP (NONCENTROSYMMETRIC)     :  P 1             

 LATTICE PARAMETERS  (ANGSTROMS AND DEGREES) - CONVENTIONAL CELL
        A           B           C        ALPHA        BETA       GAMMA
    15.02361    15.02392     5.58659    51.67688    89.99996   119.99596


 NUMBER OF IRREDUCIBLE ATOMS IN THE CONVENTIONAL CELL:   42

 INPUT COORDINATES

 ATOM AT. N.              COORDINATES
   1   5     5.366462100000E-01  7.323390000000E-02  5.012217500000E-01
   2   5     6.957018700000E-01  2.322935500000E-01  5.012217700000E-01
   3   5     5.370377200000E-01  2.330679900000E-01  4.986466100000E-01
   4   5     1.502209200000E-01  4.595489000000E-01  5.012217600000E-01
   5   5     3.093288900000E-01  4.595281300000E-01  5.012217600000E-01
   6   5     3.097049500000E-01  6.194589700000E-01  4.986466100000E-01
   7   1     8.268298300000E-01  1.564869700000E-01  4.958829300000E-01
   8   1     2.054621000000E-02  5.388613400000E-01  4.950665400000E-01
   9   1     8.269024200000E-01  4.419189600000E-01  4.949408900000E-01
  10   1     2.066236000000E-02  2.535218300000E-01  4.949722300000E-01
  11   1     6.135540100000E-01 -5.796841000000E-02  5.041110100000E-01
  12   1     2.313258500000E-01  7.482137900000E-01  5.049274700000E-01
  13   1     3.282467900000E-01 -5.821219000000E-02  5.050531900000E-01
  14   1     5.166938600000E-01  7.480948500000E-01  5.050216400000E-01
  15   1     6.148589400000E-01  4.416111200000E-01  4.958829800000E-01
  16   1     2.328735200000E-01  2.534172400000E-01  4.950664900000E-01
  17   1     3.297715800000E-01  1.566698100000E-01  4.949407900000E-01
  18   1     5.182170400000E-01  5.387947900000E-01  4.949723300000E-01
  19   6     8.152662400000E-01  2.926799800000E-01  4.985523800000E-01
  20   6     8.702560100000E-01  2.403039300000E-01  4.960085700000E-01
  21   6    -2.281121000000E-02  4.547711600000E-01  4.957888200000E-01
  22   6     8.701514300000E-01  4.010753100000E-01  4.964483100000E-01
  23   6    -2.261370000000E-02  2.941544400000E-01  4.947524000000E-01
  24   6     3.173038000000E-02  4.014091000000E-01  4.964796900000E-01
  25   6     4.769713000000E-01 -4.598345000000E-02  5.014416100000E-01
  26   6     5.297187700000E-01 -1.013779600000E-01  5.039853600000E-01
  27   6     3.153058100000E-01  7.916616800000E-01  5.042051900000E-01
  28   6     3.688960700000E-01 -1.011958900000E-01  5.035457300000E-01
  29   6     4.760647100000E-01  7.913034900000E-01  5.052415200000E-01
  30   6     3.685412300000E-01  7.372029700000E-01  5.035142900000E-01
  31   6     4.774208000000E-01  2.926108400000E-01  4.985523800000E-01
  32   6     5.309771100000E-01  4.011440700000E-01  4.960086200000E-01
  33   6     3.166240500000E-01  2.937579000000E-01  4.957887700000E-01
  34   6     3.699865900000E-01  2.400731300000E-01  4.964482400000E-01
  35   6     4.777029100000E-01  4.550024500000E-01  4.947524700000E-01
  36   6     3.696544700000E-01  4.013317000000E-01  4.964796900000E-01
  37   8     4.839919500000E-01  1.268655600000E-01  4.993374900000E-01
  38   8     6.421019600000E-01  1.252030700000E-01  5.047704600000E-01
  39   8     6.433594300000E-01  2.866679600000E-01  4.965739200000E-01
  40   8     2.035797700000E-01  5.661460400000E-01  4.993375100000E-01
  41   8     2.027642300000E-01  4.055203600000E-01  5.047704500000E-01
  42   8     3.629438500000E-01  5.669799300000E-01  4.965739000000E-01

 *******************************************************************************

 << INFORMATION >>: FROM NOW ON, ALL COORDINATES REFER TO THE PRIMITIVE CELL

 *******************************************************************************

 LATTICE PARAMETERS  (ANGSTROMS AND DEGREES) - PRIMITIVE CELL
       A          B          C        ALPHA      BETA     GAMMA        VOLUME
   15.02361   15.02392    5.58659    51.67688  89.99996 119.99596    762.382664

 COORDINATES OF THE EQUIVALENT ATOMS (FRACTIONAL UNITS)

 N. ATOM EQUIV AT. N.          X                  Y                  Z

   1   1   1    5 B    -4.63353790000E-01  7.32339000000E-02 -4.98778250000E-01

   2   2   1    5 B    -3.04298130000E-01  2.32293550000E-01 -4.98778230000E-01

   3   3   1    5 B    -4.62962280000E-01  2.33067990000E-01  4.98646610000E-01

   4   4   1    5 B     1.50220920000E-01  4.59548900000E-01 -4.98778240000E-01

   5   5   1    5 B     3.09328890000E-01  4.59528130000E-01 -4.98778240000E-01

   6   6   1    5 B     3.09704950000E-01 -3.80541030000E-01  4.98646610000E-01

   7   7   1    1 H    -1.73170170000E-01  1.56486970000E-01  4.95882930000E-01

   8   8   1    1 H     2.05462100000E-02 -4.61138660000E-01  4.95066540000E-01

   9   9   1    1 H    -1.73097580000E-01  4.41918960000E-01  4.94940890000E-01

  10  10   1    1 H     2.06623600000E-02  2.53521830000E-01  4.94972230000E-01

  11  11   1    1 H    -3.86445990000E-01 -5.79684100000E-02 -4.95888990000E-01

  12  12   1    1 H     2.31325850000E-01 -2.51786210000E-01 -4.95072530000E-01

  13  13   1    1 H     3.28246790000E-01 -5.82121900000E-02 -4.94946810000E-01

  14  14   1    1 H    -4.83306140000E-01 -2.51905150000E-01 -4.94978360000E-01

  15  15   1    1 H    -3.85141060000E-01  4.41611120000E-01  4.95882980000E-01

  16  16   1    1 H     2.32873520000E-01  2.53417240000E-01  4.95066490000E-01

  17  17   1    1 H     3.29771580000E-01  1.56669810000E-01  4.94940790000E-01

  18  18   1    1 H    -4.81782960000E-01 -4.61205210000E-01  4.94972330000E-01

  19  19   1    6 C    -1.84733760000E-01  2.92679980000E-01  4.98552380000E-01

  20  20   1    6 C    -1.29743990000E-01  2.40303930000E-01  4.96008570000E-01

  21  21   1    6 C    -2.28112100000E-02  4.54771160000E-01  4.95788820000E-01

  22  22   1    6 C    -1.29848570000E-01  4.01075310000E-01  4.96448310000E-01

  23  23   1    6 C    -2.26137000000E-02  2.94154440000E-01  4.94752400000E-01

  24  24   1    6 C     3.17303800000E-02  4.01409100000E-01  4.96479690000E-01

  25  25   1    6 C     4.76971300000E-01 -4.59834500000E-02 -4.98558390000E-01

  26  26   1    6 C    -4.70281230000E-01 -1.01377960000E-01 -4.96014640000E-01

  27  27   1    6 C     3.15305810000E-01 -2.08338320000E-01 -4.95794810000E-01

  28  28   1    6 C     3.68896070000E-01 -1.01195890000E-01 -4.96454270000E-01

  29  29   1    6 C     4.76064710000E-01 -2.08696510000E-01 -4.94758480000E-01

  30  30   1    6 C     3.68541230000E-01 -2.62797030000E-01 -4.96485710000E-01

  31  31   1    6 C     4.77420800000E-01  2.92610840000E-01  4.98552380000E-01

  32  32   1    6 C    -4.69022890000E-01  4.01144070000E-01  4.96008620000E-01

  33  33   1    6 C     3.16624050000E-01  2.93757900000E-01  4.95788770000E-01

  34  34   1    6 C     3.69986590000E-01  2.40073130000E-01  4.96448240000E-01

  35  35   1    6 C     4.77702910000E-01  4.55002450000E-01  4.94752470000E-01

  36  36   1    6 C     3.69654470000E-01  4.01331700000E-01  4.96479690000E-01

  37  37   1    8 O     4.83991950000E-01  1.26865560000E-01  4.99337490000E-01

  38  38   1    8 O    -3.57898040000E-01  1.25203070000E-01 -4.95229540000E-01

  39  39   1    8 O    -3.56640570000E-01  2.86667960000E-01  4.96573920000E-01

  40  40   1    8 O     2.03579770000E-01 -4.33853960000E-01  4.99337510000E-01

  41  41   1    8 O     2.02764230000E-01  4.05520360000E-01 -4.95229550000E-01

  42  42   1    8 O     3.62943850000E-01 -4.33020070000E-01  4.96573900000E-01

 NUMBER OF SYMMETRY OPERATORS         :    1
 *******************************************************************************
 * GEOMETRY EDITING - INPUT COORDINATES ARE GIVEN IN ANGSTROM         
 *******************************************************************************

 GCALCO - MAX INDICES DIRECT LATTICE VECTOR     9    12    28
 NO.OF VECTORS CREATED 6999 STARS 3500 RMAX   204.90311 BOHR

 GEOMETRY FOR WAVE FUNCTION - DIMENSIONALITY OF THE SYSTEM    3
 (NON PERIODIC DIRECTION: LATTICE PARAMETER FORMALLY SET TO 500)
 *******************************************************************************
 LATTICE PARAMETERS (ANGSTROMS AND DEGREES) - BOHR = 0.5291772083 ANGSTROM
 PRIMITIVE CELL - CENTRING CODE 1/0 VOLUME=   762.382664 - DENSITY  0.850 g/cm^3
         A              B              C           ALPHA      BETA       GAMMA 
    15.02361100    15.02391600     5.58659100    51.676884  89.999961 119.995964
 *******************************************************************************
 ATOMS IN THE ASYMMETRIC UNIT   42 - ATOMS IN THE UNIT CELL:   42
     ATOM                 X/A                 Y/B                 Z/C    
 *******************************************************************************
      1 T   5 B    -4.633537900000E-01  7.323390000000E-02 -4.987782500000E-01
      2 T   5 B    -3.042981300000E-01  2.322935500000E-01 -4.987782300000E-01
      3 T   5 B    -4.629622800000E-01  2.330679900000E-01  4.986466100000E-01
      4 T   5 B     1.502209200000E-01  4.595489000000E-01 -4.987782400000E-01
      5 T   5 B     3.093288900000E-01  4.595281300000E-01 -4.987782400000E-01
      6 T   5 B     3.097049500000E-01 -3.805410300000E-01  4.986466100000E-01
      7 T   1 H    -1.731701700000E-01  1.564869700000E-01  4.958829300000E-01
      8 T   1 H     2.054621000000E-02 -4.611386600000E-01  4.950665400000E-01
      9 T   1 H    -1.730975800000E-01  4.419189600000E-01  4.949408900000E-01
     10 T   1 H     2.066236000000E-02  2.535218300000E-01  4.949722300000E-01
     11 T   1 H    -3.864459900000E-01 -5.796841000000E-02 -4.958889900000E-01
     12 T   1 H     2.313258500000E-01 -2.517862100000E-01 -4.950725300000E-01
     13 T   1 H     3.282467900000E-01 -5.821219000000E-02 -4.949468100000E-01
     14 T   1 H    -4.833061400000E-01 -2.519051500000E-01 -4.949783600000E-01
     15 T   1 H    -3.851410600000E-01  4.416111200000E-01  4.958829800000E-01
     16 T   1 H     2.328735200000E-01  2.534172400000E-01  4.950664900000E-01
     17 T   1 H     3.297715800000E-01  1.566698100000E-01  4.949407900000E-01
     18 T   1 H    -4.817829600000E-01 -4.612052100000E-01  4.949723300000E-01
     19 T   6 C    -1.847337600000E-01  2.926799800000E-01  4.985523800000E-01
     20 T   6 C    -1.297439900000E-01  2.403039300000E-01  4.960085700000E-01
     21 T   6 C    -2.281121000000E-02  4.547711600000E-01  4.957888200000E-01
     22 T   6 C    -1.298485700000E-01  4.010753100000E-01  4.964483100000E-01
     23 T   6 C    -2.261370000000E-02  2.941544400000E-01  4.947524000000E-01
     24 T   6 C     3.173038000000E-02  4.014091000000E-01  4.964796900000E-01
     25 T   6 C     4.769713000000E-01 -4.598345000000E-02 -4.985583900000E-01
     26 T   6 C    -4.702812300000E-01 -1.013779600000E-01 -4.960146400000E-01
     27 T   6 C     3.153058100000E-01 -2.083383200000E-01 -4.957948100000E-01
     28 T   6 C     3.688960700000E-01 -1.011958900000E-01 -4.964542700000E-01
     29 T   6 C     4.760647100000E-01 -2.086965100000E-01 -4.947584800000E-01
     30 T   6 C     3.685412300000E-01 -2.627970300000E-01 -4.964857100000E-01
     31 T   6 C     4.774208000000E-01  2.926108400000E-01  4.985523800000E-01
     32 T   6 C    -4.690228900000E-01  4.011440700000E-01  4.960086200000E-01
     33 T   6 C     3.166240500000E-01  2.937579000000E-01  4.957887700000E-01
     34 T   6 C     3.699865900000E-01  2.400731300000E-01  4.964482400000E-01
     35 T   6 C     4.777029100000E-01  4.550024500000E-01  4.947524700000E-01
     36 T   6 C     3.696544700000E-01  4.013317000000E-01  4.964796900000E-01
     37 T   8 O     4.839919500000E-01  1.268655600000E-01  4.993374900000E-01
     38 T   8 O    -3.578980400000E-01  1.252030700000E-01 -4.952295400000E-01
     39 T   8 O    -3.566405700000E-01  2.866679600000E-01  4.965739200000E-01
     40 T   8 O     2.035797700000E-01 -4.338539600000E-01  4.993375100000E-01
     41 T   8 O     2.027642300000E-01  4.055203600000E-01 -4.952295500000E-01
     42 T   8 O     3.629438500000E-01 -4.330200700000E-01  4.965739000000E-01

 T = ATOM BELONGING TO THE ASYMMETRIC UNIT

 ****    1 SYMMOPS - TRANSLATORS IN FRACTIONAL UNITS
 **** MATRICES AND TRANSLATORS IN THE CRYSTALLOGRAPHIC REFERENCE FRAME
   V INV                    ROTATION MATRICES                   TRANSLATORS
   1   1  1.00  0.00  0.00  0.00  1.00  0.00 -0.00  0.00  1.00  0.00  0.00  0.00

 DIRECT LATTICE VECTORS CARTESIAN COMPONENTS (ANGSTROM)
          X                    Y                    Z
   0.130113578931E+02  -0.751088897922E+01   0.000000000000E+00
   0.000000000000E+00   0.150239160000E+02   0.000000000000E+00
   0.199974767340E+01   0.346422049595E+01   0.390002366652E+01


 CARTESIAN COORDINATES - PRIMITIVE CELL
 *******************************************************************************
 *      ATOM          X(ANGSTROM)         Y(ANGSTROM)         Z(ANGSTROM)
 *******************************************************************************
    1     5 B    -7.026292637776E+00  2.852581000158E+00 -1.945246979347E+00
    2     5 B    -4.956762480605E+00  4.047630486256E+00 -1.945246901347E+00
    3     5 B     5.985009701786E+00 -2.268835477874E+00 -1.955290086292E+00
    4     5 B     9.571475281598E-01  4.048053617075E+00 -1.945246940347E+00
    5     5 B     3.027358269468E+00  2.852699271961E+00 -1.945246940347E+00
    6     5 B     3.027101670496E+00  5.243741345611E+00 -1.955290086292E+00
    7     1 H    -3.261285996127E+00  1.905336327505E+00 -1.966068503699E+00
    8     1 H     1.257342253201E+00 -5.367409139720E+00  1.930771222504E+00
    9     1 H    -1.262477670552E+00 -5.369861584780E+00  1.930281184530E+00
   10     1 H    -7.410827471866E-01  1.904170434220E+00 -1.969620255252E+00
   11     1 H    -4.020092262842E+00  3.777992097935E+00  1.966044869555E+00
   12     1 H     4.019590957636E+00 -3.771097555830E+00  1.969229082878E+00
   13     1 H     5.280915403585E+00 -1.590384637868E+00  1.969719393853E+00
   14     1 H    -5.278553309843E+00  1.594963263132E+00  1.969596348107E+00
   15     1 H    -4.019567335436E+00 -3.778587902548E+00  1.933955357826E+00
   16     1 H     2.020261100690E+00  3.090311573590E-01 -1.969252639021E+00
   17     1 H     3.280785070210E+00 -1.872720127655E+00 -1.969742871996E+00
   18     1 H    -5.278830754019E+00 -1.595796718650E+00  1.930403801274E+00
   19     6 C    -3.406405777719E+00  4.047589073626E+00 -1.955657585522E+00
   20     6 C    -2.696001177921E+00  2.838861321812E+00 -1.965578504725E+00
   21     6 C    -1.305099951393E+00  5.257077468811E+00 -1.966435534926E+00
   22     6 C    -2.696482536688E+00  5.256585875226E+00 -1.963863508318E+00
   23     6 C    -1.304602656579E+00  2.838911496247E+00 -1.970477597454E+00
   24     6 C    -5.940582381713E-01  4.048107860559E+00 -1.963741125575E+00
   25     6 C     7.208800981962E+00 -2.536225667879E+00  1.955634146380E+00
   26     6 C    -5.111153842827E+00  3.755052566018E+00  1.965554831581E+00
   27     6 C     5.110839895291E+00 -3.751606399311E+00  1.966412173784E+00
   28     6 C     5.806803194132E+00 -2.546702539031E+00  1.963840264177E+00
   29     6 C    -5.806754016865E+00  2.550048988739E+00  1.970453885310E+00
   30     6 C     1.802628025023E+00  3.123446764960E+00 -5.836329685614E+00
   31     6 C     5.209124182961E+00 -9.268190671681E-01 -1.955657585522E+00
   32     6 C     5.900877621660E+00  2.927074194853E-01 -1.965578309724E+00
   33     6 C     3.111413598003E+00  2.885670489828E-01 -1.966435729927E+00
   34     6 C     3.807051477623E+00 -9.165039900750E-01 -1.963863781320E+00
   35     6 C     5.205195955954E+00  1.497656217582E+00 -1.970477324453E+00
   36     6 C     3.802793037504E+00  1.508834686067E+00 -1.963741125575E+00
   37     8 O     5.296193789275E+00 -3.463597615247E+00 -1.952595637941E+00
   38     8 O    -5.647073608079E+00  2.853588528274E+00 -1.931406926362E+00
   39     8 O    -1.647607880857E+00 -2.853890874947E+00  5.836673706702E+00
   40     8 O     1.647650597718E+00  5.242260238397E+00 -1.952595559941E+00
   41     8 O     1.647903824027E+00  2.853979847134E+00 -1.931406965362E+00
   42     8 O     3.715667155228E+00  4.048248865151E+00 -1.963373704346E+00

 *******************************************************************************
 STARTING BASIS SET HANDLING 
 *******************************************************************************

 Loading internal basis set: SOLDEF2MSVP         

 Please cite in your publication:
 L. Dona', J. G. Brandenburg and B. Civalleri, J. Chem. Phys., 151, 121101 (2019
 )                                                                              
                                                                                
                    

 *******************************************************************************
 LOCAL ATOMIC FUNCTIONS BASIS SET
 *******************************************************************************
   ATOM   X(AU)   Y(AU)   Z(AU)  N. TYPE  EXPONENT  S COEF   P COEF   D/F/G COEF
 *******************************************************************************
   1 B  -13.278   5.391  -3.676
                                  1 S  
                                         2.410E+03 1.755E-03 0.000E+00 0.000E+00
                                         3.619E+02 1.344E-02 0.000E+00 0.000E+00
                                         8.231E+01 6.637E-02 0.000E+00 0.000E+00
                                         2.311E+01 2.303E-01 0.000E+00 0.000E+00
                                         7.252E+00 5.150E-01 0.000E+00 0.000E+00
                                  2 S  
                                         2.367E+00 1.000E+00 0.000E+00 0.000E+00
                                  3 S  
                                         5.533E-01 1.000E+00 0.000E+00 0.000E+00
                                  4 S  
                                         1.716E-01 1.000E+00 0.000E+00 0.000E+00
                           5-     7 P  
                                         6.002E+00 0.000E+00-3.555E-02 0.000E+00
                                         1.240E+00 0.000E+00-1.983E-01 0.000E+00
                                         3.367E-01 0.000E+00-5.048E-01 0.000E+00
                           8-    10 P  
                                         1.256E-01 0.000E+00 1.000E+00 0.000E+00
                          11-    15 D  
                                         8.880E-01 0.000E+00 0.000E+00 1.000E+00
   2 B   -9.367   7.649  -3.676
   3 B   11.310  -4.287  -3.695
   4 B    1.809   7.650  -3.676
   5 B    5.721   5.391  -3.676
   6 B    5.720   9.909  -3.695
   7 H   -6.163   3.601  -3.715
                                 91 S  
                                         1.874E+01 1.968E-02 0.000E+00 0.000E+00
                                         2.826E+00 1.380E-01 0.000E+00 0.000E+00
                                         6.401E-01 4.783E-01 0.000E+00 0.000E+00
                                 92 S  
                                         1.756E-01 1.000E+00 0.000E+00 0.000E+00
   8 H    2.376 -10.143   3.649
   9 H   -2.386 -10.148   3.648
  10 H   -1.400   3.598  -3.722
  11 H   -7.597   7.139   3.715
  12 H    7.596  -7.126   3.721
  13 H    9.979  -3.005   3.722
  14 H   -9.975   3.014   3.722
  15 H   -7.596  -7.140   3.655
  16 H    3.818   0.584  -3.721
  17 H    6.200  -3.539  -3.722
  18 H   -9.976  -3.016   3.648
  19 C   -6.437   7.649  -3.696
                                115 S  
                                         3.624E+03 1.634E-03 0.000E+00 0.000E+00
                                         5.440E+02 1.252E-02 0.000E+00 0.000E+00
                                         1.237E+02 6.211E-02 0.000E+00 0.000E+00
                                         3.476E+01 2.182E-01 0.000E+00 0.000E+00
                                         1.093E+01 4.980E-01 0.000E+00 0.000E+00
                                116 S  
                                         3.574E+00 1.000E+00 0.000E+00 0.000E+00
                                117 S  
                                         7.742E-01 1.000E+00 0.000E+00 0.000E+00
                                118 S  
                                         2.330E-01 1.000E+00 0.000E+00 0.000E+00
                         119-   121 P  
                                         9.443E+00 0.000E+00 3.790E-02 0.000E+00
                                         2.002E+00 0.000E+00 2.082E-01 0.000E+00
                                         5.463E-01 0.000E+00 5.047E-01 0.000E+00
                         122-   124 P  
                                         1.820E-01 0.000E+00 1.000E+00 0.000E+00
                         125-   129 D  
                                         8.880E-01 0.000E+00 0.000E+00 1.000E+00
  20 C   -5.095   5.365  -3.714
  21 C   -2.466   9.934  -3.716
  22 C   -5.096   9.934  -3.711
  23 C   -2.465   5.365  -3.724
  24 C   -1.123   7.650  -3.711
  25 C   13.623  -4.793   3.696
  26 C   -9.659   7.096   3.714
  27 C    9.658  -7.090   3.716
  28 C   10.973  -4.813   3.711
  29 C  -10.973   4.819   3.724
  30 C    3.406   5.902 -11.029
  31 C    9.844  -1.751  -3.696
  32 C   11.151   0.553  -3.714
  33 C    5.880   0.545  -3.716
  34 C    7.194  -1.732  -3.711
  35 C    9.836   2.830  -3.724
  36 C    7.186   2.851  -3.711
  37 O   10.008  -6.545  -3.690
                                385 S  
                                         6.773E+03 1.727E-03 0.000E+00 0.000E+00
                                         1.017E+03 1.325E-02 0.000E+00 0.000E+00
                                         2.313E+02 6.603E-02 0.000E+00 0.000E+00
                                         6.501E+01 2.353E-01 0.000E+00 0.000E+00
                                         2.050E+01 5.498E-01 0.000E+00 0.000E+00
                                386 S  
                                         6.716E+00 1.000E+00 0.000E+00 0.000E+00
                                387 S  
                                         1.147E+00 1.000E+00 0.000E+00 0.000E+00
                                388 S  
                                         3.342E-01 1.000E+00 0.000E+00 0.000E+00
                         389-   391 P  
                                         1.769E+01 0.000E+00 4.359E-02 0.000E+00
                                         3.854E+00 0.000E+00 2.318E-01 0.000E+00
                                         1.047E+00 0.000E+00 5.146E-01 0.000E+00
                         392-   394 P  
                                         2.759E-01 0.000E+00 1.000E+00 0.000E+00
                         395-   399 D  
                                         8.000E-01 0.000E+00 0.000E+00 1.000E+00
  38 O  -10.671   5.393  -3.650
  39 O   -3.114  -5.393  11.030
  40 O    3.114   9.906  -3.690
  41 O    3.114   5.393  -3.650
  42 O    7.022   7.650  -3.710

 *******************************************************************************
 FINISHED BASIS SET HANDLING 
 *******************************************************************************

 INFORMATION **** SET_MPP **** PCRYSTAL CALCULATION
 INFORMATION **** READM2 **** NEW DEFAULT: FOCK/KS MATRIX MIXING SET TO 30 %
 INFORMATION **** READM2 **** NEW DEFAULT: FULL DIRECT SCF MODE
 INFORMATION **** READM2 **** NEW DEFAULT: COULOMB BIPOLAR BUFFER SET TO 32 Mb
 INFORMATION **** READM2 **** NEW DEFAULT: EXCHANGE BIPOLAR BUFFER SET TO 32 Mb

 *******************************************************************************
 NEW DEFAULT: DFT INTEGRATION GRID INCREASED TO XLGRID
 NEW DEFAULT: DIIS ACCELERATOR ACTIVE
 USE KEYWORD NODIIS TO TURN IT OFF
 *******************************************************************************

 WARNING **** RDDFTP **** HSEsol-HJS ACTIVE
 RANGE SEPARATION - OMEGA:   0.110000000000000     
 WARNING **** RDDFTP **** HSEsol-3c has to be combined with sol-def2-mSVP basis set
 *******************************************************************************
 N. OF ATOMS PER CELL        42  COULOMB OVERLAP TOL         (T1) 10**   -6
 NUMBER OF SHELLS           234  COULOMB PENETRATION TOL     (T2) 10**   -6
 NUMBER OF AO               474  EXCHANGE OVERLAP TOL        (T3) 10**   -6
 N. OF ELECTRONS PER CELL   198  EXCHANGE PSEUDO OVP (F(G))  (T4) 10**   -6
 CORE ELECTRONS PER CELL     60  EXCHANGE PSEUDO OVP (P(G))  (T5) 10**  -12
 N. OF SYMMETRY OPERATORS     1  POLE ORDER IN MONO ZONE                  4
 *******************************************************************************
 TYPE OF CALCULATION :  RESTRICTED CLOSED SHELL
 KOHN-SHAM HAMILTONIAN

 (EXCHANGE)[CORRELATION] FUNCTIONAL:(HSEsol GGA)[PBEsol]

 RANGE-SEPARATED HYBRID FUNCTIONAL 
 OMEGA (SHORT-RANGE)[LONG-RANGE]:(    0.1100)[    0.0000]

 HYBRID EXCHANGE - PERCENTAGE OF FOCK EXCHANGE    25.0000

 CAPPA:IS1  2;IS2  2;IS3  8; K PTS MONK NET  20; SYMMOPS:K SPACE   2;G SPACE   1

 *******************************************************************************
 MAX NUMBER OF SCF CYCLES      50  CONVERGENCE ON DELTAP        10**-16
 WEIGHT OF F(I) IN F(I+1)      30% CONVERGENCE ON ENERGY        10**- 6
 SHRINK. FACT.(MONKH.)    2  2  8  NUMBER OF K POINTS IN THE IBZ     20
 SHRINKING FACTOR(GILAT NET)    8  NUMBER OF K POINTS(GILAT NET)   1028
 *******************************************************************************
 *** K POINTS COORDINATES (OBLIQUE COORDINATES IN UNITS OF IS =  2)
   1-R(  0  0  0)   2-R(  1  0  0)   3-R(  0  1  0)   4-R(  1  1  0)
   5-C(  0  0  1)   6-C(  1  0  1)   7-C(  0  1  1)   8-C(  1  1  1)
   9-C(  0  0  2)  10-C(  1  0  2)  11-C(  0  1  2)  12-C(  1  1  2)
  13-C(  0  0  3)  14-C(  1  0  3)  15-C(  0  1  3)  16-C(  1  1  3)
  17-R(  0  0  4)  18-R(  1  0  4)  19-R(  0  1  4)  20-R(  1  1  4)

 DIRECT LATTICE VECTORS COMPON. (A.U.)     RECIP. LATTICE VECTORS COMPON. (A.U.) 
        X            Y            Z              X            Y            Z
   24.5879030  -14.1935232    0.0000000      0.2555397    0.0000000   -0.1310287
    0.0000000   28.3910867    0.0000000      0.1277517    0.2213084   -0.2620836
    3.7789754    6.5464280    7.3699766      0.0000000    0.0000000    0.8525380

 DISK SPACE FOR EIGENVECTORS (FTN 10)     7189632 REALS

 SYMMETRY ADAPTION OF THE BLOCH FUNCTIONS DISABLED
 TTTTTTTTTTTTTTTTTTTTTTTTTTTTTT gordsh1     TELAPSE        0.04 TCPU        0.04

 MATRIX SIZE: P(G)  318442, F(G)   65739, P(G) IRR  160304, F(G) IRR   66363
 MAX G-VECTOR INDEX FOR 1- AND 2-ELECTRON INTEGRALS  49

 TTTTTTTTTTTTTTTTTTTTTTTTTTTTTT INPUT       TELAPSE        0.35 TCPU        0.35

 NEIGHBORS OF THE NON-EQUIVALENT ATOMS

 N = NUMBER OF NEIGHBORS AT DISTANCE R
    ATOM  N     R/ANG      R/AU   NEIGHBORS (ATOM LABELS AND CELL INDICES)
   1 B    1     1.3791     2.6061   37 O   -1 0 0
   1 B    1     1.3793     2.6065   38 O    0 0 0
   1 B    1     1.5503     2.9297   25 C   -1 0-1
   1 B    1     2.3895     4.5155    3 B   -1 0 0
   1 B    1     2.3898     4.5160    2 B    0 0 0
   1 B    1     2.5632     4.8437   26 C    0 0-1

   2 B    1     1.3793     2.6065   39 O    0 1-2
   2 B    1     1.3793     2.6065   38 O    0 0 0
   2 B    1     1.5504     2.9298   19 C    0 0 0
   2 B    1     2.3895     4.5156    3 B   -1 0 0
   2 B    1     2.3898     4.5160    1 B    0 0 0
   2 B    1     2.5634     4.8440   22 C    0 0 0

   3 B    1     1.3791     2.6061   37 O    0 0 0
   3 B    1     1.3793     2.6064   39 O    1 1-2
   3 B    1     1.5502     2.9294   31 C    0 0 0
   3 B    1     2.3895     4.5155    1 B    1 0 0
   3 B    1     2.3895     4.5156    2 B    1 0 0
   3 B    1     2.5629     4.8433   32 C    0 0 0

   4 B    1     1.3795     2.6068   40 O    0 0 0
   4 B    1     1.3795     2.6070   41 O    0 0 0
   4 B    1     1.5513     2.9316   24 C    0 0 0
   4 B    1     2.3905     4.5174    6 B    0 0 0
   4 B    1     2.3905     4.5175    5 B    0 0 0
   4 B    1     2.5648     4.8468   23 C    0 0 0

   5 B    1     1.3795     2.6069   41 O    0 0 0
   5 B    1     1.3797     2.6072   42 O    0 0 0
   5 B    1     1.5516     2.9322   36 C    0 0 0
   5 B    1     2.3905     4.5175    4 B    0 0 0
   5 B    1     2.3911     4.5185    6 B    0 0 0
   5 B    1     2.5651     4.8473   35 C    0 0 0

   6 B    1     1.3795     2.6068   40 O    0 0 0
   6 B    1     1.3796     2.6071   42 O    0 0 0
   6 B    1     1.5516     2.9322   30 C    0 0 1
   6 B    1     2.3905     4.5174    4 B    0 0 0
   6 B    1     2.3911     4.5185    5 B    0 0 0
   6 B    1     2.5651     4.8473   29 C    1 1-1

   7 H    1     1.0913     2.0623   20 C    0 0 0
   7 H    1     2.1472     4.0576   19 C    0 0 0
   7 H    1     2.1680     4.0969   23 C    0 0 0
   7 H    1     2.5202     4.7625   10 H    0 0 0
   7 H    1     2.5676     4.8520   38 O    0 0 0
   7 H    1     2.7321     5.1630    2 B    0 0 0

   8 H    1     1.0914     2.0625   21 C    0-1 1
   8 H    1     2.1493     4.0616   24 C    0-1 1
   8 H    1     2.1666     4.0942   22 C    0-1 1
   8 H    1     2.5198     4.7618    9 H    0 0 0
   8 H    1     2.5720     4.8604   40 O    0-1 1
   8 H    1     2.7362     5.1707    4 B    0-1 1

   9 H    1     1.0914     2.0624   22 C    0-1 1
   9 H    1     2.1471     4.0575   19 C    0-1 1
   9 H    1     2.1680     4.0970   21 C    0-1 1
   9 H    1     2.5198     4.7618    8 H    0 0 0
   9 H    1     2.5665     4.8500   39 O    0 0-1
   9 H    1     2.7315     5.1618    2 B    0-1 1

  10 H    1     1.0915     2.0626   23 C    0 0 0
  10 H    1     2.1490     4.0610   24 C    0 0 0
  10 H    1     2.1669     4.0948   20 C    0 0 0
  10 H    1     2.5202     4.7625    7 H    0 0 0
  10 H    1     2.5712     4.8588   41 O    0 0 0
  10 H    1     2.7351     5.1686    4 B    0 0 0

  11 H    1     1.0913     2.0623   26 C    0 0 0
  11 H    1     2.1469     4.0571   25 C   -1 0 0
  11 H    1     2.1680     4.0968   29 C    0 0 0
  11 H    1     2.5198     4.7617   14 H    0 0 0
  11 H    1     2.5670     4.8510   38 O    0 0 1
  11 H    1     2.7310     5.1609    1 B    0 0 1

  12 H    1     1.0914     2.0625   27 C    0 0 0
  12 H    1     2.1493     4.0617   30 C    0-1 2
  12 H    1     2.1664     4.0939   28 C    0 0 0
  12 H    1     2.5192     4.7606   13 H    0 0 0
  12 H    1     2.5735     4.8632   40 O    0-1 1
  12 H    1     2.7371     5.1723    6 B    0-1 1

  13 H    1     1.0914     2.0624   28 C    0 0 0
  13 H    1     2.1475     4.0581   25 C    0 0 0
  13 H    1     2.1679     4.0967   27 C    0 0 0
  13 H    1     2.5192     4.7606   12 H    0 0 0
  13 H    1     2.5675     4.8519   37 O    0 0 1
  13 H    1     2.7328     5.1643    1 B    1 0 1

  14 H    1     1.0914     2.0625   29 C    0 0 0
  14 H    1     2.1491     4.0612   30 C   -1-1 2
  14 H    1     2.1666     4.0942   26 C    0 0 0
  14 H    1     2.5198     4.7617   11 H    0 0 0
  14 H    1     2.5723     4.8609   42 O   -1-1 1
  14 H    1     2.7355     5.1693    6 B   -1-1 1

  15 H    1     1.0914     2.0624   32 C   -1-1 1
  15 H    1     2.1475     4.0582   31 C   -1-1 1
  15 H    1     2.1678     4.0966   35 C   -1-1 1
  15 H    1     2.5200     4.7621   18 H    0 0 0
  15 H    1     2.5667     4.8503   39 O    0 0-1
  15 H    1     2.7315     5.1618    3 B   -1-1 1

  16 H    1     1.0913     2.0623   33 C    0 0 0
  16 H    1     2.1487     4.0605   36 C    0 0 0
  16 H    1     2.1667     4.0945   34 C    0 0 0
  16 H    1     2.5197     4.7616   17 H    0 0 0
  16 H    1     2.5723     4.8610   41 O    0 0 0
  16 H    1     2.7359     5.1701    5 B    0 0 0

  17 H    1     1.0915     2.0626   34 C    0 0 0
  17 H    1     2.1479     4.0589   31 C    0 0 0
  17 H    1     2.1679     4.0968   33 C    0 0 0
  17 H    1     2.5197     4.7616   16 H    0 0 0
  17 H    1     2.5677     4.8522   37 O    0 0 0
  17 H    1     2.7331     5.1648    3 B    0 0 0

  18 H    1     1.0914     2.0624   35 C   -1-1 1
  18 H    1     2.1486     4.0602   36 C   -1-1 1
  18 H    1     2.1668     4.0947   32 C   -1-1 1
  18 H    1     2.5200     4.7621   15 H    0 0 0
  18 H    1     2.5717     4.8598   42 O   -1-1 1
  18 H    1     2.7349     5.1682    5 B   -1-1 1

  19 C    1     1.4020     2.6495   22 C    0 0 0
  19 C    1     1.4021     2.6495   20 C    0 0 0
  19 C    1     1.5504     2.9298    2 B    0 0 0
  19 C    1     2.1471     4.0575    9 H    0 1-1
  19 C    1     2.1472     4.0576    7 H    0 0 0
  19 C    1     2.4246     4.5817   21 C    0 0 0

  20 C    1     1.0913     2.0623    7 H    0 0 0
  20 C    1     1.3914     2.6294   23 C    0 0 0
  20 C    1     1.4021     2.6495   19 C    0 0 0
  20 C    1     2.1669     4.0948   10 H    0 0 0
  20 C    1     2.4177     4.5688   22 C    0 0 0
  20 C    1     2.4250     4.5825   24 C    0 0 0

  21 C    1     1.0914     2.0625    8 H    0 1-1
  21 C    1     1.3914     2.6293   22 C    0 0 0
  21 C    1     1.4026     2.6505   24 C    0 0 0
  21 C    1     2.1680     4.0970    9 H    0 1-1
  21 C    1     2.4182     4.5697   23 C    0 0 0
  21 C    1     2.4246     4.5817   19 C    0 0 0

  22 C    1     1.0914     2.0624    9 H    0 1-1
  22 C    1     1.3914     2.6293   21 C    0 0 0
  22 C    1     1.4020     2.6495   19 C    0 0 0
  22 C    1     2.1666     4.0942    8 H    0 1-1
  22 C    1     2.4177     4.5688   20 C    0 0 0
  22 C    1     2.4250     4.5826   24 C    0 0 0

  23 C    1     1.0915     2.0626   10 H    0 0 0
  23 C    1     1.3914     2.6294   20 C    0 0 0
  23 C    1     1.4025     2.6504   24 C    0 0 0
  23 C    1     2.1680     4.0969    7 H    0 0 0
  23 C    1     2.4182     4.5697   21 C    0 0 0
  23 C    1     2.4246     4.5818   19 C    0 0 0

  24 C    1     1.4025     2.6504   23 C    0 0 0
  24 C    1     1.4026     2.6505   21 C    0 0 0
  24 C    1     1.5513     2.9316    4 B    0 0 0
  24 C    1     2.1490     4.0610   10 H    0 0 0
  24 C    1     2.1493     4.0616    8 H    0 1-1
  24 C    1     2.4250     4.5825   20 C    0 0 0

  25 C    1     1.4020     2.6494   26 C    1 0 0
  25 C    1     1.4021     2.6495   28 C    0 0 0
  25 C    1     1.5503     2.9297    1 B    1 0 1
  25 C    1     2.1469     4.0571   11 H    1 0 0
  25 C    1     2.1475     4.0581   13 H    0 0 0
  25 C    1     2.4246     4.5818   27 C    0 0 0

  26 C    1     1.0913     2.0623   11 H    0 0 0
  26 C    1     1.3914     2.6293   29 C    0 0 0
  26 C    1     1.4020     2.6494   25 C   -1 0 0
  26 C    1     2.1666     4.0942   14 H    0 0 0
  26 C    1     2.4175     4.5684   28 C   -1 0 0
  26 C    1     2.4251     4.5828   30 C   -1-1 2

  27 C    1     1.0914     2.0625   12 H    0 0 0
  27 C    1     1.3915     2.6295   28 C    0 0 0
  27 C    1     1.4026     2.6505   30 C    0-1 2
  27 C    1     2.1679     4.0967   13 H    0 0 0
  27 C    1     2.4179     4.5691   29 C    1 0 0
  27 C    1     2.4246     4.5818   25 C    0 0 0

  28 C    1     1.0914     2.0624   13 H    0 0 0
  28 C    1     1.3915     2.6295   27 C    0 0 0
  28 C    1     1.4021     2.6495   25 C    0 0 0
  28 C    1     2.1664     4.0939   12 H    0 0 0
  28 C    1     2.4175     4.5684   26 C    1 0 0
  28 C    1     2.4253     4.5832   30 C    0-1 2

  29 C    1     1.0914     2.0625   14 H    0 0 0
  29 C    1     1.3914     2.6293   26 C    0 0 0
  29 C    1     1.4025     2.6504   30 C   -1-1 2
  29 C    1     2.1680     4.0968   11 H    0 0 0
  29 C    1     2.4179     4.5691   27 C   -1 0 0
  29 C    1     2.4247     4.5819   25 C   -1 0 0

  30 C    1     1.4025     2.6504   29 C    1 1-2
  30 C    1     1.4026     2.6505   27 C    0 1-2
  30 C    1     1.5516     2.9322    6 B    0 0-1
  30 C    1     2.1491     4.0612   14 H    1 1-2
  30 C    1     2.1493     4.0617   12 H    0 1-2
  30 C    1     2.4251     4.5828   26 C    1 1-2

  31 C    1     1.4021     2.6496   32 C    0 0 0
  31 C    1     1.4021     2.6497   34 C    0 0 0
  31 C    1     1.5502     2.9294    3 B    0 0 0
  31 C    1     2.1475     4.0582   15 H    1 1-1
  31 C    1     2.1479     4.0589   17 H    0 0 0
  31 C    1     2.4244     4.5814   33 C    0 0 0

  32 C    1     1.0914     2.0624   15 H    1 1-1
  32 C    1     1.3914     2.6293   35 C    0 0 0
  32 C    1     1.4021     2.6496   31 C    0 0 0
  32 C    1     2.1668     4.0947   18 H    1 1-1
  32 C    1     2.4179     4.5692   34 C    0 0 0
  32 C    1     2.4251     4.5827   36 C    0 0 0

  33 C    1     1.0913     2.0623   16 H    0 0 0
  33 C    1     1.3914     2.6294   34 C    0 0 0
  33 C    1     1.4025     2.6504   36 C    0 0 0
  33 C    1     2.1679     4.0968   17 H    0 0 0
  33 C    1     2.4178     4.5690   35 C    0 0 0
  33 C    1     2.4244     4.5814   31 C    0 0 0

  34 C    1     1.0915     2.0626   17 H    0 0 0
  34 C    1     1.3914     2.6294   33 C    0 0 0
  34 C    1     1.4021     2.6497   31 C    0 0 0
  34 C    1     2.1667     4.0945   16 H    0 0 0
  34 C    1     2.4179     4.5692   32 C    0 0 0
  34 C    1     2.4253     4.5832   36 C    0 0 0

  35 C    1     1.0914     2.0624   18 H    1 1-1
  35 C    1     1.3914     2.6293   32 C    0 0 0
  35 C    1     1.4025     2.6503   36 C    0 0 0
  35 C    1     2.1678     4.0966   15 H    1 1-1
  35 C    1     2.4178     4.5690   33 C    0 0 0
  35 C    1     2.4245     4.5817   31 C    0 0 0

  36 C    1     1.4025     2.6503   35 C    0 0 0
  36 C    1     1.4025     2.6504   33 C    0 0 0
  36 C    1     1.5516     2.9322    5 B    0 0 0
  36 C    1     2.1486     4.0602   18 H    1 1-1
  36 C    1     2.1487     4.0605   16 H    0 0 0
  36 C    1     2.4251     4.5827   32 C    0 0 0

  37 O    1     1.3791     2.6061    1 B    1 0 0
  37 O    1     1.3791     2.6061    3 B    0 0 0
  37 O    1     2.3880     4.5126   38 O    1 0 0
  37 O    1     2.3882     4.5130   39 O    1 1-2
  37 O    1     2.5383     4.7966   31 C    0 0 0
  37 O    1     2.5384     4.7968   25 C    0 0-1

  38 O    1     1.3793     2.6065    1 B    0 0 0
  38 O    1     1.3793     2.6065    2 B    0 0 0
  38 O    1     2.3880     4.5126   37 O   -1 0 0
  38 O    1     2.3882     4.5131   39 O    0 1-2
  38 O    1     2.5391     4.7981   19 C    0 0 0
  38 O    1     2.5395     4.7990   25 C   -1 0-1

  39 O    1     1.3793     2.6064    3 B   -1-1 2
  39 O    1     1.3793     2.6065    2 B    0-1 2
  39 O    1     2.3882     4.5130   37 O   -1-1 2
  39 O    1     2.3882     4.5131   38 O    0-1 2
  39 O    1     2.5390     4.7980   19 C    0-1 2
  39 O    1     2.5391     4.7982   31 C   -1-1 2

  40 O    1     1.3795     2.6068    6 B    0 0 0
  40 O    1     1.3795     2.6068    4 B    0 0 0
  40 O    1     2.3880     4.5126   42 O    0 0 0
  40 O    1     2.3884     4.5134   41 O    0 0 0
  40 O    1     2.5400     4.7998   24 C    0 0 0
  40 O    1     2.5403     4.8005   30 C    0 0 1

  41 O    1     1.3795     2.6069    5 B    0 0 0
  41 O    1     1.3795     2.6070    4 B    0 0 0
  41 O    1     2.3881     4.5128   42 O    0 0 0
  41 O    1     2.3884     4.5134   40 O    0 0 0
  41 O    1     2.5404     4.8006   24 C    0 0 0
  41 O    1     2.5405     4.8008   36 C    0 0 0

  42 O    1     1.3796     2.6071    6 B    0 0 0
  42 O    1     1.3797     2.6072    5 B    0 0 0
  42 O    1     2.3880     4.5126   40 O    0 0 0
  42 O    1     2.3881     4.5128   41 O    0 0 0
  42 O    1     2.5409     4.8016   36 C    0 0 0
  42 O    1     2.5410     4.8019   30 C    0 0 1


 SYMMETRY ALLOWED INTERNAL DEGREE(S) OF FREEDOM: 123
 TTTTTTTTTTTTTTTTTTTTTTTTTTTTTT SYMM        TELAPSE        0.36 TCPU        0.35
 TTTTTTTTTTTTTTTTTTTTTTTTTTTTTT INT_SCREEN  TELAPSE        0.39 TCPU        0.39

 DFT PARAMETERS

     ATOM       ELECTRONS   NET CHARGE   R(ANGSTROM)
   1   5  B       5.0000      0.0000     0.89000000
   7   1  H       1.0000      0.0000     1.11000000
  19   6  C       6.0000      0.0000     0.77000000
  37   8  O       8.0000      0.0000     0.74000000

 SIZE OF GRID=    1309875
 TTTTTTTTTTTTTTTTTTTTTTTTTTTTTT MAKE_GRID2  TELAPSE       18.43 TCPU        9.09
 BECKE WEIGHT FUNCTION
 RADSAFE =     2.00
 TOLERANCES - DENSITY:10**- 6; POTENTIAL:10**- 9; GRID WGT:10**-14

 RADIAL INTEGRATION  - INTERVALS (POINTS,UPPER LIMIT):            1( 75,  4.0*R)

 ANGULAR INTEGRATION - INTERVALS (ACCURACY LEVEL [N. POINTS] UPPER LIMIT):
  1(  4[  86]   0.2)  2(  8[ 194]   0.5)  3( 12[ 350]   0.9)  4( 16[ 974]   3.5)
  5( 12[ 350]9999.0)
 TTTTTTTTTTTTTTTTTTTTTTTTTTTTTT INT_CALC    TELAPSE       18.51 TCPU        9.17
 EEEEEEEEEE INT_CALC TERMINATION  DATE 19 02 2026 TIME 19:02:00.0

 *******************************************************************************
 cof-1_z39_L040_incl                                                             
 CRYSTAL - SCF - TYPE OF CALCULATION :  RESTRICTED CLOSED SHELL
 *******************************************************************************

 CAPPA:IS1  2;IS2  2;IS3  8; K PTS MONK NET  20; SYMMOPS:K SPACE   2;G SPACE   1

 TTTTTTTTTTTTTTTTTTTTTTTTTTTTTT SDIK        TELAPSE       19.40 TCPU       19.10

 AAAAAAAAAAAAAAAAAAAAAAAAAAAAAAAAAAAAAAAAAAAAAAAAAAAAAAAAAAAAAAAAAAAAAAAAAAAAAAA
         ATOMIC WAVEFUNCTION(S)


 NUCLEAR CHARGE  5.0  SYMMETRY SPECIES            S    P
 N. ELECTRONS    5.0  NUMBER OF PRIMITIVE GTOS    8    4
                      NUMBER OF CONTRACTED GTOS   4    2
                      NUMBER OF CLOSED SHELLS     2    0
                      OPEN SHELL OCCUPATION       0    1

  ZNUC  SCFIT    TOTAL HF ENERGY   KINETIC ENERGY   VIRIAL THEOREM ACCURACY
   5.0    11    -2.451164084E+01  2.462155050E+01 -1.995536038E+00  1.5E-06

 NUCLEAR CHARGE  1.0  SYMMETRY SPECIES            S
 N. ELECTRONS    1.0  NUMBER OF PRIMITIVE GTOS    4
                      NUMBER OF CONTRACTED GTOS   2
                      NUMBER OF CLOSED SHELLS     0
                      OPEN SHELL OCCUPATION       1

  ZNUC  SCFIT    TOTAL HF ENERGY   KINETIC ENERGY   VIRIAL THEOREM ACCURACY
   1.0     1    -4.977266687E-01  5.190767460E-01 -1.958869132E+00  0.0E+00

 NUCLEAR CHARGE  6.0  SYMMETRY SPECIES            S    P
 N. ELECTRONS    6.0  NUMBER OF PRIMITIVE GTOS    8    4
                      NUMBER OF CONTRACTED GTOS   4    2
                      NUMBER OF CLOSED SHELLS     2    0
                      OPEN SHELL OCCUPATION       0    2

  ZNUC  SCFIT    TOTAL HF ENERGY   KINETIC ENERGY   VIRIAL THEOREM ACCURACY
   6.0     9    -3.766704647E+01  3.775180683E+01 -1.997754800E+00  1.1E-06

 NUCLEAR CHARGE  8.0  SYMMETRY SPECIES            S    P
 N. ELECTRONS    8.0  NUMBER OF PRIMITIVE GTOS    8    4
                      NUMBER OF CONTRACTED GTOS   4    2
                      NUMBER OF CLOSED SHELLS     2    0
                      OPEN SHELL OCCUPATION       0    4

  ZNUC  SCFIT    TOTAL HF ENERGY   KINETIC ENERGY   VIRIAL THEOREM ACCURACY
   8.0    12    -7.477373220E+01  7.477365593E+01 -2.000001020E+00  3.8E-06

 AAAAAAAAAAAAAAAAAAAAAAAAAAAAAAAAAAAAAAAAAAAAAAAAAAAAAAAAAAAAAAAAAAAAAAAAAAAAAAA

 CHARGE NORMALIZATION FACTOR   1.00000000
 TOTAL ATOMIC CHARGES:
   5.0000000   5.0000000   5.0000000   5.0000000   5.0000000   5.0000000
   1.0000000   1.0000000   1.0000000   1.0000000   1.0000000   1.0000000
   1.0000000   1.0000000   1.0000000   1.0000000   1.0000000   1.0000000
   6.0000000   6.0000000   6.0000000   6.0000000   6.0000000   6.0000000
   6.0000000   6.0000000   6.0000000   6.0000000   6.0000000   6.0000000
   6.0000000   6.0000000   6.0000000   6.0000000   6.0000000   6.0000000
   8.0000000   8.0000000   8.0000000   8.0000000   8.0000000   8.0000000
 TTTTTTTTTTTTTTTTTTTTTTTTTTTTTT MOQGAD      TELAPSE       19.49 TCPU       20.85
 TTTTTTTTTTTTTTTTTTTTTTTTTTTTTT SHELLXN     TELAPSE       26.47 TCPU      242.33
 TTTTTTTTTTTTTTTTTTTTTTTTTTTTTT MONMO3      TELAPSE       26.61 TCPU      247.01
 NUMERICALLY INTEGRATED DENSITY    197.9999838829
 TTTTTTTTTTTTTTTTTTTTTTTTTTTTTT NUMDFT      TELAPSE       27.19 TCPU      265.42
 CYC   0 ETOT(AU) -1.295957412089E+03 DETOT -1.30E+03 tst  0.00E+00 PX  1.00E+00
 TTTTTTTTTTTTTTTTTTTTTTTTTTTTTT DIIS        TELAPSE       27.23 TCPU      266.55
 TTTTTTTTTTTTTTTTTTTTTTTTTTTTTT FDIK        TELAPSE       27.72 TCPU      282.32
 INSULATING STATE
 TOP OF VALENCE BANDS -    BAND     99; K   17; EIG -3.1305536E-01 AU
 TOP OF VALENCE BANDS -    BAND     99; K    1; EIG -3.1493595E-01 AU
 BOTTOM OF VIRTUAL BANDS - BAND    100; K   17; EIG -1.5972490E-01 AU
 DIRECT ENERGY BAND GAP:   4.1723 eV
 BOTTOM OF VIRTUAL BANDS - BAND    100; K    1; EIG -1.5806468E-01 AU
 TTTTTTTTTTTTTTTTTTTTTTTTTTTTTT PDIG        TELAPSE       28.03 TCPU      288.49
 CHARGE NORMALIZATION FACTOR   1.00000000
 TOTAL ATOMIC CHARGES:
   4.1531237   4.1650001   4.1652800   4.1647126   4.1644691   4.1530755
   0.7852433   0.7853779   0.7848606   0.7849372   0.7856771   0.7858451
   0.7856748   0.7858129   0.7848454   0.7849940   0.7851945   0.7853695
   6.0437218   6.2659935   6.2659485   6.2650745   6.2650981   6.0431189
   6.0467973   6.2646241   6.2647505   6.2645470   6.2647828   6.0454552
   6.0441187   6.2648350   6.2654632   6.2656171   6.2662194   6.0426879
   8.6930669   8.6932274   8.6936900   8.6936604   8.6941425   8.6938662
 TTTTTTTTTTTTTTTTTTTTTTTTTTTTTT MOQGAD      TELAPSE       28.08 TCPU      288.53
 TTTTTTTTTTTTTTTTTTTTTTTTTTTTTT SHELLXN     TELAPSE       35.29 TCPU      518.43
 TTTTTTTTTTTTTTTTTTTTTTTTTTTTTT MONMO3      TELAPSE       35.44 TCPU      523.10
 NUMERICALLY INTEGRATED DENSITY    197.9999852356
 TTTTTTTTTTTTTTTTTTTTTTTTTTTTTT NUMDFT      TELAPSE       36.02 TCPU      541.77
 CYC   1 ETOT(AU) -1.288821925008E+03 DETOT  7.14E+00 tst  0.00E+00 PX  1.00E+00
 TTTTTTTTTTTTTTTTTTTTTTTTTTTTTT DIIS        TELAPSE       36.07 TCPU      543.19
 DIIS TEST: 0.10949E+01 AT SCF   CYCLE   1 - MIX   30 %
 TTTTTTTTTTTTTTTTTTTTTTTTTTTTTT FDIK        TELAPSE       36.57 TCPU      559.24
 INSULATING STATE
 TOP OF VALENCE BANDS -    BAND     99; K   17; EIG -2.2561400E-01 AU
 TOP OF VALENCE BANDS -    BAND     99; K    1; EIG -2.2946410E-01 AU
 BOTTOM OF VIRTUAL BANDS - BAND    100; K   17; EIG -8.3424198E-02 AU
 DIRECT ENERGY BAND GAP:   3.8692 eV
 BOTTOM OF VIRTUAL BANDS - BAND    100; K    1; EIG -8.0296941E-02 AU
 TTTTTTTTTTTTTTTTTTTTTTTTTTTTTT PDIG        TELAPSE       36.88 TCPU      565.40
 CHARGE NORMALIZATION FACTOR   1.00000000
 TOTAL ATOMIC CHARGES:
   4.6784150   4.7013413   4.7013420   4.7013702   4.7015185   4.6782226
   0.9066344   0.9067111   0.9157321   0.9160143   0.9018315   0.9015814
   0.9018240   0.9015662   0.9157624   0.9160686   0.9065724   0.9065937
   5.8695399   6.1313327   6.1318816   6.1412851   6.1416037   5.8719851
   5.8888322   6.1428598   6.1441563   6.1436525   6.1430182   5.8908970
   5.8692537   6.1408365   6.1419789   6.1317805   6.1316265   5.8722053
   8.3307967   8.3309859   8.3445981   8.3306434   8.3444098   8.3307390
 TTTTTTTTTTTTTTTTTTTTTTTTTTTTTT MOQGAD      TELAPSE       36.92 TCPU      565.45
 TTTTTTTTTTTTTTTTTTTTTTTTTTTTTT SHELLXN     TELAPSE       44.14 TCPU      795.31
 TTTTTTTTTTTTTTTTTTTTTTTTTTTTTT MONMO3      TELAPSE       44.28 TCPU      799.98
 NUMERICALLY INTEGRATED DENSITY    197.9999814711
 TTTTTTTTTTTTTTTTTTTTTTTTTTTTTT NUMDFT      TELAPSE       44.86 TCPU      818.62
 CYC   2 ETOT(AU) -1.289016287494E+03 DETOT -1.94E-01 tst  3.67E-03 PX  1.59E-01
 TTTTTTTTTTTTTTTTTTTTTTTTTTTTTT DIIS        TELAPSE       44.91 TCPU      820.20
 DIIS TEST: 0.44902E+00 AT SCF   CYCLE   2 - DIIS ACTIVE - HISTORY:     2 CYCLES
 TTTTTTTTTTTTTTTTTTTTTTTTTTTTTT FDIK        TELAPSE       45.42 TCPU      836.31
 INSULATING STATE
 TOP OF VALENCE BANDS -    BAND     99; K   17; EIG -2.3772402E-01 AU
 TOP OF VALENCE BANDS -    BAND     99; K    1; EIG -2.4006975E-01 AU
 BOTTOM OF VIRTUAL BANDS - BAND    100; K   17; EIG -7.9261214E-02 AU
 DIRECT ENERGY BAND GAP:   4.3120 eV
 BOTTOM OF VIRTUAL BANDS - BAND    100; K    1; EIG -7.6311873E-02 AU
 TTTTTTTTTTTTTTTTTTTTTTTTTTTTTT PDIG        TELAPSE       45.72 TCPU      842.46
 CHARGE NORMALIZATION FACTOR   1.00000000
 TOTAL ATOMIC CHARGES:
   4.4776518   4.4994154   4.4994830   4.4990119   4.4988819   4.4774947
   0.8861142   0.8863349   0.8931496   0.8933485   0.8834464   0.8835210
   0.8835838   0.8833522   0.8930954   0.8934697   0.8861066   0.8861923
   5.8931380   6.1622683   6.1621052   6.1567997   6.1560254   5.8927712
   5.9061830   6.1632537   6.1628653   6.1630048   6.1629503   5.9057832
   5.8934558   6.1567296   6.1560751   6.1620521   6.1624028   5.8924976
   8.5147088   8.5150495   8.5128162   8.5151660   8.5127235   8.5155215
 TTTTTTTTTTTTTTTTTTTTTTTTTTTTTT MOQGAD      TELAPSE       45.77 TCPU      842.51
 TTTTTTTTTTTTTTTTTTTTTTTTTTTTTT SHELLXN     TELAPSE       52.98 TCPU     1072.34
 TTTTTTTTTTTTTTTTTTTTTTTTTTTTTT MONMO3      TELAPSE       53.12 TCPU     1077.01
 NUMERICALLY INTEGRATED DENSITY    197.9999812229
 TTTTTTTTTTTTTTTTTTTTTTTTTTTTTT NUMDFT      TELAPSE       53.71 TCPU     1095.67
 CYC   3 ETOT(AU) -1.289109024873E+03 DETOT -9.27E-02 tst  6.61E-04 PX  6.56E-02
 TTTTTTTTTTTTTTTTTTTTTTTTTTTTTT DIIS        TELAPSE       53.77 TCPU     1097.52
 DIIS TEST: 0.14469E-01 AT SCF   CYCLE   3 - DIIS ACTIVE - HISTORY:     3 CYCLES
 TTTTTTTTTTTTTTTTTTTTTTTTTTTTTT FDIK        TELAPSE       54.27 TCPU     1113.58
 INSULATING STATE
 TOP OF VALENCE BANDS -    BAND     99; K   17; EIG -2.4753862E-01 AU
 TOP OF VALENCE BANDS -    BAND     99; K    1; EIG -2.5169168E-01 AU
 BOTTOM OF VIRTUAL BANDS - BAND    100; K   17; EIG -8.8066828E-02 AU
 DIRECT ENERGY BAND GAP:   4.3395 eV
 BOTTOM OF VIRTUAL BANDS - BAND    100; K    1; EIG -8.4300802E-02 AU
 TTTTTTTTTTTTTTTTTTTTTTTTTTTTTT PDIG        TELAPSE       54.58 TCPU     1119.75
 CHARGE NORMALIZATION FACTOR   1.00000000
 TOTAL ATOMIC CHARGES:
   4.4840103   4.5035456   4.5035715   4.5033553   4.5032944   4.4840239
   0.8693915   0.8695347   0.8753433   0.8755026   0.8645525   0.8643934
   0.8645341   0.8643826   0.8754013   0.8755372   0.8693586   0.8694289
   5.9384640   6.1646919   6.1650093   6.1697347   6.1704883   5.9406914
   5.9552097   6.1728515   6.1742887   6.1736266   6.1732289   5.9564934
   5.9384655   6.1691354   6.1710248   6.1649211   6.1648943   5.9406863
   8.4762249   8.4763108   8.4858546   8.4762082   8.4860758   8.4762583
 TTTTTTTTTTTTTTTTTTTTTTTTTTTTTT MOQGAD      TELAPSE       54.63 TCPU     1119.80
 TTTTTTTTTTTTTTTTTTTTTTTTTTTTTT SHELLXN     TELAPSE       61.84 TCPU     1349.62
 TTTTTTTTTTTTTTTTTTTTTTTTTTTTTT MONMO3      TELAPSE       61.98 TCPU     1354.29
 NUMERICALLY INTEGRATED DENSITY    197.9999817219
 TTTTTTTTTTTTTTTTTTTTTTTTTTTTTT NUMDFT      TELAPSE       62.57 TCPU     1372.95
 CYC   4 ETOT(AU) -1.289112128655E+03 DETOT -3.10E-03 tst  2.92E-05 PX  1.41E-02
 TTTTTTTTTTTTTTTTTTTTTTTTTTTTTT DIIS        TELAPSE       62.62 TCPU     1374.82
 DIIS TEST: 0.41486E-02 AT SCF   CYCLE   4 - DIIS ACTIVE - HISTORY:     4 CYCLES
 TTTTTTTTTTTTTTTTTTTTTTTTTTTTTT FDIK        TELAPSE       63.12 TCPU     1390.82
 INSULATING STATE
 TOP OF VALENCE BANDS -    BAND     99; K   17; EIG -2.4589577E-01 AU
 TOP OF VALENCE BANDS -    BAND     99; K    1; EIG -2.4947949E-01 AU
 BOTTOM OF VIRTUAL BANDS - BAND    100; K   17; EIG -8.7459622E-02 AU
 DIRECT ENERGY BAND GAP:   4.3113 eV
 BOTTOM OF VIRTUAL BANDS - BAND    100; K    1; EIG -8.4184324E-02 AU
 TTTTTTTTTTTTTTTTTTTTTTTTTTTTTT PDIG        TELAPSE       63.45 TCPU     1397.00
 CHARGE NORMALIZATION FACTOR   1.00000000
 TOTAL ATOMIC CHARGES:
   4.4843614   4.5061121   4.5061655   4.5058801   4.5058080   4.4842138
   0.8719484   0.8721229   0.8788743   0.8791461   0.8681186   0.8681513
   0.8682170   0.8680222   0.8788514   0.8792550   0.8719269   0.8719975
   5.9230019   6.1666985   6.1666361   6.1678751   6.1670569   5.9226618
   5.9378845   6.1724502   6.1722755   6.1723376   6.1721548   5.9375546
   5.9231065   6.1676930   6.1671875   6.1665726   6.1668734   5.9225572
   8.4884134   8.4887257   8.4918125   8.4886897   8.4916097   8.4889990
 TTTTTTTTTTTTTTTTTTTTTTTTTTTTTT MOQGAD      TELAPSE       63.50 TCPU     1397.05
 TTTTTTTTTTTTTTTTTTTTTTTTTTTTTT SHELLXN     TELAPSE       70.71 TCPU     1626.97
 TTTTTTTTTTTTTTTTTTTTTTTTTTTTTT MONMO3      TELAPSE       70.85 TCPU     1631.64
 NUMERICALLY INTEGRATED DENSITY    197.9999817061
 TTTTTTTTTTTTTTTTTTTTTTTTTTTTTT NUMDFT      TELAPSE       71.44 TCPU     1650.28
 CYC   5 ETOT(AU) -1.289113075221E+03 DETOT -9.47E-04 tst  7.10E-06 PX  6.41E-03
 TTTTTTTTTTTTTTTTTTTTTTTTTTTTTT DIIS        TELAPSE       71.51 TCPU     1652.49
 DIIS TEST: 0.58847E-04 AT SCF   CYCLE   5 - DIIS ACTIVE - HISTORY:     5 CYCLES
 TTTTTTTTTTTTTTTTTTTTTTTTTTTTTT FDIK        TELAPSE       72.01 TCPU     1668.59
 INSULATING STATE
 TOP OF VALENCE BANDS -    BAND     99; K   17; EIG -2.4567584E-01 AU
 TOP OF VALENCE BANDS -    BAND     99; K    1; EIG -2.4925168E-01 AU
 BOTTOM OF VIRTUAL BANDS - BAND    100; K   17; EIG -8.6957406E-02 AU
 DIRECT ENERGY BAND GAP:   4.3190 eV
 BOTTOM OF VIRTUAL BANDS - BAND    100; K    1; EIG -8.3684966E-02 AU
 TTTTTTTTTTTTTTTTTTTTTTTTTTTTTT PDIG        TELAPSE       72.32 TCPU     1674.75
 CHARGE NORMALIZATION FACTOR   1.00000000
 TOTAL ATOMIC CHARGES:
   4.4850282   4.5056023   4.5056474   4.5053439   4.5052784   4.4849658
   0.8729590   0.8731121   0.8798228   0.8799382   0.8692345   0.8690493
   0.8692257   0.8690306   0.8798595   0.8799852   0.8729169   0.8730066
   5.9212857   6.1656453   6.1659731   6.1664071   6.1675001   5.9239580
   5.9369123   6.1707984   6.1722841   6.1715589   6.1712779   5.9384907
   5.9214754   6.1658954   6.1679655   6.1658812   6.1658429   5.9237773
   8.4874564   8.4875307   8.4933082   8.4875318   8.4936580   8.4875791
 TTTTTTTTTTTTTTTTTTTTTTTTTTTTTT MOQGAD      TELAPSE       72.37 TCPU     1674.80
 TTTTTTTTTTTTTTTTTTTTTTTTTTTTTT SHELLXN     TELAPSE       79.58 TCPU     1904.63
 TTTTTTTTTTTTTTTTTTTTTTTTTTTTTT MONMO3      TELAPSE       82.67 TCPU     1915.27
 NUMERICALLY INTEGRATED DENSITY    197.9999816627
 TTTTTTTTTTTTTTTTTTTTTTTTTTTTTT NUMDFT      TELAPSE       83.25 TCPU     1933.95
 CYC   6 ETOT(AU) -1.289113089641E+03 DETOT -1.44E-05 tst  9.61E-08 PX  8.45E-04
 TTTTTTTTTTTTTTTTTTTTTTTTTTTTTT DIIS        TELAPSE       83.32 TCPU     1936.15
 DIIS TEST: 0.16401E-04 AT SCF   CYCLE   6 - DIIS ACTIVE - HISTORY:     6 CYCLES
 TTTTTTTTTTTTTTTTTTTTTTTTTTTTTT FDIK        TELAPSE       83.82 TCPU     1952.10
 INSULATING STATE
 TOP OF VALENCE BANDS -    BAND     99; K   17; EIG -2.4568197E-01 AU
 TOP OF VALENCE BANDS -    BAND     99; K    1; EIG -2.4925321E-01 AU
 BOTTOM OF VIRTUAL BANDS - BAND    100; K   17; EIG -8.7008466E-02 AU
 DIRECT ENERGY BAND GAP:   4.3177 eV
 BOTTOM OF VIRTUAL BANDS - BAND    100; K    1; EIG -8.3717585E-02 AU
 TTTTTTTTTTTTTTTTTTTTTTTTTTTTTT PDIG        TELAPSE       84.13 TCPU     1958.26
 CHARGE NORMALIZATION FACTOR   1.00000000
 TOTAL ATOMIC CHARGES:
   4.4847308   4.5058956   4.5059461   4.5056589   4.5055823   4.4846236
   0.8729082   0.8730862   0.8797027   0.8799624   0.8690513   0.8690549
   0.8691338   0.8689445   0.8796963   0.8800528   0.8728873   0.8729592
   5.9227554   6.1658888   6.1658738   6.1671848   6.1664902   5.9226839
   5.9377735   6.1715752   6.1716194   6.1716024   6.1713507   5.9376135
   5.9228168   6.1669091   6.1667169   6.1658064   6.1660673   5.9226278
   8.4878054   8.4880877   8.4923266   8.4880478   8.4921785   8.4883210
 TTTTTTTTTTTTTTTTTTTTTTTTTTTTTT MOQGAD      TELAPSE       84.18 TCPU     1958.31
 TTTTTTTTTTTTTTTTTTTTTTTTTTTTTT SHELLXN     TELAPSE       91.38 TCPU     2188.11
 TTTTTTTTTTTTTTTTTTTTTTTTTTTTTT MONMO3      TELAPSE       91.53 TCPU     2192.77
 NUMERICALLY INTEGRATED DENSITY    197.9999816680
 TTTTTTTTTTTTTTTTTTTTTTTTTTTTTT NUMDFT      TELAPSE       92.11 TCPU     2211.40
 CYC   7 ETOT(AU) -1.289113092880E+03 DETOT -3.24E-06 tst  8.07E-08 PX  5.55E-04
 TTTTTTTTTTTTTTTTTTTTTTTTTTTTTT DIIS        TELAPSE       92.19 TCPU     2213.99
 DIIS TEST: 0.18670E-05 AT SCF   CYCLE   7 - DIIS ACTIVE - HISTORY:     7 CYCLES
 TTTTTTTTTTTTTTTTTTTTTTTTTTTTTT FDIK        TELAPSE       92.70 TCPU     2230.09
 INSULATING STATE
 TOP OF VALENCE BANDS -    BAND     99; K   17; EIG -2.4568136E-01 AU
 TOP OF VALENCE BANDS -    BAND     99; K    1; EIG -2.4926075E-01 AU
 BOTTOM OF VIRTUAL BANDS - BAND    100; K   17; EIG -8.7031966E-02 AU
 DIRECT ENERGY BAND GAP:   4.3171 eV
 BOTTOM OF VIRTUAL BANDS - BAND    100; K    1; EIG -8.3738678E-02 AU
 TTTTTTTTTTTTTTTTTTTTTTTTTTTTTT PDIG        TELAPSE       93.01 TCPU     2236.25
 CHARGE NORMALIZATION FACTOR   1.00000000
 TOTAL ATOMIC CHARGES:
   4.4847467   4.5059612   4.5060101   4.5057171   4.5056456   4.4846445
   0.8728813   0.8730500   0.8797132   0.8799068   0.8690369   0.8689736
   0.8690913   0.8688910   0.8797134   0.8799911   0.8728518   0.8729319
   5.9221687   6.1658023   6.1659049   6.1668346   6.1669001   5.9231999
   5.9374093   6.1713518   6.1719110   6.1716138   6.1714088   5.9379406
   5.9223229   6.1665217   6.1671637   6.1658336   6.1659835   5.9230512
   8.4878801   8.4880893   8.4922915   8.4880639   8.4923355   8.4882598
 TTTTTTTTTTTTTTTTTTTTTTTTTTTTTT MOQGAD      TELAPSE       93.05 TCPU     2236.30
 TTTTTTTTTTTTTTTTTTTTTTTTTTTTTT SHELLXN     TELAPSE      100.26 TCPU     2466.18
 TTTTTTTTTTTTTTTTTTTTTTTTTTTTTT MONMO3      TELAPSE      100.41 TCPU     2470.84
 NUMERICALLY INTEGRATED DENSITY    197.9999816678
 TTTTTTTTTTTTTTTTTTTTTTTTTTTTTT NUMDFT      TELAPSE      100.99 TCPU     2489.51
 CYC   8 ETOT(AU) -1.289113093095E+03 DETOT -2.15E-07 tst  1.32E-08 PX  1.50E-04
 TTTTTTTTTTTTTTTTTTTTTTTTTTTTTT DIIS        TELAPSE      101.07 TCPU     2492.06
 DIIS TEST: 0.22353E-06 AT SCF   CYCLE   8 - DIIS ACTIVE - HISTORY:     8 CYCLES
 TTTTTTTTTTTTTTTTTTTTTTTTTTTTTT FDIK        TELAPSE      101.57 TCPU     2508.05
 INSULATING STATE
 TOP OF VALENCE BANDS -    BAND     99; K   17; EIG -2.4568325E-01 AU
 TOP OF VALENCE BANDS -    BAND     99; K    1; EIG -2.4926298E-01 AU
 BOTTOM OF VIRTUAL BANDS - BAND    100; K   17; EIG -8.7027706E-02 AU
 DIRECT ENERGY BAND GAP:   4.3172 eV
 BOTTOM OF VIRTUAL BANDS - BAND    100; K    1; EIG -8.3737346E-02 AU
 TTTTTTTTTTTTTTTTTTTTTTTTTTTTTT PDIG        TELAPSE      101.89 TCPU     2514.22
 CHARGE NORMALIZATION FACTOR   1.00000000
 TOTAL ATOMIC CHARGES:
   4.4847944   4.5059238   4.5059726   4.5056812   4.5056094   4.4846922
   0.8728737   0.8730435   0.8796997   0.8799169   0.8690350   0.8689854
   0.8690923   0.8688999   0.8797037   0.8799974   0.8728461   0.8729236
   5.9223120   6.1658184   6.1659019   6.1669648   6.1667977   5.9230348
   5.9375127   6.1713977   6.1718478   6.1716268   6.1713776   5.9378563
   5.9224220   6.1666332   6.1670804   6.1658282   6.1660018   5.9229302
   8.4877966   8.4880196   8.4924782   8.4879942   8.4924725   8.4882038
 TTTTTTTTTTTTTTTTTTTTTTTTTTTTTT MOQGAD      TELAPSE      101.93 TCPU     2514.26
 TTTTTTTTTTTTTTTTTTTTTTTTTTTTTT SHELLXN     TELAPSE      109.14 TCPU     2744.09
 +++ ENERGIES IN A.U. +++
 ::: EXT EL-POLE                                  -1.3297643699688E+03
 ::: EXT EL-SPHEROPOLE                             1.4685155531496E+01
 ::: BIELET ZONE E-E                               2.1034364299839E+03
 ::: TOTAL E-E                                     7.8835721554667E+02
 ::: TOTAL E-N + N-E                              -3.4055327937423E+03
 ::: TOTAL N-N                                     1.8185433362292E+02
 ::: KINETIC ENERGY                                1.2799230576180E+03
 ::: PSEUDO TOTAL   ENERGY                        -1.1553981869548E+03
 ::: VIRIAL COEFFICIENT                            1.0511328314245E+00
 TTTTTTTTTTTTTTTTTTTTTTTTTTTTTT MONMO3      TELAPSE      109.29 TCPU     2748.76
 NUMERICALLY INTEGRATED DENSITY    197.9999816671
 EXCHANGE ENERGY: -0.126024554058E+03  CORRELATION ENERGY: -0.769035213807E+01
 TTTTTTTTTTTTTTTTTTTTTTTTTTTTTT NUMDFT      TELAPSE      109.87 TCPU     2767.38
 CYC   9 ETOT(AU) -1.289113093150E+03 DETOT -5.56E-08 tst  1.02E-09 PX  1.50E-04

 == SCF ENDED - CONVERGENCE ON ENERGY      E(AU) -1.2891130931504E+03 CYCLES   9


 ENERGY EXPRESSION=HARTREE+FOCK EXCH*0.00000+(HSESOL     EXCH)*1.00000+PBESOL     CORR


 TOTAL ENERGY(DFT)(AU)(  9) -1.2891130931504E+03 DE-5.6E-08 tester 1.0E-09
 TTTTTTTTTTTTTTTTTTTTTTTTTTTTTT EDFT        TELAPSE      109.87 TCPU     2767.39
 
 INFORMATION **** DFTD3 ENERGY **** CALCULATE DFTD3 ENERGY

           DFT-D V3(BJ)
 DF                                         hsesol3c  
 parameters
 s6       :    1.0000
 s8       :    0.0000
 a1       :    0.5196
 a2       :    4.9385
 k1 k3    :   16.0000   -4.0000
 Cutoff   :   50.2022
 CN-Cutoff:   21.1671
 ABC-Cutoff:   21.1671
 
 Edisp /kcal,au:   -25.0762 -0.03996150

 E6    /kcal :   -26.5555
 E8    /kcal :     0.0000
 E6(ABC) "   :   1.479260
 
 INFORMATION **** DFTD3 ENERGY **** NORMAL TERMINATION OF DFTD3 MODULE

 GCP ENERGY CALCULATION
  level        hsesol3c            basis:hsesol3c
  Nbf            474
  Atoms           42

  Parameters: 
  sigma     1.0000
  eta       1.4281
  alpha     0.2936
  beta      1.9467

  dmp_scal      4.0000
  dmp_exp       6.0000
 cutoffs: 
   distance [bohr] 60.0
   noise    [a.u.] 2.2E-16
 SR-damping   T
 ** gCP correction **
  Egcp:        0.0829822206 / (a.u.) ||      52.0721 / (kcal/mol)
 INFORMATION **** GCP **** NORMAL TERMINATION OF GCP MODULE

 *******************************************************************************

 DFT-D3-GCP DISPERSION AND COUNTERPOISE CORRECTION

 D3 DISPERSION ENERGY (AU)      -3.9961496265378E-02
 GCP ENERGY (AU)                 8.2982220597457E-02
 TOTAL ENERGY + DISP + GCP (AU) -1.2890700724261E+03

 *******************************************************************************

 EIGENVECTORS IN FORTRAN UNIT 10
 TTTTTTTTTTTTTTTTTTTTTTTTTTTTTT END         TELAPSE      111.06 TCPU     2774.55
 EEEEEEEEEE TERMINATION  DATE 19 02 2026 TIME 19:03:32.6
