 Default number of threads is:           32

         
 *******************************************************************************
 *                                                                             *
 *                               CRYSTAL23                                     *
 *                      public : 1.0.1 - October 2022                          *
 *                       HTTP://WWW.CRYSTAL.UNITO.IT                           *
 *                                                                             *
 *                              MAIN AUTHORS                                   *
 *                                                                             *
 *  R. DOVESI(1,11), V.R. SAUNDERS(2), C. ROETTI(1,11), R. ORLANDO(1,11),      *
 *  C.M. ZICOVICH-WILSON(1,3), F. PASCALE(4), B. CIVALLERI(1,11),              *
 *  K. DOLL(5), N.M. HARRISON(6), I.J. BUSH(7), Ph. D'ARCO(8),                 *
 *  M. LLUNELL(9), M. CAUSA'(10), Y. NOEL(8), L. MASCHIO(1,11), A. ERBA(1,11)  *
 *  M. RE'RAT(14), S. CASASSA(1,11), B.G. SEARLE(2), J.K. DESMARAIS(1)         *
 *                                                                             *
 *        CONTRIBUTIONS TO THE CODE HAVE ALSO BEEN GIVEN BY                    *
 *                                                                             *
 *  M. FERRABONE(1,11), M. DE LA PIERRE(1,11), M. FERRERO(1,11),               *
 *  J. BAIMA(1,11), E. ALBANESE(1,11), M.F. PEINTINGER(12), R. BAST(13),       *
 *  B. KIRTMAN(15), V. LACIVITA(1,11), R. DEMICHELIS(1,16)                     *
 *  G. BRANDEBURG(17), S. SALUSTRO(1,11), G. SANSONE(1,11)                     *
 *  M.T. RUGGIERO(18), L.E. DAGA(1), L. DONA'(1), A. COSSARD(1)                *
 *                                                                             *
 * (1) THEORETICAL CHEMISTRY GROUP - UNIVERSITA' DI TORINO - TORINO (ITALY)    *
 * (2) SCIENTIFIC COMPUTING DEPARTMENT - STFC DARESBURY (UK)                   *
 * (3) UNIVERSIDAD AUTONOMA DEL ESTADO DE MORELOS - CUERNAVACA (MEXICO)        *
 * (4) UNIVERSITE' DE LORRAINE - NANCY (FRANCE)                                *
 * (5) UNIVERSITAET STUTTGART- STUTTGART (GERMANY)                             *
 * (6) IMPERIAL COLLEGE - LONDON (UK)                                          *
 * (7) SCIENTIFIC COMPUTING DEPARTMENT - STFC RAL (UK)                         *
 * (8) UPMC - SORBONNE UNIVERSITES - PARIS (FRANCE)                            *
 * (9) UNIVERSIDAD DE BARCELONA - BARCELONA (SPAIN)                            *
 *(10) UNIVERSITA' DI NAPOLI "FEDERICO II" - NAPOLI (ITALY)                    *
 *(11) NIS - NANOSTRUCTURED INTERFACES AND SURFACES - TORINO (ITALY)           *
 *(12) MPI FUER CHEMISCHE ENERGIEKONVERSION - MUELHEIM AN DER RUHR (GERMANY)   *
 *(13) UNIVERSITY OF TROMSO - TROMSO (NORWAY)                                  *
 *(14) UNIVERSITE' DE PAU ET DES PAYS DE L'ADOUR - PAU (FRANCE)                *
 *(15) UNIVERSITY OF CALIFORNIA SANTA BARBARA - SANTA BARBARA (USA)            *
 *(16) CURTIN UNIVERSITY - PERTH (AUSTRALIA)                                   *
 *(17) UNIVERSITY COLLEGE LONDON - LONDON (UK)                                 *
 *(18) UNIVERSITY OF VERMONT - BURLINGTON (USA)                                *
 *                                                                             *
 *******************************************************************************
 EEEEEEEEEE STARTING  DATE 19 02 2026 TIME 17:55:06.7
 cof-1_z31_L070_incl                                                             

 CRYSTAL CALCULATION
 (INPUT ACCORDING TO THE INTERNATIONAL TABLES FOR X-RAY CRYSTALLOGRAPHY)
 CRYSTAL FAMILY                       :  TRICLINIC   
 CRYSTAL CLASS  (GROTH - 1921)        :  TRICLINIC PEDIAL                     

 SPACE GROUP (NONCENTROSYMMETRIC)     :  P 1             

 LATTICE PARAMETERS  (ANGSTROMS AND DEGREES) - CONVENTIONAL CELL
        A           B           C        ALPHA        BETA       GAMMA
    15.02361    15.02392     7.65572    37.63848    89.99998   119.99596


 NUMBER OF IRREDUCIBLE ATOMS IN THE CONVENTIONAL CELL:   42

 INPUT COORDINATES

 ATOM AT. N.              COORDINATES
   1   5     4.787864400000E-01 -4.249741000000E-02  5.015341600000E-01
   2   5     6.378420900000E-01  1.165622400000E-01  5.015341800000E-01
   3   5     4.796535200000E-01  1.182879200000E-01  4.982944900000E-01
   4   5     9.236114000000E-02  3.438175800000E-01  5.015341700000E-01
   5   5     2.514691200000E-01  3.437968200000E-01  5.015341600000E-01
   6   5     2.523207500000E-01  5.046789000000E-01  4.982944900000E-01
   7   1     7.699560100000E-01  4.272778000000E-02  4.948176300000E-01
   8   1    -3.617683000000E-02  4.254037100000E-01  4.937905700000E-01
   9   1     7.702025700000E-01  3.285077400000E-01  4.936325000000E-01
  10   1    -3.604327000000E-02  1.400990400000E-01  4.936719200000E-01
  11   1     5.551606600000E-01 -1.747669900000E-01  5.051690100000E-01
  12   1     1.727817100000E-01  6.311136100000E-01  5.061961600000E-01
  13   1     2.696794400000E-01 -1.753588100000E-01  5.063543300000E-01
  14   1     4.581323400000E-01  6.309598900000E-01  5.063146300000E-01
  15   1     5.579851200000E-01  3.278519100000E-01  4.948176900000E-01
  16   1     1.761504800000E-01  1.399596400000E-01  4.937905000000E-01
  17   1     2.730717600000E-01  4.325863000000E-02  4.936323700000E-01
  18   1     4.615113900000E-01  4.253719600000E-01  4.936720500000E-01
  19   6     7.578994400000E-01  1.779347200000E-01  4.981759400000E-01
  20   6     8.133589900000E-01  1.264983200000E-01  4.949757000000E-01
  21   6    -7.966764000000E-02  3.410467200000E-01  4.946992300000E-01
  22   6     8.131732000000E-01  2.871072600000E-01  4.955289100000E-01
  23   6    -7.927873000000E-02  1.808128500000E-01  4.933953600000E-01
  24   6    -2.525364000000E-02  2.874294700000E-01  4.955683800000E-01
  25   6     4.190709200000E-01 -1.617959700000E-01  5.018107500000E-01
  26   6     4.713486200000E-01 -2.181301300000E-01  5.050109400000E-01
  27   6     2.568950600000E-01  6.748283000000E-01  5.052875000000E-01
  28   6     3.106071100000E-01 -2.177856600000E-01  5.044578500000E-01
  29   6     4.174625800000E-01  6.740873100000E-01  5.065912500000E-01
  30   6     3.102580800000E-01  6.206248200000E-01  5.044182900000E-01
  31   6     4.200540000000E-01  1.778655800000E-01  4.981759400000E-01
  32   6     4.740800800000E-01  2.873384400000E-01  4.949757600000E-01
  33   6     2.597676200000E-01  1.800334900000E-01  4.946991700000E-01
  34   6     3.130083700000E-01  1.261051100000E-01  4.955288200000E-01
  35   6     4.210378700000E-01  3.416608400000E-01  4.933954400000E-01
  36   6     3.126704500000E-01  2.873520700000E-01  4.955683800000E-01
  37   8     4.264801500000E-01  1.183028000000E-02  4.991636500000E-01
  38   8     5.835868200000E-01  8.160900000000E-03  5.059986200000E-01
  39   8     5.863580000000E-01  1.726535200000E-01  4.956869400000E-01
  40   8     1.460679700000E-01  4.511107400000E-01  4.991636900000E-01
  41   8     1.442490900000E-01  2.884781800000E-01  5.059986200000E-01
  42   8     3.059424300000E-01  4.529654900000E-01  4.956869100000E-01

 *******************************************************************************

 << INFORMATION >>: FROM NOW ON, ALL COORDINATES REFER TO THE PRIMITIVE CELL

 *******************************************************************************

 LATTICE PARAMETERS  (ANGSTROMS AND DEGREES) - PRIMITIVE CELL
       A          B          C        ALPHA      BETA     GAMMA        VOLUME
   15.02361   15.02392    7.65572    37.63848  89.99998 119.99596    606.000926

 COORDINATES OF THE EQUIVALENT ATOMS (FRACTIONAL UNITS)

 N. ATOM EQUIV AT. N.          X                  Y                  Z

   1   1   1    5 B     4.78786440000E-01 -4.24974100000E-02 -4.98465840000E-01

   2   2   1    5 B    -3.62157910000E-01  1.16562240000E-01 -4.98465820000E-01

   3   3   1    5 B     4.79653520000E-01  1.18287920000E-01  4.98294490000E-01

   4   4   1    5 B     9.23611400000E-02  3.43817580000E-01 -4.98465830000E-01

   5   5   1    5 B     2.51469120000E-01  3.43796820000E-01 -4.98465840000E-01

   6   6   1    5 B     2.52320750000E-01 -4.95321100000E-01  4.98294490000E-01

   7   7   1    1 H    -2.30043990000E-01  4.27277800000E-02  4.94817630000E-01

   8   8   1    1 H    -3.61768300000E-02  4.25403710000E-01  4.93790570000E-01

   9   9   1    1 H    -2.29797430000E-01  3.28507740000E-01  4.93632500000E-01

  10  10   1    1 H    -3.60432700000E-02  1.40099040000E-01  4.93671920000E-01

  11  11   1    1 H    -4.44839340000E-01 -1.74766990000E-01 -4.94830990000E-01

  12  12   1    1 H     1.72781710000E-01 -3.68886390000E-01 -4.93803840000E-01

  13  13   1    1 H     2.69679440000E-01 -1.75358810000E-01 -4.93645670000E-01

  14  14   1    1 H     4.58132340000E-01 -3.69040110000E-01 -4.93685370000E-01

  15  15   1    1 H    -4.42014880000E-01  3.27851910000E-01  4.94817690000E-01

  16  16   1    1 H     1.76150480000E-01  1.39959640000E-01  4.93790500000E-01

  17  17   1    1 H     2.73071760000E-01  4.32586300000E-02  4.93632370000E-01

  18  18   1    1 H     4.61511390000E-01  4.25371960000E-01  4.93672050000E-01

  19  19   1    6 C    -2.42100560000E-01  1.77934720000E-01  4.98175940000E-01

  20  20   1    6 C    -1.86641010000E-01  1.26498320000E-01  4.94975700000E-01

  21  21   1    6 C    -7.96676400000E-02  3.41046720000E-01  4.94699230000E-01

  22  22   1    6 C    -1.86826800000E-01  2.87107260000E-01  4.95528910000E-01

  23  23   1    6 C    -7.92787300000E-02  1.80812850000E-01  4.93395360000E-01

  24  24   1    6 C    -2.52536400000E-02  2.87429470000E-01  4.95568380000E-01

  25  25   1    6 C     4.19070920000E-01 -1.61795970000E-01 -4.98189250000E-01

  26  26   1    6 C     4.71348620000E-01 -2.18130130000E-01 -4.94989060000E-01

  27  27   1    6 C     2.56895060000E-01 -3.25171700000E-01 -4.94712500000E-01

  28  28   1    6 C     3.10607110000E-01 -2.17785660000E-01 -4.95542150000E-01

  29  29   1    6 C     4.17462580000E-01 -3.25912690000E-01 -4.93408750000E-01

  30  30   1    6 C     3.10258080000E-01 -3.79375180000E-01 -4.95581710000E-01

  31  31   1    6 C     4.20054000000E-01  1.77865580000E-01  4.98175940000E-01

  32  32   1    6 C     4.74080080000E-01  2.87338440000E-01  4.94975760000E-01

  33  33   1    6 C     2.59767620000E-01  1.80033490000E-01  4.94699170000E-01

  34  34   1    6 C     3.13008370000E-01  1.26105110000E-01  4.95528820000E-01

  35  35   1    6 C     4.21037870000E-01  3.41660840000E-01  4.93395440000E-01

  36  36   1    6 C     3.12670450000E-01  2.87352070000E-01  4.95568380000E-01

  37  37   1    8 O     4.26480150000E-01  1.18302800000E-02  4.99163650000E-01

  38  38   1    8 O    -4.16413180000E-01  8.16090000000E-03 -4.94001380000E-01

  39  39   1    8 O    -4.13642000000E-01  1.72653520000E-01  4.95686940000E-01

  40  40   1    8 O     1.46067970000E-01  4.51110740000E-01  4.99163690000E-01

  41  41   1    8 O     1.44249090000E-01  2.88478180000E-01 -4.94001380000E-01

  42  42   1    8 O     3.05942430000E-01  4.52965490000E-01  4.95686910000E-01

 NUMBER OF SYMMETRY OPERATORS         :    1
 *******************************************************************************
 * GEOMETRY EDITING - INPUT COORDINATES ARE GIVEN IN ANGSTROM         
 *******************************************************************************

 GCALCO - MAX INDICES DIRECT LATTICE VECTOR     8    14    25
 NO.OF VECTORS CREATED 6999 STARS 3500 RMAX   207.82718 BOHR

 GEOMETRY FOR WAVE FUNCTION - DIMENSIONALITY OF THE SYSTEM    3
 (NON PERIODIC DIRECTION: LATTICE PARAMETER FORMALLY SET TO 500)
 *******************************************************************************
 LATTICE PARAMETERS (ANGSTROMS AND DEGREES) - BOHR = 0.5291772083 ANGSTROM
 PRIMITIVE CELL - CENTRING CODE 1/0 VOLUME=   606.000926 - DENSITY  1.069 g/cm^3
         A              B              C           ALPHA      BETA       GAMMA 
    15.02361100    15.02391600     7.65571700    37.638477  89.999977 119.995964
 *******************************************************************************
 ATOMS IN THE ASYMMETRIC UNIT   42 - ATOMS IN THE UNIT CELL:   42
     ATOM                 X/A                 Y/B                 Z/C    
 *******************************************************************************
      1 T   5 B     4.787864400000E-01 -4.249741000000E-02 -4.984658400000E-01
      2 T   5 B    -3.621579100000E-01  1.165622400000E-01 -4.984658200000E-01
      3 T   5 B     4.796535200000E-01  1.182879200000E-01  4.982944900000E-01
      4 T   5 B     9.236114000000E-02  3.438175800000E-01 -4.984658300000E-01
      5 T   5 B     2.514691200000E-01  3.437968200000E-01 -4.984658400000E-01
      6 T   5 B     2.523207500000E-01 -4.953211000000E-01  4.982944900000E-01
      7 T   1 H    -2.300439900000E-01  4.272778000000E-02  4.948176300000E-01
      8 T   1 H    -3.617683000000E-02  4.254037100000E-01  4.937905700000E-01
      9 T   1 H    -2.297974300000E-01  3.285077400000E-01  4.936325000000E-01
     10 T   1 H    -3.604327000000E-02  1.400990400000E-01  4.936719200000E-01
     11 T   1 H    -4.448393400000E-01 -1.747669900000E-01 -4.948309900000E-01
     12 T   1 H     1.727817100000E-01 -3.688863900000E-01 -4.938038400000E-01
     13 T   1 H     2.696794400000E-01 -1.753588100000E-01 -4.936456700000E-01
     14 T   1 H     4.581323400000E-01 -3.690401100000E-01 -4.936853700000E-01
     15 T   1 H    -4.420148800000E-01  3.278519100000E-01  4.948176900000E-01
     16 T   1 H     1.761504800000E-01  1.399596400000E-01  4.937905000000E-01
     17 T   1 H     2.730717600000E-01  4.325863000000E-02  4.936323700000E-01
     18 T   1 H     4.615113900000E-01  4.253719600000E-01  4.936720500000E-01
     19 T   6 C    -2.421005600000E-01  1.779347200000E-01  4.981759400000E-01
     20 T   6 C    -1.866410100000E-01  1.264983200000E-01  4.949757000000E-01
     21 T   6 C    -7.966764000000E-02  3.410467200000E-01  4.946992300000E-01
     22 T   6 C    -1.868268000000E-01  2.871072600000E-01  4.955289100000E-01
     23 T   6 C    -7.927873000000E-02  1.808128500000E-01  4.933953600000E-01
     24 T   6 C    -2.525364000000E-02  2.874294700000E-01  4.955683800000E-01
     25 T   6 C     4.190709200000E-01 -1.617959700000E-01 -4.981892500000E-01
     26 T   6 C     4.713486200000E-01 -2.181301300000E-01 -4.949890600000E-01
     27 T   6 C     2.568950600000E-01 -3.251717000000E-01 -4.947125000000E-01
     28 T   6 C     3.106071100000E-01 -2.177856600000E-01 -4.955421500000E-01
     29 T   6 C     4.174625800000E-01 -3.259126900000E-01 -4.934087500000E-01
     30 T   6 C     3.102580800000E-01 -3.793751800000E-01 -4.955817100000E-01
     31 T   6 C     4.200540000000E-01  1.778655800000E-01  4.981759400000E-01
     32 T   6 C     4.740800800000E-01  2.873384400000E-01  4.949757600000E-01
     33 T   6 C     2.597676200000E-01  1.800334900000E-01  4.946991700000E-01
     34 T   6 C     3.130083700000E-01  1.261051100000E-01  4.955288200000E-01
     35 T   6 C     4.210378700000E-01  3.416608400000E-01  4.933954400000E-01
     36 T   6 C     3.126704500000E-01  2.873520700000E-01  4.955683800000E-01
     37 T   8 O     4.264801500000E-01  1.183028000000E-02  4.991636500000E-01
     38 T   8 O    -4.164131800000E-01  8.160900000000E-03 -4.940013800000E-01
     39 T   8 O    -4.136420000000E-01  1.726535200000E-01  4.956869400000E-01
     40 T   8 O     1.460679700000E-01  4.511107400000E-01  4.991636900000E-01
     41 T   8 O     1.442490900000E-01  2.884781800000E-01 -4.940013800000E-01
     42 T   8 O     3.059424300000E-01  4.529654900000E-01  4.956869100000E-01

 T = ATOM BELONGING TO THE ASYMMETRIC UNIT

 ****    1 SYMMOPS - TRANSLATORS IN FRACTIONAL UNITS
 **** MATRICES AND TRANSLATORS IN THE CRYSTALLOGRAPHIC REFERENCE FRAME
   V INV                    ROTATION MATRICES                   TRANSLATORS
   1   1  1.00 -0.00  0.00  0.00  1.00  0.00  0.00 -0.00  1.00  0.00  0.00  0.00

 DIRECT LATTICE VECTORS CARTESIAN COMPONENTS (ANGSTROM)
          X                    Y                    Z
   0.130113578931E+02  -0.751088897922E+01   0.000000000000E+00
   0.000000000000E+00   0.150239160000E+02   0.000000000000E+00
   0.349956651838E+01   0.606240704617E+01   0.310004157619E+01


 CARTESIAN COORDINATES - PRIMITIVE CELL
 *******************************************************************************
 *      ATOM          X(ANGSTROM)         Y(ANGSTROM)         Z(ANGSTROM)
 *******************************************************************************
    1     5 B     9.856808425840E-01  1.705016819488E+00 -4.645306404496E+00
    2     5 B     3.055210899638E+00  2.900066432658E+00 -4.645306342495E+00
    3     5 B    -1.527033047797E+00 -2.552325106864E-01  4.644775212371E+00
    4     5 B    -5.426704812732E-01  1.449869412643E+00 -1.545264797308E+00
    5     5 B     1.527540355152E+00  2.545150820351E-01 -1.545264828309E+00
    6     5 B     1.527283777212E+00  2.645557241244E+00 -1.555307940002E+00
    7     1 H    -4.761103992764E+00 -6.928477126761E-01 -1.566086350557E+00
    8     1 H    -2.242223255082E+00  3.594102143609E+00 -1.569270279258E+00
    9     1 H     2.237089683128E+00  6.925478679367E-01  4.630322849544E+00
   10     1 H    -2.240900681689E+00 -6.940137118069E-01 -1.569638099191E+00
   11     1 H     1.992133552166E+00 -8.337925868297E-01 -4.634038218372E+00
   12     1 H     5.200252810734E-01  5.190413742606E+00 -1.530812434481E+00
   13     1 H    -1.718216666815E+00  1.308719600594E+00 -4.630363677091E+00
   14     1 H     4.233239046658E+00  3.045585577522E+00 -1.530445172555E+00
   15     1 H    -5.199998587320E-01  2.283821543716E+00  4.633996987819E+00
   16     1 H     5.204431208284E-01 -2.289152863803E+00 -1.569270496261E+00
   17     1 H     1.780967195908E+00 -4.470904337388E+00 -1.569760705835E+00
   18     1 H     4.232961525873E+00 -1.451743488910E-01 -1.569637696185E+00
   19     6 C     2.092909325995E+00 -1.449696910213E+00  4.644407702443E+00
   20     6 C    -4.195819109879E+00  2.406771640932E-01 -1.565596326985E+00
   21     6 C    -2.804917832938E+00  2.658893124149E+00 -1.566453395479E+00
   22     6 C    -4.196300494869E+00  2.658401619768E+00 -1.563881352984E+00
   23     6 C    -2.804420565536E+00  2.407272704058E-01 -1.570495446689E+00
   24     6 C    -2.093876156306E+00  1.449923692167E+00 -1.563758994343E+00
   25     6 C     2.096687851973E-01  3.628787173481E-01 -4.644448963996E+00
   26     6 C     9.010719274996E-01 -8.567321168061E-01 -4.634528241944E+00
   27     6 C    -1.888292252984E+00 -8.525021733438E-01 -4.633670894446E+00
   28     6 C    -1.192328962626E+00  3.524017507868E-01 -4.636242843940E+00
   29     6 C     2.054717755847E-01 -2.061735698062E+00 -4.629629215241E+00
   30     6 C     2.302557758656E+00  3.989483118754E+00 -1.536323905398E+00
   31     6 C    -2.302918606382E+00  1.086783928209E+00  4.644407702443E+00
   32     6 C     4.401059669575E+00 -2.305476773069E+00 -1.565596140982E+00
   33     6 C     1.611595606470E+00 -2.309617035496E+00 -1.566453581482E+00
   34     6 C     2.307233474577E+00 -3.514688173046E+00 -1.563881631988E+00
   35     6 C     3.705378056866E+00 -1.100527991132E+00 -1.570495198686E+00
   36     6 C     2.302975119369E+00 -1.089349482324E+00 -1.563758994343E+00
   37     8 O    -2.215849112011E+00 -1.449994671176E+00  4.647469644508E+00
   38     8 O     2.364899768831E+00  1.706024368232E+00 -4.631466392880E+00
   39     8 O    -1.477881643991E-01 -2.557018353551E-01  4.636691698959E+00
   40     8 O     1.478326527178E-01  2.644075983647E+00 -1.552613383864E+00
   41     8 O     1.480858462568E-01  2.557955968805E-01 -1.531424816694E+00
   42     8 O     2.215849246857E+00  1.450064616606E+00 -1.563391546415E+00

 *******************************************************************************
 STARTING BASIS SET HANDLING 
 *******************************************************************************

 Loading internal basis set: SOLDEF2MSVP         

 Please cite in your publication:
 L. Dona', J. G. Brandenburg and B. Civalleri, J. Chem. Phys., 151, 121101 (2019
 )                                                                              
                                                                                
                    

 *******************************************************************************
 LOCAL ATOMIC FUNCTIONS BASIS SET
 *******************************************************************************
   ATOM   X(AU)   Y(AU)   Z(AU)  N. TYPE  EXPONENT  S COEF   P COEF   D/F/G COEF
 *******************************************************************************
   1 B    1.863   3.222  -8.778
                                  1 S  
                                         2.410E+03 1.755E-03 0.000E+00 0.000E+00
                                         3.619E+02 1.344E-02 0.000E+00 0.000E+00
                                         8.231E+01 6.637E-02 0.000E+00 0.000E+00
                                         2.311E+01 2.303E-01 0.000E+00 0.000E+00
                                         7.252E+00 5.150E-01 0.000E+00 0.000E+00
                                  2 S  
                                         2.367E+00 1.000E+00 0.000E+00 0.000E+00
                                  3 S  
                                         5.533E-01 1.000E+00 0.000E+00 0.000E+00
                                  4 S  
                                         1.716E-01 1.000E+00 0.000E+00 0.000E+00
                           5-     7 P  
                                         6.002E+00 0.000E+00-3.555E-02 0.000E+00
                                         1.240E+00 0.000E+00-1.983E-01 0.000E+00
                                         3.367E-01 0.000E+00-5.048E-01 0.000E+00
                           8-    10 P  
                                         1.256E-01 0.000E+00 1.000E+00 0.000E+00
                          11-    15 D  
                                         8.880E-01 0.000E+00 0.000E+00 1.000E+00
   2 B    5.774   5.480  -8.778
   3 B   -2.886  -0.482   8.777
   4 B   -1.025   2.740  -2.920
   5 B    2.887   0.481  -2.920
   6 B    2.886   4.999  -2.939
   7 H   -8.997  -1.309  -2.959
                                 91 S  
                                         1.874E+01 1.968E-02 0.000E+00 0.000E+00
                                         2.826E+00 1.380E-01 0.000E+00 0.000E+00
                                         6.401E-01 4.783E-01 0.000E+00 0.000E+00
                                 92 S  
                                         1.756E-01 1.000E+00 0.000E+00 0.000E+00
   8 H   -4.237   6.792  -2.965
   9 H    4.227   1.309   8.750
  10 H   -4.235  -1.311  -2.966
  11 H    3.765  -1.576  -8.757
  12 H    0.983   9.808  -2.893
  13 H   -3.247   2.473  -8.750
  14 H    8.000   5.755  -2.892
  15 H   -0.983   4.316   8.757
  16 H    0.983  -4.326  -2.965
  17 H    3.366  -8.449  -2.966
  18 H    7.999  -0.274  -2.966
  19 C    3.955  -2.740   8.777
                                115 S  
                                         3.624E+03 1.634E-03 0.000E+00 0.000E+00
                                         5.440E+02 1.252E-02 0.000E+00 0.000E+00
                                         1.237E+02 6.211E-02 0.000E+00 0.000E+00
                                         3.476E+01 2.182E-01 0.000E+00 0.000E+00
                                         1.093E+01 4.980E-01 0.000E+00 0.000E+00
                                116 S  
                                         3.574E+00 1.000E+00 0.000E+00 0.000E+00
                                117 S  
                                         7.742E-01 1.000E+00 0.000E+00 0.000E+00
                                118 S  
                                         2.330E-01 1.000E+00 0.000E+00 0.000E+00
                         119-   121 P  
                                         9.443E+00 0.000E+00 3.790E-02 0.000E+00
                                         2.002E+00 0.000E+00 2.082E-01 0.000E+00
                                         5.463E-01 0.000E+00 5.047E-01 0.000E+00
                         122-   124 P  
                                         1.820E-01 0.000E+00 1.000E+00 0.000E+00
                         125-   129 D  
                                         8.880E-01 0.000E+00 0.000E+00 1.000E+00
  20 C   -7.929   0.455  -2.959
  21 C   -5.301   5.025  -2.960
  22 C   -7.930   5.024  -2.955
  23 C   -5.300   0.455  -2.968
  24 C   -3.957   2.740  -2.955
  25 C    0.396   0.686  -8.777
  26 C    1.703  -1.619  -8.758
  27 C   -3.568  -1.611  -8.756
  28 C   -2.253   0.666  -8.761
  29 C    0.388  -3.896  -8.749
  30 C    4.351   7.539  -2.903
  31 C   -4.352   2.054   8.777
  32 C    8.317  -4.357  -2.959
  33 C    3.045  -4.365  -2.960
  34 C    4.360  -6.642  -2.955
  35 C    7.002  -2.080  -2.968
  36 C    4.352  -2.059  -2.955
  37 O   -4.187  -2.740   8.782
                                385 S  
                                         6.773E+03 1.727E-03 0.000E+00 0.000E+00
                                         1.017E+03 1.325E-02 0.000E+00 0.000E+00
                                         2.313E+02 6.603E-02 0.000E+00 0.000E+00
                                         6.501E+01 2.353E-01 0.000E+00 0.000E+00
                                         2.050E+01 5.498E-01 0.000E+00 0.000E+00
                                386 S  
                                         6.716E+00 1.000E+00 0.000E+00 0.000E+00
                                387 S  
                                         1.147E+00 1.000E+00 0.000E+00 0.000E+00
                                388 S  
                                         3.342E-01 1.000E+00 0.000E+00 0.000E+00
                         389-   391 P  
                                         1.769E+01 0.000E+00 4.359E-02 0.000E+00
                                         3.854E+00 0.000E+00 2.318E-01 0.000E+00
                                         1.047E+00 0.000E+00 5.146E-01 0.000E+00
                         392-   394 P  
                                         2.759E-01 0.000E+00 1.000E+00 0.000E+00
                         395-   399 D  
                                         8.000E-01 0.000E+00 0.000E+00 1.000E+00
  38 O    4.469   3.224  -8.752
  39 O   -0.279  -0.483   8.762
  40 O    0.279   4.997  -2.934
  41 O    0.280   0.483  -2.894
  42 O    4.187   2.740  -2.954

 *******************************************************************************
 FINISHED BASIS SET HANDLING 
 *******************************************************************************

 INFORMATION **** SET_MPP **** PCRYSTAL CALCULATION
 INFORMATION **** READM2 **** NEW DEFAULT: FOCK/KS MATRIX MIXING SET TO 30 %
 INFORMATION **** READM2 **** NEW DEFAULT: FULL DIRECT SCF MODE
 INFORMATION **** READM2 **** NEW DEFAULT: COULOMB BIPOLAR BUFFER SET TO 32 Mb
 INFORMATION **** READM2 **** NEW DEFAULT: EXCHANGE BIPOLAR BUFFER SET TO 32 Mb

 *******************************************************************************
 NEW DEFAULT: DFT INTEGRATION GRID INCREASED TO XLGRID
 NEW DEFAULT: DIIS ACCELERATOR ACTIVE
 USE KEYWORD NODIIS TO TURN IT OFF
 *******************************************************************************

 WARNING **** RDDFTP **** HSEsol-HJS ACTIVE
 RANGE SEPARATION - OMEGA:   0.110000000000000     
 WARNING **** RDDFTP **** HSEsol-3c has to be combined with sol-def2-mSVP basis set
 *******************************************************************************
 N. OF ATOMS PER CELL        42  COULOMB OVERLAP TOL         (T1) 10**   -6
 NUMBER OF SHELLS           234  COULOMB PENETRATION TOL     (T2) 10**   -6
 NUMBER OF AO               474  EXCHANGE OVERLAP TOL        (T3) 10**   -6
 N. OF ELECTRONS PER CELL   198  EXCHANGE PSEUDO OVP (F(G))  (T4) 10**   -6
 CORE ELECTRONS PER CELL     60  EXCHANGE PSEUDO OVP (P(G))  (T5) 10**  -12
 N. OF SYMMETRY OPERATORS     1  POLE ORDER IN MONO ZONE                  4
 *******************************************************************************
 TYPE OF CALCULATION :  RESTRICTED CLOSED SHELL
 KOHN-SHAM HAMILTONIAN

 (EXCHANGE)[CORRELATION] FUNCTIONAL:(HSEsol GGA)[PBEsol]

 RANGE-SEPARATED HYBRID FUNCTIONAL 
 OMEGA (SHORT-RANGE)[LONG-RANGE]:(    0.1100)[    0.0000]

 HYBRID EXCHANGE - PERCENTAGE OF FOCK EXCHANGE    25.0000

 CAPPA:IS1  2;IS2  2;IS3  8; K PTS MONK NET  20; SYMMOPS:K SPACE   2;G SPACE   1

 *******************************************************************************
 MAX NUMBER OF SCF CYCLES      50  CONVERGENCE ON DELTAP        10**-16
 WEIGHT OF F(I) IN F(I+1)      30% CONVERGENCE ON ENERGY        10**- 6
 SHRINK. FACT.(MONKH.)    2  2  8  NUMBER OF K POINTS IN THE IBZ     20
 SHRINKING FACTOR(GILAT NET)    8  NUMBER OF K POINTS(GILAT NET)   1028
 *******************************************************************************
 *** K POINTS COORDINATES (OBLIQUE COORDINATES IN UNITS OF IS =  2)
   1-R(  0  0  0)   2-R(  1  0  0)   3-R(  0  1  0)   4-R(  1  1  0)
   5-C(  0  0  1)   6-C(  1  0  1)   7-C(  0  1  1)   8-C(  1  1  1)
   9-C(  0  0  2)  10-C(  1  0  2)  11-C(  0  1  2)  12-C(  1  1  2)
  13-C(  0  0  3)  14-C(  1  0  3)  15-C(  0  1  3)  16-C(  1  1  3)
  17-R(  0  0  4)  18-R(  1  0  4)  19-R(  0  1  4)  20-R(  1  1  4)

 DIRECT LATTICE VECTORS COMPON. (A.U.)     RECIP. LATTICE VECTORS COMPON. (A.U.) 
        X            Y            Z              X            Y            Z
   24.5879030  -14.1935232    0.0000000      0.2555397    0.0000000   -0.2884730
    0.0000000   28.3910867    0.0000000      0.1277517    0.2213084   -0.5770042
    6.6132223   11.4562890    5.8582296      0.0000000    0.0000000    1.0725400

 DISK SPACE FOR EIGENVECTORS (FTN 10)     7189632 REALS

 SYMMETRY ADAPTION OF THE BLOCH FUNCTIONS DISABLED
 TTTTTTTTTTTTTTTTTTTTTTTTTTTTTT gordsh1     TELAPSE        0.04 TCPU        0.04

 MATRIX SIZE: P(G)  380078, F(G)   71910, P(G) IRR  191278, F(G) IRR   72426
 MAX G-VECTOR INDEX FOR 1- AND 2-ELECTRON INTEGRALS  67

 TTTTTTTTTTTTTTTTTTTTTTTTTTTTTT INPUT       TELAPSE        0.45 TCPU        0.45

 NEIGHBORS OF THE NON-EQUIVALENT ATOMS

 N = NUMBER OF NEIGHBORS AT DISTANCE R
    ATOM  N     R/ANG      R/AU   NEIGHBORS (ATOM LABELS AND CELL INDICES)
   1 B    1     1.3791     2.6061   37 O    1 2-3
   1 B    1     1.3793     2.6065   38 O    0 0 0
   1 B    1     1.5503     2.9297   25 C    0 0 0
   1 B    1     2.3895     4.5155    3 B    1 2-3
   1 B    1     2.3898     4.5160    2 B    0 0 0
   1 B    1     2.5632     4.8437   26 C    0 0 0

   2 B    1     1.3793     2.6065   39 O    1 2-3
   2 B    1     1.3793     2.6065   38 O    0 0 0
   2 B    1     1.5504     2.9298   19 C    1 2-3
   2 B    1     2.3895     4.5156    3 B    1 2-3
   2 B    1     2.3898     4.5160    1 B    0 0 0
   2 B    1     2.5634     4.8440   22 C    1 1-1

   3 B    1     1.3791     2.6061   37 O    0 0 0
   3 B    1     1.3793     2.6064   39 O    0 0 0
   3 B    1     1.5502     2.9294   31 C    0 0 0
   3 B    1     2.3895     4.5155    1 B   -1-2 3
   3 B    1     2.3895     4.5156    2 B   -1-2 3
   3 B    1     2.5629     4.8433   32 C   -1-1 2

   4 B    1     1.3795     2.6068   40 O    0 0 0
   4 B    1     1.3795     2.6070   41 O    0 0 0
   4 B    1     1.5513     2.9316   24 C    0 0 0
   4 B    1     2.3905     4.5174    6 B    0 0 0
   4 B    1     2.3905     4.5175    5 B    0 0 0
   4 B    1     2.5648     4.8468   23 C    0 0 0

   5 B    1     1.3795     2.6069   41 O    0 0 0
   5 B    1     1.3797     2.6072   42 O    0 0 0
   5 B    1     1.5516     2.9322   36 C    0 0 0
   5 B    1     2.3905     4.5175    4 B    0 0 0
   5 B    1     2.3911     4.5185    6 B    0 0 0
   5 B    1     2.5651     4.8473   35 C    0 0 0

   6 B    1     1.3795     2.6068   40 O    0 0 0
   6 B    1     1.3796     2.6071   42 O    0 0 0
   6 B    1     1.5516     2.9322   30 C    0 0 0
   6 B    1     2.3905     4.5174    4 B    0 0 0
   6 B    1     2.3911     4.5185    5 B    0 0 0
   6 B    1     2.5651     4.8473   29 C    0 0 1

   7 H    1     1.0913     2.0623   20 C    0 0 0
   7 H    1     2.1472     4.0576   19 C    0 1-2
   7 H    1     2.1680     4.0969   23 C    0 0 0
   7 H    1     2.5202     4.7625   10 H    0 0 0
   7 H    1     2.5676     4.8520   38 O   -1-1 1
   7 H    1     2.7321     5.1630    2 B   -1-1 1

   8 H    1     1.0914     2.0625   21 C    0 0 0
   8 H    1     2.1493     4.0616   24 C    0 0 0
   8 H    1     2.1666     4.0942   22 C    0 0 0
   8 H    1     2.5198     4.7618    9 H    0 1-2
   8 H    1     2.5720     4.8604   40 O    0 0 0
   8 H    1     2.7362     5.1707    4 B    0 0 0

   9 H    1     1.0914     2.0624   22 C    0-1 2
   9 H    1     2.1471     4.0575   19 C    0 0 0
   9 H    1     2.1680     4.0970   21 C    0-1 2
   9 H    1     2.5198     4.7618    8 H    0-1 2
   9 H    1     2.5665     4.8500   39 O    0 0 0
   9 H    1     2.7315     5.1618    2 B   -1-2 3

  10 H    1     1.0915     2.0626   23 C    0 0 0
  10 H    1     2.1490     4.0610   24 C    0 0 0
  10 H    1     2.1669     4.0948   20 C    0 0 0
  10 H    1     2.5202     4.7625    7 H    0 0 0
  10 H    1     2.5712     4.8588   41 O    0 0 0
  10 H    1     2.7351     5.1686    4 B    0 0 0

  11 H    1     1.0913     2.0623   26 C    0 0 0
  11 H    1     2.1469     4.0571   25 C    0 0 0
  11 H    1     2.1680     4.0968   29 C    0 0 0
  11 H    1     2.5198     4.7617   14 H    0 0-1
  11 H    1     2.5670     4.8510   38 O    0 0 0
  11 H    1     2.7310     5.1609    1 B    0 0 0

  12 H    1     1.0914     2.0625   27 C    0 0 1
  12 H    1     2.1493     4.0617   30 C    0 0 0
  12 H    1     2.1664     4.0939   28 C    0 0 1
  12 H    1     2.5192     4.7606   13 H    0 0 1
  12 H    1     2.5735     4.8632   40 O    0 0 0
  12 H    1     2.7371     5.1723    6 B    0 0 0

  13 H    1     1.0914     2.0624   28 C    0 0 0
  13 H    1     2.1475     4.0581   25 C    0 0 0
  13 H    1     2.1679     4.0967   27 C    0 0 0
  13 H    1     2.5192     4.7606   12 H    0 0-1
  13 H    1     2.5675     4.8519   37 O    1 2-3
  13 H    1     2.7328     5.1643    1 B    0 0 0

  14 H    1     1.0914     2.0625   29 C    0 0 1
  14 H    1     2.1491     4.0612   30 C    0 0 0
  14 H    1     2.1666     4.0942   26 C    0 0 1
  14 H    1     2.5198     4.7617   11 H    0 0 1
  14 H    1     2.5723     4.8609   42 O    0 0 0
  14 H    1     2.7355     5.1693    6 B    0 0 0

  15 H    1     1.0914     2.0624   32 C   -1-1 2
  15 H    1     2.1475     4.0582   31 C    0 0 0
  15 H    1     2.1678     4.0966   35 C   -1-1 2
  15 H    1     2.5200     4.7621   18 H   -1-1 2
  15 H    1     2.5667     4.8503   39 O    0 0 0
  15 H    1     2.7315     5.1618    3 B    0 0 0

  16 H    1     1.0913     2.0623   33 C    0 0 0
  16 H    1     2.1487     4.0605   36 C    0 0 0
  16 H    1     2.1667     4.0945   34 C    0 0 0
  16 H    1     2.5197     4.7616   17 H    0 0 0
  16 H    1     2.5723     4.8610   41 O    0 0 0
  16 H    1     2.7359     5.1701    5 B    0 0 0

  17 H    1     1.0915     2.0626   34 C    0 0 0
  17 H    1     2.1479     4.0589   31 C    1 1-2
  17 H    1     2.1679     4.0968   33 C    0 0 0
  17 H    1     2.5197     4.7616   16 H    0 0 0
  17 H    1     2.5677     4.8522   37 O    1 1-2
  17 H    1     2.7331     5.1648    3 B    1 1-2

  18 H    1     1.0914     2.0624   35 C    0 0 0
  18 H    1     2.1486     4.0602   36 C    0 0 0
  18 H    1     2.1668     4.0947   32 C    0 0 0
  18 H    1     2.5200     4.7621   15 H    1 1-2
  18 H    1     2.5717     4.8598   42 O    0 0 0
  18 H    1     2.7349     5.1682    5 B    0 0 0

  19 C    1     1.4020     2.6495   22 C    0-1 2
  19 C    1     1.4021     2.6495   20 C    0-1 2
  19 C    1     1.5504     2.9298    2 B   -1-2 3
  19 C    1     2.1471     4.0575    9 H    0 0 0
  19 C    1     2.1472     4.0576    7 H    0-1 2
  19 C    1     2.4246     4.5817   21 C    0-1 2

  20 C    1     1.0913     2.0623    7 H    0 0 0
  20 C    1     1.3914     2.6294   23 C    0 0 0
  20 C    1     1.4021     2.6495   19 C    0 1-2
  20 C    1     2.1669     4.0948   10 H    0 0 0
  20 C    1     2.4177     4.5688   22 C    0 0 0
  20 C    1     2.4250     4.5825   24 C    0 0 0

  21 C    1     1.0914     2.0625    8 H    0 0 0
  21 C    1     1.3914     2.6293   22 C    0 0 0
  21 C    1     1.4026     2.6505   24 C    0 0 0
  21 C    1     2.1680     4.0970    9 H    0 1-2
  21 C    1     2.4182     4.5697   23 C    0 0 0
  21 C    1     2.4246     4.5817   19 C    0 1-2

  22 C    1     1.0914     2.0624    9 H    0 1-2
  22 C    1     1.3914     2.6293   21 C    0 0 0
  22 C    1     1.4020     2.6495   19 C    0 1-2
  22 C    1     2.1666     4.0942    8 H    0 0 0
  22 C    1     2.4177     4.5688   20 C    0 0 0
  22 C    1     2.4250     4.5826   24 C    0 0 0

  23 C    1     1.0915     2.0626   10 H    0 0 0
  23 C    1     1.3914     2.6294   20 C    0 0 0
  23 C    1     1.4025     2.6504   24 C    0 0 0
  23 C    1     2.1680     4.0969    7 H    0 0 0
  23 C    1     2.4182     4.5697   21 C    0 0 0
  23 C    1     2.4246     4.5818   19 C    0 1-2

  24 C    1     1.4025     2.6504   23 C    0 0 0
  24 C    1     1.4026     2.6505   21 C    0 0 0
  24 C    1     1.5513     2.9316    4 B    0 0 0
  24 C    1     2.1490     4.0610   10 H    0 0 0
  24 C    1     2.1493     4.0616    8 H    0 0 0
  24 C    1     2.4250     4.5825   20 C    0 0 0

  25 C    1     1.4020     2.6494   26 C    0 0 0
  25 C    1     1.4021     2.6495   28 C    0 0 0
  25 C    1     1.5503     2.9297    1 B    0 0 0
  25 C    1     2.1469     4.0571   11 H    0 0 0
  25 C    1     2.1475     4.0581   13 H    0 0 0
  25 C    1     2.4246     4.5818   27 C    0 0 0

  26 C    1     1.0913     2.0623   11 H    0 0 0
  26 C    1     1.3914     2.6293   29 C    0 0 0
  26 C    1     1.4020     2.6494   25 C    0 0 0
  26 C    1     2.1666     4.0942   14 H    0 0-1
  26 C    1     2.4175     4.5684   28 C    0 0 0
  26 C    1     2.4251     4.5828   30 C    0 0-1

  27 C    1     1.0914     2.0625   12 H    0 0-1
  27 C    1     1.3915     2.6295   28 C    0 0 0
  27 C    1     1.4026     2.6505   30 C    0 0-1
  27 C    1     2.1679     4.0967   13 H    0 0 0
  27 C    1     2.4179     4.5691   29 C    0 0 0
  27 C    1     2.4246     4.5818   25 C    0 0 0

  28 C    1     1.0914     2.0624   13 H    0 0 0
  28 C    1     1.3915     2.6295   27 C    0 0 0
  28 C    1     1.4021     2.6495   25 C    0 0 0
  28 C    1     2.1664     4.0939   12 H    0 0-1
  28 C    1     2.4175     4.5684   26 C    0 0 0
  28 C    1     2.4253     4.5832   30 C    0 0-1

  29 C    1     1.0914     2.0625   14 H    0 0-1
  29 C    1     1.3914     2.6293   26 C    0 0 0
  29 C    1     1.4025     2.6504   30 C    0 0-1
  29 C    1     2.1680     4.0968   11 H    0 0 0
  29 C    1     2.4179     4.5691   27 C    0 0 0
  29 C    1     2.4247     4.5819   25 C    0 0 0

  30 C    1     1.4025     2.6504   29 C    0 0 1
  30 C    1     1.4026     2.6505   27 C    0 0 1
  30 C    1     1.5516     2.9322    6 B    0 0 0
  30 C    1     2.1491     4.0612   14 H    0 0 0
  30 C    1     2.1493     4.0617   12 H    0 0 0
  30 C    1     2.4251     4.5828   26 C    0 0 1

  31 C    1     1.4021     2.6496   32 C   -1-1 2
  31 C    1     1.4021     2.6497   34 C   -1-1 2
  31 C    1     1.5502     2.9294    3 B    0 0 0
  31 C    1     2.1475     4.0582   15 H    0 0 0
  31 C    1     2.1479     4.0589   17 H   -1-1 2
  31 C    1     2.4244     4.5814   33 C   -1-1 2

  32 C    1     1.0914     2.0624   15 H    1 1-2
  32 C    1     1.3914     2.6293   35 C    0 0 0
  32 C    1     1.4021     2.6496   31 C    1 1-2
  32 C    1     2.1668     4.0947   18 H    0 0 0
  32 C    1     2.4179     4.5692   34 C    0 0 0
  32 C    1     2.4251     4.5827   36 C    0 0 0

  33 C    1     1.0913     2.0623   16 H    0 0 0
  33 C    1     1.3914     2.6294   34 C    0 0 0
  33 C    1     1.4025     2.6504   36 C    0 0 0
  33 C    1     2.1679     4.0968   17 H    0 0 0
  33 C    1     2.4178     4.5690   35 C    0 0 0
  33 C    1     2.4244     4.5814   31 C    1 1-2

  34 C    1     1.0915     2.0626   17 H    0 0 0
  34 C    1     1.3914     2.6294   33 C    0 0 0
  34 C    1     1.4021     2.6497   31 C    1 1-2
  34 C    1     2.1667     4.0945   16 H    0 0 0
  34 C    1     2.4179     4.5692   32 C    0 0 0
  34 C    1     2.4253     4.5832   36 C    0 0 0

  35 C    1     1.0914     2.0624   18 H    0 0 0
  35 C    1     1.3914     2.6293   32 C    0 0 0
  35 C    1     1.4025     2.6503   36 C    0 0 0
  35 C    1     2.1678     4.0966   15 H    1 1-2
  35 C    1     2.4178     4.5690   33 C    0 0 0
  35 C    1     2.4245     4.5817   31 C    1 1-2

  36 C    1     1.4025     2.6503   35 C    0 0 0
  36 C    1     1.4025     2.6504   33 C    0 0 0
  36 C    1     1.5516     2.9322    5 B    0 0 0
  36 C    1     2.1486     4.0602   18 H    0 0 0
  36 C    1     2.1487     4.0605   16 H    0 0 0
  36 C    1     2.4251     4.5827   32 C    0 0 0

  37 O    1     1.3791     2.6061    1 B   -1-2 3
  37 O    1     1.3791     2.6061    3 B    0 0 0
  37 O    1     2.3880     4.5126   38 O   -1-2 3
  37 O    1     2.3882     4.5130   39 O    0 0 0
  37 O    1     2.5383     4.7966   31 C    0 0 0
  37 O    1     2.5384     4.7968   25 C   -1-2 3

  38 O    1     1.3793     2.6065    1 B    0 0 0
  38 O    1     1.3793     2.6065    2 B    0 0 0
  38 O    1     2.3880     4.5126   37 O    1 2-3
  38 O    1     2.3882     4.5131   39 O    1 2-3
  38 O    1     2.5391     4.7981   19 C    1 2-3
  38 O    1     2.5395     4.7990   25 C    0 0 0

  39 O    1     1.3793     2.6064    3 B    0 0 0
  39 O    1     1.3793     2.6065    2 B   -1-2 3
  39 O    1     2.3882     4.5130   37 O    0 0 0
  39 O    1     2.3882     4.5131   38 O   -1-2 3
  39 O    1     2.5390     4.7980   19 C    0 0 0
  39 O    1     2.5391     4.7982   31 C    0 0 0

  40 O    1     1.3795     2.6068    6 B    0 0 0
  40 O    1     1.3795     2.6068    4 B    0 0 0
  40 O    1     2.3880     4.5126   42 O    0 0 0
  40 O    1     2.3884     4.5134   41 O    0 0 0
  40 O    1     2.5400     4.7998   24 C    0 0 0
  40 O    1     2.5403     4.8005   30 C    0 0 0

  41 O    1     1.3795     2.6069    5 B    0 0 0
  41 O    1     1.3795     2.6070    4 B    0 0 0
  41 O    1     2.3881     4.5128   42 O    0 0 0
  41 O    1     2.3884     4.5134   40 O    0 0 0
  41 O    1     2.5404     4.8006   24 C    0 0 0
  41 O    1     2.5405     4.8008   36 C    0 0 0

  42 O    1     1.3796     2.6071    6 B    0 0 0
  42 O    1     1.3797     2.6072    5 B    0 0 0
  42 O    1     2.3880     4.5126   40 O    0 0 0
  42 O    1     2.3881     4.5128   41 O    0 0 0
  42 O    1     2.5409     4.8016   36 C    0 0 0
  42 O    1     2.5410     4.8019   30 C    0 0 0


 SYMMETRY ALLOWED INTERNAL DEGREE(S) OF FREEDOM: 123
 TTTTTTTTTTTTTTTTTTTTTTTTTTTTTT SYMM        TELAPSE        0.45 TCPU        0.45
 TTTTTTTTTTTTTTTTTTTTTTTTTTTTTT INT_SCREEN  TELAPSE        0.49 TCPU        0.49

 DFT PARAMETERS

     ATOM       ELECTRONS   NET CHARGE   R(ANGSTROM)
   1   5  B       5.0000      0.0000     0.89000000
   7   1  H       1.0000      0.0000     1.11000000
  19   6  C       6.0000      0.0000     0.77000000
  37   8  O       8.0000      0.0000     0.74000000

 SIZE OF GRID=    1256602
 TTTTTTTTTTTTTTTTTTTTTTTTTTTTTT MAKE_GRID2  TELAPSE       11.16 TCPU       11.14
 BECKE WEIGHT FUNCTION
 RADSAFE =     2.00
 TOLERANCES - DENSITY:10**- 6; POTENTIAL:10**- 9; GRID WGT:10**-14

 RADIAL INTEGRATION  - INTERVALS (POINTS,UPPER LIMIT):            1( 75,  4.0*R)

 ANGULAR INTEGRATION - INTERVALS (ACCURACY LEVEL [N. POINTS] UPPER LIMIT):
  1(  4[  86]   0.2)  2(  8[ 194]   0.5)  3( 12[ 350]   0.9)  4( 16[ 974]   3.5)
  5( 12[ 350]9999.0)
 TTTTTTTTTTTTTTTTTTTTTTTTTTTTTT INT_CALC    TELAPSE       11.24 TCPU       11.23
 EEEEEEEEEE INT_CALC TERMINATION  DATE 19 02 2026 TIME 17:55:17.9

 *******************************************************************************
 cof-1_z31_L070_incl                                                             
 CRYSTAL - SCF - TYPE OF CALCULATION :  RESTRICTED CLOSED SHELL
 *******************************************************************************

 CAPPA:IS1  2;IS2  2;IS3  8; K PTS MONK NET  20; SYMMOPS:K SPACE   2;G SPACE   1

 TTTTTTTTTTTTTTTTTTTTTTTTTTTTTT SDIK        TELAPSE       11.84 TCPU       18.96

 AAAAAAAAAAAAAAAAAAAAAAAAAAAAAAAAAAAAAAAAAAAAAAAAAAAAAAAAAAAAAAAAAAAAAAAAAAAAAAA
         ATOMIC WAVEFUNCTION(S)


 NUCLEAR CHARGE  5.0  SYMMETRY SPECIES            S    P
 N. ELECTRONS    5.0  NUMBER OF PRIMITIVE GTOS    8    4
                      NUMBER OF CONTRACTED GTOS   4    2
                      NUMBER OF CLOSED SHELLS     2    0
                      OPEN SHELL OCCUPATION       0    1

  ZNUC  SCFIT    TOTAL HF ENERGY   KINETIC ENERGY   VIRIAL THEOREM ACCURACY
   5.0    11    -2.451164084E+01  2.462155050E+01 -1.995536038E+00  1.5E-06

 NUCLEAR CHARGE  1.0  SYMMETRY SPECIES            S
 N. ELECTRONS    1.0  NUMBER OF PRIMITIVE GTOS    4
                      NUMBER OF CONTRACTED GTOS   2
                      NUMBER OF CLOSED SHELLS     0
                      OPEN SHELL OCCUPATION       1

  ZNUC  SCFIT    TOTAL HF ENERGY   KINETIC ENERGY   VIRIAL THEOREM ACCURACY
   1.0     1    -4.977266687E-01  5.190767460E-01 -1.958869132E+00  0.0E+00

 NUCLEAR CHARGE  6.0  SYMMETRY SPECIES            S    P
 N. ELECTRONS    6.0  NUMBER OF PRIMITIVE GTOS    8    4
                      NUMBER OF CONTRACTED GTOS   4    2
                      NUMBER OF CLOSED SHELLS     2    0
                      OPEN SHELL OCCUPATION       0    2

  ZNUC  SCFIT    TOTAL HF ENERGY   KINETIC ENERGY   VIRIAL THEOREM ACCURACY
   6.0     9    -3.766704647E+01  3.775180683E+01 -1.997754800E+00  1.1E-06

 NUCLEAR CHARGE  8.0  SYMMETRY SPECIES            S    P
 N. ELECTRONS    8.0  NUMBER OF PRIMITIVE GTOS    8    4
                      NUMBER OF CONTRACTED GTOS   4    2
                      NUMBER OF CLOSED SHELLS     2    0
                      OPEN SHELL OCCUPATION       0    4

  ZNUC  SCFIT    TOTAL HF ENERGY   KINETIC ENERGY   VIRIAL THEOREM ACCURACY
   8.0    12    -7.477373220E+01  7.477365593E+01 -2.000001020E+00  3.8E-06

 AAAAAAAAAAAAAAAAAAAAAAAAAAAAAAAAAAAAAAAAAAAAAAAAAAAAAAAAAAAAAAAAAAAAAAAAAAAAAAA

 CHARGE NORMALIZATION FACTOR   1.00000000
 TOTAL ATOMIC CHARGES:
   5.0000000   5.0000000   5.0000000   5.0000000   5.0000000   5.0000000
   1.0000000   1.0000000   1.0000000   1.0000000   1.0000000   1.0000000
   1.0000000   1.0000000   1.0000000   1.0000000   1.0000000   1.0000000
   6.0000000   6.0000000   6.0000000   6.0000000   6.0000000   6.0000000
   6.0000000   6.0000000   6.0000000   6.0000000   6.0000000   6.0000000
   6.0000000   6.0000000   6.0000000   6.0000000   6.0000000   6.0000000
   8.0000000   8.0000000   8.0000000   8.0000000   8.0000000   8.0000000
 TTTTTTTTTTTTTTTTTTTTTTTTTTTTTT MOQGAD      TELAPSE       11.89 TCPU       20.41
 TTTTTTTTTTTTTTTTTTTTTTTTTTTTTT SHELLXN     TELAPSE       21.82 TCPU      336.85
 TTTTTTTTTTTTTTTTTTTTTTTTTTTTTT MONMO3      TELAPSE       21.98 TCPU      341.97
 NUMERICALLY INTEGRATED DENSITY    198.0000668248
 TTTTTTTTTTTTTTTTTTTTTTTTTTTTTT NUMDFT      TELAPSE       22.72 TCPU      365.64
 CYC   0 ETOT(AU) -1.296003204557E+03 DETOT -1.30E+03 tst  0.00E+00 PX  1.00E+00
 TTTTTTTTTTTTTTTTTTTTTTTTTTTTTT DIIS        TELAPSE       22.76 TCPU      366.86
 TTTTTTTTTTTTTTTTTTTTTTTTTTTTTT FDIK        TELAPSE       23.24 TCPU      382.07
 INSULATING STATE
 TOP OF VALENCE BANDS -    BAND     99; K    1; EIG -2.9868481E-01 AU
 BOTTOM OF VIRTUAL BANDS - BAND    100; K   17; EIG -1.6519371E-01 AU
 INDIRECT ENERGY BAND GAP:   3.6325 eV
 BOTTOM OF VIRTUAL BANDS - BAND    100; K    1; EIG -1.6061801E-01 AU
 TTTTTTTTTTTTTTTTTTTTTTTTTTTTTT PDIG        TELAPSE       23.59 TCPU      388.28
 CHARGE NORMALIZATION FACTOR   1.00000000
 TOTAL ATOMIC CHARGES:
   4.1320467   4.1543020   4.1550739   4.1545926   4.1543489   4.1292998
   0.7857926   0.7859249   0.7851194   0.7851550   0.7858435   0.7860997
   0.7858217   0.7859976   0.7851169   0.7852386   0.7857278   0.7859087
   6.0441490   6.2704742   6.2702647   6.2671672   6.2669042   6.0437183
   6.0480447   6.2661339   6.2664818   6.2660669   6.2663995   6.0470656
   6.0446129   6.2667780   6.2672680   6.2699878   6.2705794   6.0432712
   8.6995019   8.6997466   8.7036743   8.6999768   8.7040454   8.7002773
 TTTTTTTTTTTTTTTTTTTTTTTTTTTTTT MOQGAD      TELAPSE       23.64 TCPU      388.33
 TTTTTTTTTTTTTTTTTTTTTTTTTTTTTT SHELLXN     TELAPSE       33.94 TCPU      716.75
 TTTTTTTTTTTTTTTTTTTTTTTTTTTTTT MONMO3      TELAPSE       34.10 TCPU      721.85
 NUMERICALLY INTEGRATED DENSITY    198.0000421956
 TTTTTTTTTTTTTTTTTTTTTTTTTTTTTT NUMDFT      TELAPSE       34.85 TCPU      745.98
 CYC   1 ETOT(AU) -1.288818779954E+03 DETOT  7.18E+00 tst  0.00E+00 PX  1.00E+00
 TTTTTTTTTTTTTTTTTTTTTTTTTTTTTT DIIS        TELAPSE       34.90 TCPU      747.48
 DIIS TEST: 0.11102E+01 AT SCF   CYCLE   1 - MIX   30 %
 TTTTTTTTTTTTTTTTTTTTTTTTTTTTTT FDIK        TELAPSE       35.38 TCPU      762.96
 INSULATING STATE
 TOP OF VALENCE BANDS -    BAND     99; K    1; EIG -2.0838340E-01 AU
 BOTTOM OF VIRTUAL BANDS - BAND    100; K   17; EIG -9.0699690E-02 AU
 INDIRECT ENERGY BAND GAP:   3.2023 eV
 BOTTOM OF VIRTUAL BANDS - BAND    100; K    1; EIG -8.8938823E-02 AU
 TTTTTTTTTTTTTTTTTTTTTTTTTTTTTT PDIG        TELAPSE       35.73 TCPU      769.17
 CHARGE NORMALIZATION FACTOR   1.00000000
 TOTAL ATOMIC CHARGES:
   4.7034216   4.6913623   4.6924082   4.6916946   4.6911215   4.7021552
   0.9064483   0.9065647   0.9077745   0.9073565   0.8983124   0.8987213
   0.8983870   0.8985000   0.9076171   0.9074397   0.9065603   0.9065299
   5.8680004   6.1564987   6.1567460   6.1297638   6.1294277   5.8711825
   5.9092372   6.1241746   6.1263531   6.1247963   6.1267368   5.9135073
   5.8681126   6.1296635   6.1297106   6.1568810   6.1560701   5.8708803
   8.3432031   8.3433242   8.3289023   8.3433847   8.3277187   8.3433493
 TTTTTTTTTTTTTTTTTTTTTTTTTTTTTT MOQGAD      TELAPSE       35.78 TCPU      769.22
 TTTTTTTTTTTTTTTTTTTTTTTTTTTTTT SHELLXN     TELAPSE       46.04 TCPU     1096.52
 TTTTTTTTTTTTTTTTTTTTTTTTTTTTTT MONMO3      TELAPSE       46.20 TCPU     1101.61
 NUMERICALLY INTEGRATED DENSITY    198.0000445291
 TTTTTTTTTTTTTTTTTTTTTTTTTTTTTT NUMDFT      TELAPSE       46.96 TCPU     1125.76
 CYC   2 ETOT(AU) -1.289009404584E+03 DETOT -1.91E-01 tst  2.77E-03 PX  1.61E-01
 TTTTTTTTTTTTTTTTTTTTTTTTTTTTTT DIIS        TELAPSE       47.01 TCPU     1127.47
 DIIS TEST: 0.46865E+00 AT SCF   CYCLE   2 - DIIS ACTIVE - HISTORY:     2 CYCLES
 TTTTTTTTTTTTTTTTTTTTTTTTTTTTTT FDIK        TELAPSE       47.50 TCPU     1142.98
 INSULATING STATE
 TOP OF VALENCE BANDS -    BAND     99; K    1; EIG -2.2136402E-01 AU
 BOTTOM OF VIRTUAL BANDS - BAND    100; K   17; EIG -8.5771498E-02 AU
 INDIRECT ENERGY BAND GAP:   3.6897 eV
 BOTTOM OF VIRTUAL BANDS - BAND    100; K    1; EIG -8.1484291E-02 AU
 TTTTTTTTTTTTTTTTTTTTTTTTTTTTTT PDIG        TELAPSE       47.85 TCPU     1149.19
 CHARGE NORMALIZATION FACTOR   1.00000000
 TOTAL ATOMIC CHARGES:
   4.4804869   4.4874374   4.4882059   4.4877751   4.4872723   4.4786162
   0.8854458   0.8856778   0.8865059   0.8861875   0.8778766   0.8786501
   0.8779560   0.8784685   0.8863345   0.8862987   0.8856200   0.8855256
   5.8955542   6.1686274   6.1678404   6.1649350   6.1648304   5.8964742
   5.8948004   6.1709921   6.1703651   6.1709001   6.1706743   5.8933532
   5.8955276   6.1648971   6.1649433   6.1681141   6.1681142   5.8966107
   8.5134417   8.5138760   8.5233555   8.5136440   8.5237982   8.5139902
 TTTTTTTTTTTTTTTTTTTTTTTTTTTTTT MOQGAD      TELAPSE       47.90 TCPU     1149.24
 TTTTTTTTTTTTTTTTTTTTTTTTTTTTTT SHELLXN     TELAPSE       58.22 TCPU     1478.51
 TTTTTTTTTTTTTTTTTTTTTTTTTTTTTT MONMO3      TELAPSE       58.39 TCPU     1483.65
 NUMERICALLY INTEGRATED DENSITY    198.0000452130
 TTTTTTTTTTTTTTTTTTTTTTTTTTTTTT NUMDFT      TELAPSE       59.14 TCPU     1507.80
 CYC   3 ETOT(AU) -1.289105145454E+03 DETOT -9.57E-02 tst  7.68E-04 PX  6.82E-02
 TTTTTTTTTTTTTTTTTTTTTTTTTTTTTT DIIS        TELAPSE       59.20 TCPU     1509.73
 DIIS TEST: 0.14341E-01 AT SCF   CYCLE   3 - DIIS ACTIVE - HISTORY:     3 CYCLES
 TTTTTTTTTTTTTTTTTTTTTTTTTTTTTT FDIK        TELAPSE       59.69 TCPU     1525.24
 INSULATING STATE
 TOP OF VALENCE BANDS -    BAND     99; K    1; EIG -2.3052376E-01 AU
 BOTTOM OF VIRTUAL BANDS - BAND    100; K   17; EIG -9.3425953E-02 AU
 INDIRECT ENERGY BAND GAP:   3.7306 eV
 BOTTOM OF VIRTUAL BANDS - BAND    100; K    1; EIG -9.0528892E-02 AU
 TTTTTTTTTTTTTTTTTTTTTTTTTTTTTT PDIG        TELAPSE       60.04 TCPU     1531.45
 CHARGE NORMALIZATION FACTOR   1.00000000
 TOTAL ATOMIC CHARGES:
   4.4877971   4.4922089   4.4930451   4.4923549   4.4917657   4.4860718
   0.8682207   0.8683394   0.8705275   0.8703719   0.8626634   0.8630079
   0.8627048   0.8628505   0.8704118   0.8704631   0.8682934   0.8683094
   5.9395734   6.1826240   6.1827297   6.1646402   6.1641566   5.9414009
   5.9649525   6.1630611   6.1648218   6.1635178   6.1649019   5.9679669
   5.9401001   6.1644234   6.1644507   6.1828442   6.1822845   5.9408606
   8.4886253   8.4887177   8.4783925   8.4889441   8.4776728   8.4889301
 TTTTTTTTTTTTTTTTTTTTTTTTTTTTTT MOQGAD      TELAPSE       60.09 TCPU     1531.50
 TTTTTTTTTTTTTTTTTTTTTTTTTTTTTT SHELLXN     TELAPSE       70.41 TCPU     1860.79
 TTTTTTTTTTTTTTTTTTTTTTTTTTTTTT MONMO3      TELAPSE       70.57 TCPU     1865.83
 NUMERICALLY INTEGRATED DENSITY    198.0000446889
 TTTTTTTTTTTTTTTTTTTTTTTTTTTTTT NUMDFT      TELAPSE       71.33 TCPU     1889.93
 CYC   4 ETOT(AU) -1.289108153887E+03 DETOT -3.01E-03 tst  4.92E-05 PX  1.60E-02
 TTTTTTTTTTTTTTTTTTTTTTTTTTTTTT DIIS        TELAPSE       71.39 TCPU     1891.93
 DIIS TEST: 0.39176E-02 AT SCF   CYCLE   4 - DIIS ACTIVE - HISTORY:     4 CYCLES
 TTTTTTTTTTTTTTTTTTTTTTTTTTTTTT FDIK        TELAPSE       71.87 TCPU     1907.43
 INSULATING STATE
 TOP OF VALENCE BANDS -    BAND     99; K    1; EIG -2.2920055E-01 AU
 BOTTOM OF VIRTUAL BANDS - BAND    100; K   17; EIG -9.3357281E-02 AU
 INDIRECT ENERGY BAND GAP:   3.6965 eV
 BOTTOM OF VIRTUAL BANDS - BAND    100; K    1; EIG -9.0260338E-02 AU
 TTTTTTTTTTTTTTTTTTTTTTTTTTTTTT PDIG        TELAPSE       72.22 TCPU     1913.63
 CHARGE NORMALIZATION FACTOR   1.00000000
 TOTAL ATOMIC CHARGES:
   4.4929351   4.4941612   4.4950206   4.4944995   4.4939408   4.4912503
   0.8712683   0.8714640   0.8728716   0.8725987   0.8641330   0.8647959
   0.8642161   0.8646056   0.8727271   0.8727011   0.8714236   0.8713522
   5.9230776   6.1798125   6.1792280   6.1678967   6.1676562   5.9244716
   5.9386098   6.1698004   6.1697449   6.1698037   6.1701748   5.9383295
   5.9230062   6.1677738   6.1678685   6.1794571   6.1793357   5.9245477
   8.4931854   8.4935688   8.4948371   8.4933515   8.4948644   8.4936336
 TTTTTTTTTTTTTTTTTTTTTTTTTTTTTT MOQGAD      TELAPSE       72.28 TCPU     1913.68
 TTTTTTTTTTTTTTTTTTTTTTTTTTTTTT SHELLXN     TELAPSE       82.63 TCPU     2244.06
 TTTTTTTTTTTTTTTTTTTTTTTTTTTTTT MONMO3      TELAPSE       82.79 TCPU     2249.18
 NUMERICALLY INTEGRATED DENSITY    198.0000445944
 TTTTTTTTTTTTTTTTTTTTTTTTTTTTTT NUMDFT      TELAPSE       83.55 TCPU     2273.19
 CYC   5 ETOT(AU) -1.289109043594E+03 DETOT -8.90E-04 tst  6.92E-06 PX  7.31E-03
 TTTTTTTTTTTTTTTTTTTTTTTTTTTTTT DIIS        TELAPSE       83.61 TCPU     2275.39
 DIIS TEST: 0.91585E-04 AT SCF   CYCLE   5 - DIIS ACTIVE - HISTORY:     5 CYCLES
 TTTTTTTTTTTTTTTTTTTTTTTTTTTTTT FDIK        TELAPSE       84.10 TCPU     2290.87
 INSULATING STATE
 TOP OF VALENCE BANDS -    BAND     99; K    1; EIG -2.2892789E-01 AU
 BOTTOM OF VIRTUAL BANDS - BAND    100; K   17; EIG -9.2974054E-02 AU
 INDIRECT ENERGY BAND GAP:   3.6995 eV
 BOTTOM OF VIRTUAL BANDS - BAND    100; K    1; EIG -8.9649103E-02 AU
 TTTTTTTTTTTTTTTTTTTTTTTTTTTTTT PDIG        TELAPSE       84.45 TCPU     2297.07
 CHARGE NORMALIZATION FACTOR   1.00000000
 TOTAL ATOMIC CHARGES:
   4.4907649   4.4946660   4.4955053   4.4948461   4.4942912   4.4889897
   0.8721489   0.8722964   0.8737074   0.8734939   0.8654833   0.8659019
   0.8655110   0.8657668   0.8735599   0.8735982   0.8722361   0.8722499
   5.9231913   6.1798473   6.1797501   6.1666069   6.1662747   5.9247159
   5.9375155   6.1679214   6.1694123   6.1683810   6.1693855   5.9396610
   5.9237139   6.1665040   6.1664591   6.1799483   6.1794160   5.9242064
   8.4949900   8.4951240   8.4908564   8.4953277   8.4904144   8.4953601
 TTTTTTTTTTTTTTTTTTTTTTTTTTTTTT MOQGAD      TELAPSE       84.50 TCPU     2297.12
 TTTTTTTTTTTTTTTTTTTTTTTTTTTTTT SHELLXN     TELAPSE       94.81 TCPU     2626.04
 TTTTTTTTTTTTTTTTTTTTTTTTTTTTTT MONMO3      TELAPSE       94.97 TCPU     2631.12
 NUMERICALLY INTEGRATED DENSITY    198.0000446350
 TTTTTTTTTTTTTTTTTTTTTTTTTTTTTT NUMDFT      TELAPSE       95.72 TCPU     2655.19
 CYC   6 ETOT(AU) -1.289109061952E+03 DETOT -1.84E-05 tst  1.92E-07 PX  2.01E-03
 TTTTTTTTTTTTTTTTTTTTTTTTTTTTTT DIIS        TELAPSE       95.80 TCPU     2657.51
 DIIS TEST: 0.30686E-04 AT SCF   CYCLE   6 - DIIS ACTIVE - HISTORY:     6 CYCLES
 TTTTTTTTTTTTTTTTTTTTTTTTTTTTTT FDIK        TELAPSE       96.28 TCPU     2673.02
 INSULATING STATE
 TOP OF VALENCE BANDS -    BAND     99; K    1; EIG -2.2899480E-01 AU
 BOTTOM OF VIRTUAL BANDS - BAND    100; K   17; EIG -9.2991223E-02 AU
 INDIRECT ENERGY BAND GAP:   3.7008 eV
 BOTTOM OF VIRTUAL BANDS - BAND    100; K    1; EIG -8.9759957E-02 AU
 TTTTTTTTTTTTTTTTTTTTTTTTTTTTTT PDIG        TELAPSE       96.63 TCPU     2679.22
 CHARGE NORMALIZATION FACTOR   1.00000000
 TOTAL ATOMIC CHARGES:
   4.4916578   4.4943702   4.4952092   4.4946639   4.4941107   4.4899314
   0.8721265   0.8722949   0.8737375   0.8734868   0.8651978   0.8658041
   0.8652763   0.8656171   0.8736007   0.8735809   0.8722627   0.8722009
   5.9233413   6.1794164   6.1790136   6.1668699   6.1665720   5.9248244
   5.9391005   6.1685087   6.1687852   6.1685689   6.1691598   5.9395397
   5.9233900   6.1667022   6.1668261   6.1791849   6.1790049   5.9247881
   8.4937039   8.4940287   8.4928110   8.4939081   8.4926899   8.4941322
 TTTTTTTTTTTTTTTTTTTTTTTTTTTTTT MOQGAD      TELAPSE       96.68 TCPU     2679.27
 TTTTTTTTTTTTTTTTTTTTTTTTTTTTTT SHELLXN     TELAPSE      106.99 TCPU     3007.91
 TTTTTTTTTTTTTTTTTTTTTTTTTTTTTT MONMO3      TELAPSE      107.15 TCPU     3012.99
 NUMERICALLY INTEGRATED DENSITY    198.0000446466
 TTTTTTTTTTTTTTTTTTTTTTTTTTTTTT NUMDFT      TELAPSE      107.90 TCPU     3037.17
 CYC   7 ETOT(AU) -1.289109068565E+03 DETOT -6.61E-06 tst  6.45E-08 PX  8.25E-04
 TTTTTTTTTTTTTTTTTTTTTTTTTTTTTT DIIS        TELAPSE      107.99 TCPU     3039.79
 DIIS TEST: 0.13097E-05 AT SCF   CYCLE   7 - DIIS ACTIVE - HISTORY:     7 CYCLES
 TTTTTTTTTTTTTTTTTTTTTTTTTTTTTT FDIK        TELAPSE      108.47 TCPU     3055.36
 INSULATING STATE
 TOP OF VALENCE BANDS -    BAND     99; K    1; EIG -2.2899341E-01 AU
 BOTTOM OF VIRTUAL BANDS - BAND    100; K   17; EIG -9.3011529E-02 AU
 INDIRECT ENERGY BAND GAP:   3.7003 eV
 BOTTOM OF VIRTUAL BANDS - BAND    100; K    1; EIG -8.9787340E-02 AU
 TTTTTTTTTTTTTTTTTTTTTTTTTTTTTT PDIG        TELAPSE      108.82 TCPU     3061.57
 CHARGE NORMALIZATION FACTOR   1.00000000
 TOTAL ATOMIC CHARGES:
   4.4917784   4.4944533   4.4953001   4.4947096   4.4941500   4.4900501
   0.8720830   0.8722564   0.8737015   0.8734568   0.8652108   0.8657418
   0.8652611   0.8655837   0.8735523   0.8735638   0.8722042   0.8721777
   5.9232487   6.1795182   6.1791774   6.1668033   6.1665234   5.9247167
   5.9385817   6.1682832   6.1690642   6.1685554   6.1692274   5.9395720
   5.9235125   6.1667088   6.1667026   6.1794026   6.1790530   5.9244644
   8.4939320   8.4941786   8.4926213   8.4941867   8.4923990   8.4943320
 TTTTTTTTTTTTTTTTTTTTTTTTTTTTTT MOQGAD      TELAPSE      108.87 TCPU     3061.62
 TTTTTTTTTTTTTTTTTTTTTTTTTTTTTT SHELLXN     TELAPSE      119.21 TCPU     3391.42
 TTTTTTTTTTTTTTTTTTTTTTTTTTTTTT MONMO3      TELAPSE      119.37 TCPU     3396.53
 NUMERICALLY INTEGRATED DENSITY    198.0000446432
 TTTTTTTTTTTTTTTTTTTTTTTTTTTTTT NUMDFT      TELAPSE      120.13 TCPU     3420.71
 CYC   8 ETOT(AU) -1.289109068650E+03 DETOT -8.58E-08 tst  2.09E-09 PX  1.22E-04
 TTTTTTTTTTTTTTTTTTTTTTTTTTTTTT DIIS        TELAPSE      120.21 TCPU     3423.43
 DIIS TEST: 0.85119E-07 AT SCF   CYCLE   8 - DIIS ACTIVE - HISTORY:     8 CYCLES
 TTTTTTTTTTTTTTTTTTTTTTTTTTTTTT FDIK        TELAPSE      120.70 TCPU     3439.02
 INSULATING STATE
 TOP OF VALENCE BANDS -    BAND     99; K    1; EIG -2.2899645E-01 AU
 BOTTOM OF VIRTUAL BANDS - BAND    100; K   17; EIG -9.3010949E-02 AU
 INDIRECT ENERGY BAND GAP:   3.7004 eV
 BOTTOM OF VIRTUAL BANDS - BAND    100; K    1; EIG -8.9780441E-02 AU
 TTTTTTTTTTTTTTTTTTTTTTTTTTTTTT PDIG        TELAPSE      121.05 TCPU     3445.23
 CHARGE NORMALIZATION FACTOR   1.00000000
 TOTAL ATOMIC CHARGES:
   4.4917166   4.4944518   4.4952922   4.4947221   4.4941686   4.4899857
   0.8720842   0.8722492   0.8736934   0.8734501   0.8651835   0.8657592
   0.8652558   0.8655788   0.8735565   0.8735444   0.8722120   0.8721636
   5.9232612   6.1795104   6.1791591   6.1668432   6.1665345   5.9247407
   5.9386922   6.1684688   6.1689412   6.1685804   6.1692641   5.9394170
   5.9233773   6.1666777   6.1667859   6.1793349   6.1790947   5.9246363
   8.4939247   8.4942214   8.4925695   8.4941523   8.4923971   8.4943478
 TTTTTTTTTTTTTTTTTTTTTTTTTTTTTT MOQGAD      TELAPSE      121.11 TCPU     3445.28
 TTTTTTTTTTTTTTTTTTTTTTTTTTTTTT SHELLXN     TELAPSE      131.39 TCPU     3773.07
 +++ ENERGIES IN A.U. +++
 ::: EXT EL-POLE                                  -1.6626946197481E+03
 ::: EXT EL-SPHEROPOLE                             1.8460924029656E+01
 ::: BIELET ZONE E-E                               2.2683216736862E+03
 ::: TOTAL E-E                                     6.2408797796776E+02
 ::: TOTAL E-N + N-E                              -3.0697229155845E+03
 ::: TOTAL N-N                                     1.0259873839190E+01
 ::: KINETIC ENERGY                                1.2800031804802E+03
 ::: PSEUDO TOTAL   ENERGY                        -1.1553718832973E+03
 ::: VIRIAL COEFFICIENT                            1.0511754017016E+00
 TTTTTTTTTTTTTTTTTTTTTTTTTTTTTT MONMO3      TELAPSE      131.55 TCPU     3778.17
 NUMERICALLY INTEGRATED DENSITY    198.0000446439
 EXCHANGE ENERGY: -0.126029359904E+03  CORRELATION ENERGY: -0.770782549136E+01
 TTTTTTTTTTTTTTTTTTTTTTTTTTTTTT NUMDFT      TELAPSE      132.31 TCPU     3802.26
 CYC   9 ETOT(AU) -1.289109068693E+03 DETOT -4.23E-08 tst  6.23E-10 PX  1.22E-04

 == SCF ENDED - CONVERGENCE ON ENERGY      E(AU) -1.2891090686927E+03 CYCLES   9


 ENERGY EXPRESSION=HARTREE+FOCK EXCH*0.00000+(HSESOL     EXCH)*1.00000+PBESOL     CORR


 TOTAL ENERGY(DFT)(AU)(  9) -1.2891090686927E+03 DE-4.2E-08 tester 6.2E-10
 TTTTTTTTTTTTTTTTTTTTTTTTTTTTTT EDFT        TELAPSE      132.31 TCPU     3802.27
 
 INFORMATION **** DFTD3 ENERGY **** CALCULATE DFTD3 ENERGY

           DFT-D V3(BJ)
 DF                                         hsesol3c  
 parameters
 s6       :    1.0000
 s8       :    0.0000
 a1       :    0.5196
 a2       :    4.9385
 k1 k3    :   16.0000   -4.0000
 Cutoff   :   50.2022
 CN-Cutoff:   21.1671
 ABC-Cutoff:   21.1671
 
 Edisp /kcal,au:   -29.1435 -0.04644309

 E6    /kcal :   -31.0961
 E8    /kcal :     0.0000
 E6(ABC) "   :   1.952654
 
 INFORMATION **** DFTD3 ENERGY **** NORMAL TERMINATION OF DFTD3 MODULE

 GCP ENERGY CALCULATION
  level        hsesol3c            basis:hsesol3c
  Nbf            474
  Atoms           42

  Parameters: 
  sigma     1.0000
  eta       1.4281
  alpha     0.2936
  beta      1.9467

  dmp_scal      4.0000
  dmp_exp       6.0000
 cutoffs: 
   distance [bohr] 60.0
   noise    [a.u.] 2.2E-16
 SR-damping   T
 ** gCP correction **
  Egcp:        0.0850007387 / (a.u.) ||      53.3388 / (kcal/mol)
 INFORMATION **** GCP **** NORMAL TERMINATION OF GCP MODULE

 *******************************************************************************

 DFT-D3-GCP DISPERSION AND COUNTERPOISE CORRECTION

 D3 DISPERSION ENERGY (AU)      -4.6443093357445E-02
 GCP ENERGY (AU)                 8.5000738692929E-02
 TOTAL ENERGY + DISP + GCP (AU) -1.2890705110474E+03

 *******************************************************************************

 EIGENVECTORS IN FORTRAN UNIT 10
 TTTTTTTTTTTTTTTTTTTTTTTTTTTTTT END         TELAPSE      134.65 TCPU     3810.58
 EEEEEEEEEE TERMINATION  DATE 19 02 2026 TIME 17:57:21.3
