 Default number of threads is:           32

         
 *******************************************************************************
 *                                                                             *
 *                               CRYSTAL23                                     *
 *                      public : 1.0.1 - October 2022                          *
 *                       HTTP://WWW.CRYSTAL.UNITO.IT                           *
 *                                                                             *
 *                              MAIN AUTHORS                                   *
 *                                                                             *
 *  R. DOVESI(1,11), V.R. SAUNDERS(2), C. ROETTI(1,11), R. ORLANDO(1,11),      *
 *  C.M. ZICOVICH-WILSON(1,3), F. PASCALE(4), B. CIVALLERI(1,11),              *
 *  K. DOLL(5), N.M. HARRISON(6), I.J. BUSH(7), Ph. D'ARCO(8),                 *
 *  M. LLUNELL(9), M. CAUSA'(10), Y. NOEL(8), L. MASCHIO(1,11), A. ERBA(1,11)  *
 *  M. RE'RAT(14), S. CASASSA(1,11), B.G. SEARLE(2), J.K. DESMARAIS(1)         *
 *                                                                             *
 *        CONTRIBUTIONS TO THE CODE HAVE ALSO BEEN GIVEN BY                    *
 *                                                                             *
 *  M. FERRABONE(1,11), M. DE LA PIERRE(1,11), M. FERRERO(1,11),               *
 *  J. BAIMA(1,11), E. ALBANESE(1,11), M.F. PEINTINGER(12), R. BAST(13),       *
 *  B. KIRTMAN(15), V. LACIVITA(1,11), R. DEMICHELIS(1,16)                     *
 *  G. BRANDEBURG(17), S. SALUSTRO(1,11), G. SANSONE(1,11)                     *
 *  M.T. RUGGIERO(18), L.E. DAGA(1), L. DONA'(1), A. COSSARD(1)                *
 *                                                                             *
 * (1) THEORETICAL CHEMISTRY GROUP - UNIVERSITA' DI TORINO - TORINO (ITALY)    *
 * (2) SCIENTIFIC COMPUTING DEPARTMENT - STFC DARESBURY (UK)                   *
 * (3) UNIVERSIDAD AUTONOMA DEL ESTADO DE MORELOS - CUERNAVACA (MEXICO)        *
 * (4) UNIVERSITE' DE LORRAINE - NANCY (FRANCE)                                *
 * (5) UNIVERSITAET STUTTGART- STUTTGART (GERMANY)                             *
 * (6) IMPERIAL COLLEGE - LONDON (UK)                                          *
 * (7) SCIENTIFIC COMPUTING DEPARTMENT - STFC RAL (UK)                         *
 * (8) UPMC - SORBONNE UNIVERSITES - PARIS (FRANCE)                            *
 * (9) UNIVERSIDAD DE BARCELONA - BARCELONA (SPAIN)                            *
 *(10) UNIVERSITA' DI NAPOLI "FEDERICO II" - NAPOLI (ITALY)                    *
 *(11) NIS - NANOSTRUCTURED INTERFACES AND SURFACES - TORINO (ITALY)           *
 *(12) MPI FUER CHEMISCHE ENERGIEKONVERSION - MUELHEIM AN DER RUHR (GERMANY)   *
 *(13) UNIVERSITY OF TROMSO - TROMSO (NORWAY)                                  *
 *(14) UNIVERSITE' DE PAU ET DES PAYS DE L'ADOUR - PAU (FRANCE)                *
 *(15) UNIVERSITY OF CALIFORNIA SANTA BARBARA - SANTA BARBARA (USA)            *
 *(16) CURTIN UNIVERSITY - PERTH (AUSTRALIA)                                   *
 *(17) UNIVERSITY COLLEGE LONDON - LONDON (UK)                                 *
 *(18) UNIVERSITY OF VERMONT - BURLINGTON (USA)                                *
 *                                                                             *
 *******************************************************************************
 EEEEEEEEEE STARTING  DATE 19 02 2026 TIME 20:28:21.6
 cof-1_z43_L050_serr                                                             

 CRYSTAL CALCULATION
 (INPUT ACCORDING TO THE INTERNATIONAL TABLES FOR X-RAY CRYSTALLOGRAPHY)
 CRYSTAL FAMILY                       :  TRICLINIC   
 CRYSTAL CLASS  (GROTH - 1921)        :  TRICLINIC PEDIAL                     

 SPACE GROUP (NONCENTROSYMMETRIC)     :  P 1             

 LATTICE PARAMETERS  (ANGSTROMS AND DEGREES) - CONVENTIONAL CELL
        A           B           C        ALPHA        BETA       GAMMA
    15.02361    15.02392     8.60000    90.00032    89.99994   119.99596


 NUMBER OF IRREDUCIBLE ATOMS IN THE CONVENTIONAL CELL:   84

 INPUT COORDINATES

 ATOM AT. N.              COORDINATES
   1   5     6.136805400000E-01  2.273182200000E-01  2.505554300000E-01
   2   5     8.057969300000E-01  6.115900500000E-01  7.505554300000E-01
   3   5     7.727362000000E-01  3.863778800000E-01  2.505554400000E-01
   4   5     9.648525900000E-01  7.706497100000E-01  7.505554400000E-01
   5   5     6.136762700000E-01  3.863606700000E-01  2.493876200000E-01
   6   5     8.057926600000E-01  7.706325000000E-01  7.493876300000E-01
   7   5     2.272552500000E-01  6.136332200000E-01  2.505554400000E-01
   8   5     4.193716400000E-01  9.979050500000E-01  7.505554400000E-01
   9   5     3.863632200000E-01  6.136124500000E-01  2.505554300000E-01
  10   5     5.784796100000E-01  9.978842800000E-01  7.505554300000E-01
  11   5     3.863435000000E-01  7.727516500000E-01  2.493876300000E-01
  12   5     5.784598900000E-01  1.570234800000E-01  7.493876300000E-01
  13   1     9.030436200000E-01  3.089300500000E-01  2.481343300000E-01
  14   1     9.516001000000E-02  6.932018800000E-01  7.481343300000E-01
  15   1     9.663453000000E-02  6.910534400000E-01  2.477641000000E-01
  16   1     2.887509200000E-01  7.532527000000E-02  7.477641000000E-01
  17   1     9.029714200000E-01  5.940724300000E-01  2.477071200000E-01
  18   1     9.508781000000E-02  9.783442600000E-01  7.477071200000E-01
  19   1     9.673618000000E-02  4.056849400000E-01  2.477213300000E-01
  20   1     2.888525700000E-01  7.899567700000E-01  7.477213300000E-01
  21   1     6.910324000000E-01  9.700412000000E-02  2.518656900000E-01
  22   1     8.831487900000E-01  4.812759500000E-01  7.518656900000E-01
  23   1     3.089297200000E-01  9.034373100000E-01  2.522359400000E-01
  24   1     5.010461100000E-01  2.877091400000E-01  7.522359400000E-01
  25   1     4.058699900000E-01  9.704998000000E-02  2.522929500000E-01
  26   1     5.979863800000E-01  4.813218100000E-01  7.522929500000E-01
  27   1     5.943122100000E-01  9.033473200000E-01  2.522786500000E-01
  28   1     7.864286000000E-01  2.876191500000E-01  7.522786500000E-01
  29   1     6.910727400000E-01  5.940542100000E-01  2.481343500000E-01
  30   1     8.831891300000E-01  9.783260400000E-01  7.481343500000E-01
  31   1     3.089618300000E-01  4.056093300000E-01  2.477640800000E-01
  32   1     5.010782200000E-01  7.898811600000E-01  7.477640700000E-01
  33   1     4.058405700000E-01  3.088232500000E-01  2.477070700000E-01
  34   1     5.979569600000E-01  6.930950800000E-01  7.477070700000E-01
  35   1     5.942908800000E-01  6.909579300000E-01  2.477213700000E-01
  36   1     7.864072700000E-01  7.522976000000E-02  7.477213800000E-01
  37   6     8.918903100000E-01  4.459436900000E-01  2.493448900000E-01
  38   6     8.400670000000E-02  8.302155200000E-01  7.493449000000E-01
  39   6     9.464891100000E-01  3.927856300000E-01  2.481913100000E-01
  40   6     1.386055000000E-01  7.770574600000E-01  7.481913000000E-01
  41   6     5.338812000000E-02  6.071853000000E-01  2.480916500000E-01
  42   6     2.455045100000E-01  9.914571300000E-01  7.480916500000E-01
  43   6     9.464521100000E-01  5.536921900000E-01  2.483907200000E-01
  44   6     1.385685000000E-01  9.379640200000E-01  7.483907200000E-01
  45   6     5.342634000000E-02  4.462499700000E-01  2.476216400000E-01
  46   6     2.455427300000E-01  8.305218000000E-01  7.476216400000E-01
  47   6     1.080358900000E-01  5.540356300000E-01  2.484049500000E-01
  48   6     3.001522800000E-01  9.383074600000E-01  7.484049500000E-01
  49   6     5.540394200000E-01  1.081684600000E-01  2.506551300000E-01
  50   6     7.461558100000E-01  4.924402900000E-01  7.506551300000E-01
  51   6     6.071778500000E-01  5.355594000000E-02  2.518087100000E-01
  52   6     7.992942400000E-01  4.378277700000E-01  7.518087000000E-01
  53   6     3.927986700000E-01  9.466631600000E-01  2.519084000000E-01
  54   6     5.849150600000E-01  3.309349900000E-01  7.519084000000E-01
  55   6     4.462875800000E-01  5.360286000000E-02  2.516093300000E-01
  56   6     6.384039700000E-01  4.378746900000E-01  7.516093300000E-01
  57   6     5.537168500000E-01  9.466235600000E-01  2.523783600000E-01
  58   6     7.458332400000E-01  3.308953900000E-01  7.523783600000E-01
  59   6     4.459279100000E-01  8.919920600000E-01  2.515950800000E-01
  60   6     6.380443000000E-01  2.762638900000E-01  7.515950800000E-01
  61   6     5.540448700000E-01  4.458745500000E-01  2.493449000000E-01
  62   6     7.461612600000E-01  8.301463800000E-01  7.493448900000E-01
  63   6     6.072102200000E-01  5.536257800000E-01  2.481913200000E-01
  64   6     7.993266100000E-01  9.378976100000E-01  7.481913200000E-01
  65   6     3.928233700000E-01  4.461720300000E-01  2.480916200000E-01
  66   6     5.849397600000E-01  8.304438600000E-01  7.480916200000E-01
  67   6     4.462872600000E-01  3.926899900000E-01  2.483906900000E-01
  68   6     6.384036500000E-01  7.769618200000E-01  7.483906900000E-01
  69   6     5.537429600000E-01  6.070980000000E-01  2.476216700000E-01
  70   6     7.458593500000E-01  9.913698300000E-01  7.476216700000E-01
  71   6     4.459599800000E-01  5.539582300000E-01  2.484049500000E-01
  72   6     6.380763700000E-01  9.382300600000E-01  7.484049500000E-01
  73   8     5.607366800000E-01  2.803706300000E-01  2.497009400000E-01
  74   8     7.528530700000E-01  6.646424600000E-01  7.497009300000E-01
  75   8     7.196817000000E-01  2.803783300000E-01  2.521647400000E-01
  76   8     9.117980900000E-01  6.646501600000E-01  7.521647400000E-01
  77   8     7.196794200000E-01  4.393234600000E-01  2.484476900000E-01
  78   8     9.117958100000E-01  8.235952900000E-01  7.484476900000E-01
  79   8     2.803245100000E-01  7.196511100000E-01  2.497009500000E-01
  80   8     4.724409000000E-01  1.039229400000E-01  7.497009500000E-01
  81   8     2.803439700000E-01  5.606956100000E-01  2.521647300000E-01
  82   8     4.724603600000E-01  9.449674400000E-01  7.521647300000E-01
  83   8     4.392638400000E-01  7.196354200000E-01  2.484476800000E-01
  84   8     6.313802300000E-01  1.039072500000E-01  7.484476700000E-01

 *******************************************************************************

 << INFORMATION >>: FROM NOW ON, ALL COORDINATES REFER TO THE PRIMITIVE CELL

 *******************************************************************************

 LATTICE PARAMETERS  (ANGSTROMS AND DEGREES) - PRIMITIVE CELL
       A          B          C        ALPHA      BETA     GAMMA        VOLUME
   15.02361   15.02392    8.60000    90.00032  89.99994 119.99596   1681.141313

 COORDINATES OF THE EQUIVALENT ATOMS (FRACTIONAL UNITS)

 N. ATOM EQUIV AT. N.          X                  Y                  Z

   1   1   1    5 B    -3.86319460000E-01  2.27318220000E-01  2.50555430000E-01

   2   2   1    5 B    -1.94203070000E-01 -3.88409950000E-01 -2.49444570000E-01

   3   3   1    5 B    -2.27263800000E-01  3.86377880000E-01  2.50555440000E-01

   4   4   1    5 B    -3.51474100000E-02 -2.29350290000E-01 -2.49444560000E-01

   5   5   1    5 B    -3.86323730000E-01  3.86360670000E-01  2.49387620000E-01

   6   6   1    5 B    -1.94207340000E-01 -2.29367500000E-01 -2.50612370000E-01

   7   7   1    5 B     2.27255250000E-01 -3.86366780000E-01  2.50555440000E-01

   8   8   1    5 B     4.19371640000E-01 -2.09495000000E-03 -2.49444560000E-01

   9   9   1    5 B     3.86363220000E-01 -3.86387550000E-01  2.50555430000E-01

  10  10   1    5 B    -4.21520390000E-01 -2.11572000000E-03 -2.49444570000E-01

  11  11   1    5 B     3.86343500000E-01 -2.27248350000E-01  2.49387630000E-01

  12  12   1    5 B    -4.21540110000E-01  1.57023480000E-01 -2.50612370000E-01

  13  13   1    1 H    -9.69563800000E-02  3.08930050000E-01  2.48134330000E-01

  14  14   1    1 H     9.51600100000E-02 -3.06798120000E-01 -2.51865670000E-01

  15  15   1    1 H     9.66345300000E-02 -3.08946560000E-01  2.47764100000E-01

  16  16   1    1 H     2.88750920000E-01  7.53252700000E-02 -2.52235900000E-01

  17  17   1    1 H    -9.70285800000E-02 -4.05927570000E-01  2.47707120000E-01

  18  18   1    1 H     9.50878100000E-02 -2.16557400000E-02 -2.52292880000E-01

  19  19   1    1 H     9.67361800000E-02  4.05684940000E-01  2.47721330000E-01

  20  20   1    1 H     2.88852570000E-01 -2.10043230000E-01 -2.52278670000E-01

  21  21   1    1 H    -3.08967600000E-01  9.70041200000E-02  2.51865690000E-01

  22  22   1    1 H    -1.16851210000E-01  4.81275950000E-01 -2.48134310000E-01

  23  23   1    1 H     3.08929720000E-01 -9.65626900000E-02  2.52235940000E-01

  24  24   1    1 H    -4.98953890000E-01  2.87709140000E-01 -2.47764060000E-01

  25  25   1    1 H     4.05869990000E-01  9.70499800000E-02  2.52292950000E-01

  26  26   1    1 H    -4.02013620000E-01  4.81321810000E-01 -2.47707050000E-01

  27  27   1    1 H    -4.05687790000E-01 -9.66526800000E-02  2.52278650000E-01

  28  28   1    1 H    -2.13571400000E-01  2.87619150000E-01 -2.47721350000E-01

  29  29   1    1 H    -3.08927260000E-01 -4.05945790000E-01  2.48134350000E-01

  30  30   1    1 H    -1.16810870000E-01 -2.16739600000E-02 -2.51865650000E-01

  31  31   1    1 H     3.08961830000E-01  4.05609330000E-01  2.47764080000E-01

  32  32   1    1 H    -4.98921780000E-01 -2.10118840000E-01 -2.52235930000E-01

  33  33   1    1 H     4.05840570000E-01  3.08823250000E-01  2.47707070000E-01

  34  34   1    1 H    -4.02043040000E-01 -3.06904920000E-01 -2.52292930000E-01

  35  35   1    1 H    -4.05709120000E-01 -3.09042070000E-01  2.47721370000E-01

  36  36   1    1 H    -2.13592730000E-01  7.52297600000E-02 -2.52278620000E-01

  37  37   1    6 C    -1.08109690000E-01  4.45943690000E-01  2.49344890000E-01

  38  38   1    6 C     8.40067000000E-02 -1.69784480000E-01 -2.50655100000E-01

  39  39   1    6 C    -5.35108900000E-02  3.92785630000E-01  2.48191310000E-01

  40  40   1    6 C     1.38605500000E-01 -2.22942540000E-01 -2.51808700000E-01

  41  41   1    6 C     5.33881200000E-02 -3.92814700000E-01  2.48091650000E-01

  42  42   1    6 C     2.45504510000E-01 -8.54287000000E-03 -2.51908350000E-01

  43  43   1    6 C    -5.35478900000E-02 -4.46307810000E-01  2.48390720000E-01

  44  44   1    6 C     1.38568500000E-01 -6.20359800000E-02 -2.51609280000E-01

  45  45   1    6 C     5.34263400000E-02  4.46249970000E-01  2.47621640000E-01

  46  46   1    6 C     2.45542730000E-01 -1.69478200000E-01 -2.52378360000E-01

  47  47   1    6 C     1.08035890000E-01 -4.45964370000E-01  2.48404950000E-01

  48  48   1    6 C     3.00152280000E-01 -6.16925400000E-02 -2.51595050000E-01

  49  49   1    6 C    -4.45960580000E-01  1.08168460000E-01  2.50655130000E-01

  50  50   1    6 C    -2.53844190000E-01  4.92440290000E-01 -2.49344870000E-01

  51  51   1    6 C    -3.92822150000E-01  5.35559400000E-02  2.51808710000E-01

  52  52   1    6 C    -2.00705760000E-01  4.37827770000E-01 -2.48191300000E-01

  53  53   1    6 C     3.92798670000E-01 -5.33368400000E-02  2.51908400000E-01

  54  54   1    6 C    -4.15084940000E-01  3.30934990000E-01 -2.48091600000E-01

  55  55   1    6 C     4.46287580000E-01  5.36028600000E-02  2.51609330000E-01

  56  56   1    6 C    -3.61596030000E-01  4.37874690000E-01 -2.48390670000E-01

  57  57   1    6 C    -4.46283150000E-01 -5.33764400000E-02  2.52378360000E-01

  58  58   1    6 C    -2.54166760000E-01  3.30895390000E-01 -2.47621640000E-01

  59  59   1    6 C     4.45927910000E-01 -1.08007940000E-01  2.51595080000E-01

  60  60   1    6 C    -3.61955700000E-01  2.76263890000E-01 -2.48404920000E-01

  61  61   1    6 C    -4.45955130000E-01  4.45874550000E-01  2.49344900000E-01

  62  62   1    6 C    -2.53838740000E-01 -1.69853620000E-01 -2.50655110000E-01

  63  63   1    6 C    -3.92789780000E-01 -4.46374220000E-01  2.48191320000E-01

  64  64   1    6 C    -2.00673390000E-01 -6.21023900000E-02 -2.51808680000E-01

  65  65   1    6 C     3.92823370000E-01  4.46172030000E-01  2.48091620000E-01

  66  66   1    6 C    -4.15060240000E-01 -1.69556140000E-01 -2.51908380000E-01

  67  67   1    6 C     4.46287260000E-01  3.92689990000E-01  2.48390690000E-01

  68  68   1    6 C    -3.61596350000E-01 -2.23038180000E-01 -2.51609310000E-01

  69  69   1    6 C    -4.46257040000E-01 -3.92902000000E-01  2.47621670000E-01

  70  70   1    6 C    -2.54140650000E-01 -8.63017000000E-03 -2.52378330000E-01

  71  71   1    6 C     4.45959980000E-01 -4.46041770000E-01  2.48404950000E-01

  72  72   1    6 C    -3.61923630000E-01 -6.17699400000E-02 -2.51595050000E-01

  73  73   1    8 O    -4.39263320000E-01  2.80370630000E-01  2.49700940000E-01

  74  74   1    8 O    -2.47146930000E-01 -3.35357540000E-01 -2.50299070000E-01

  75  75   1    8 O    -2.80318300000E-01  2.80378330000E-01  2.52164740000E-01

  76  76   1    8 O    -8.82019100000E-02 -3.35349840000E-01 -2.47835260000E-01

  77  77   1    8 O    -2.80320580000E-01  4.39323460000E-01  2.48447690000E-01

  78  78   1    8 O    -8.82041900000E-02 -1.76404710000E-01 -2.51552310000E-01

  79  79   1    8 O     2.80324510000E-01 -2.80348890000E-01  2.49700950000E-01

  80  80   1    8 O     4.72440900000E-01  1.03922940000E-01 -2.50299050000E-01

  81  81   1    8 O     2.80343970000E-01 -4.39304390000E-01  2.52164730000E-01

  82  82   1    8 O     4.72460360000E-01 -5.50325600000E-02 -2.47835270000E-01

  83  83   1    8 O     4.39263840000E-01 -2.80364580000E-01  2.48447680000E-01

  84  84   1    8 O    -3.68619770000E-01  1.03907250000E-01 -2.51552330000E-01

 NUMBER OF SYMMETRY OPERATORS         :    1
 *******************************************************************************
 * GEOMETRY EDITING - INPUT COORDINATES ARE GIVEN IN ANGSTROM         
 *******************************************************************************

 GCALCO - MAX INDICES DIRECT LATTICE VECTOR    12    12    19
 NO.OF VECTORS CREATED 6999 STARS 3500 RMAX   266.29565 BOHR

 GEOMETRY FOR WAVE FUNCTION - DIMENSIONALITY OF THE SYSTEM    3
 (NON PERIODIC DIRECTION: LATTICE PARAMETER FORMALLY SET TO 500)
 *******************************************************************************
 LATTICE PARAMETERS (ANGSTROMS AND DEGREES) - BOHR = 0.5291772083 ANGSTROM
 PRIMITIVE CELL - CENTRING CODE 1/0 VOLUME=  1681.141313 - DENSITY  0.771 g/cm^3
         A              B              C           ALPHA      BETA       GAMMA 
    15.02361100    15.02391600     8.60000000    90.000323  89.999944 119.995964
 *******************************************************************************
 ATOMS IN THE ASYMMETRIC UNIT   84 - ATOMS IN THE UNIT CELL:   84
     ATOM                 X/A                 Y/B                 Z/C    
 *******************************************************************************
      1 T   5 B    -3.863194600000E-01  2.273182200000E-01  2.505554300000E-01
      2 T   5 B    -1.942030700000E-01 -3.884099500000E-01 -2.494445700000E-01
      3 T   5 B    -2.272638000000E-01  3.863778800000E-01  2.505554400000E-01
      4 T   5 B    -3.514741000000E-02 -2.293502900000E-01 -2.494445600000E-01
      5 T   5 B    -3.863237300000E-01  3.863606700000E-01  2.493876200000E-01
      6 T   5 B    -1.942073400000E-01 -2.293675000000E-01 -2.506123700000E-01
      7 T   5 B     2.272552500000E-01 -3.863667800000E-01  2.505554400000E-01
      8 T   5 B     4.193716400000E-01 -2.094950000000E-03 -2.494445600000E-01
      9 T   5 B     3.863632200000E-01 -3.863875500000E-01  2.505554300000E-01
     10 T   5 B    -4.215203900000E-01 -2.115720000000E-03 -2.494445700000E-01
     11 T   5 B     3.863435000000E-01 -2.272483500000E-01  2.493876300000E-01
     12 T   5 B    -4.215401100000E-01  1.570234800000E-01 -2.506123700000E-01
     13 T   1 H    -9.695638000000E-02  3.089300500000E-01  2.481343300000E-01
     14 T   1 H     9.516001000000E-02 -3.067981200000E-01 -2.518656700000E-01
     15 T   1 H     9.663453000000E-02 -3.089465600000E-01  2.477641000000E-01
     16 T   1 H     2.887509200000E-01  7.532527000000E-02 -2.522359000000E-01
     17 T   1 H    -9.702858000000E-02 -4.059275700000E-01  2.477071200000E-01
     18 T   1 H     9.508781000000E-02 -2.165574000000E-02 -2.522928800000E-01
     19 T   1 H     9.673618000000E-02  4.056849400000E-01  2.477213300000E-01
     20 T   1 H     2.888525700000E-01 -2.100432300000E-01 -2.522786700000E-01
     21 T   1 H    -3.089676000000E-01  9.700412000000E-02  2.518656900000E-01
     22 T   1 H    -1.168512100000E-01  4.812759500000E-01 -2.481343100000E-01
     23 T   1 H     3.089297200000E-01 -9.656269000000E-02  2.522359400000E-01
     24 T   1 H    -4.989538900000E-01  2.877091400000E-01 -2.477640600000E-01
     25 T   1 H     4.058699900000E-01  9.704998000000E-02  2.522929500000E-01
     26 T   1 H    -4.020136200000E-01  4.813218100000E-01 -2.477070500000E-01
     27 T   1 H    -4.056877900000E-01 -9.665268000000E-02  2.522786500000E-01
     28 T   1 H    -2.135714000000E-01  2.876191500000E-01 -2.477213500000E-01
     29 T   1 H    -3.089272600000E-01 -4.059457900000E-01  2.481343500000E-01
     30 T   1 H    -1.168108700000E-01 -2.167396000000E-02 -2.518656500000E-01
     31 T   1 H     3.089618300000E-01  4.056093300000E-01  2.477640800000E-01
     32 T   1 H    -4.989217800000E-01 -2.101188400000E-01 -2.522359300000E-01
     33 T   1 H     4.058405700000E-01  3.088232500000E-01  2.477070700000E-01
     34 T   1 H    -4.020430400000E-01 -3.069049200000E-01 -2.522929300000E-01
     35 T   1 H    -4.057091200000E-01 -3.090420700000E-01  2.477213700000E-01
     36 T   1 H    -2.135927300000E-01  7.522976000000E-02 -2.522786200000E-01
     37 T   6 C    -1.081096900000E-01  4.459436900000E-01  2.493448900000E-01
     38 T   6 C     8.400670000000E-02 -1.697844800000E-01 -2.506551000000E-01
     39 T   6 C    -5.351089000000E-02  3.927856300000E-01  2.481913100000E-01
     40 T   6 C     1.386055000000E-01 -2.229425400000E-01 -2.518087000000E-01
     41 T   6 C     5.338812000000E-02 -3.928147000000E-01  2.480916500000E-01
     42 T   6 C     2.455045100000E-01 -8.542870000000E-03 -2.519083500000E-01
     43 T   6 C    -5.354789000000E-02 -4.463078100000E-01  2.483907200000E-01
     44 T   6 C     1.385685000000E-01 -6.203598000000E-02 -2.516092800000E-01
     45 T   6 C     5.342634000000E-02  4.462499700000E-01  2.476216400000E-01
     46 T   6 C     2.455427300000E-01 -1.694782000000E-01 -2.523783600000E-01
     47 T   6 C     1.080358900000E-01 -4.459643700000E-01  2.484049500000E-01
     48 T   6 C     3.001522800000E-01 -6.169254000000E-02 -2.515950500000E-01
     49 T   6 C    -4.459605800000E-01  1.081684600000E-01  2.506551300000E-01
     50 T   6 C    -2.538441900000E-01  4.924402900000E-01 -2.493448700000E-01
     51 T   6 C    -3.928221500000E-01  5.355594000000E-02  2.518087100000E-01
     52 T   6 C    -2.007057600000E-01  4.378277700000E-01 -2.481913000000E-01
     53 T   6 C     3.927986700000E-01 -5.333684000000E-02  2.519084000000E-01
     54 T   6 C    -4.150849400000E-01  3.309349900000E-01 -2.480916000000E-01
     55 T   6 C     4.462875800000E-01  5.360286000000E-02  2.516093300000E-01
     56 T   6 C    -3.615960300000E-01  4.378746900000E-01 -2.483906700000E-01
     57 T   6 C    -4.462831500000E-01 -5.337644000000E-02  2.523783600000E-01
     58 T   6 C    -2.541667600000E-01  3.308953900000E-01 -2.476216400000E-01
     59 T   6 C     4.459279100000E-01 -1.080079400000E-01  2.515950800000E-01
     60 T   6 C    -3.619557000000E-01  2.762638900000E-01 -2.484049200000E-01
     61 T   6 C    -4.459551300000E-01  4.458745500000E-01  2.493449000000E-01
     62 T   6 C    -2.538387400000E-01 -1.698536200000E-01 -2.506551100000E-01
     63 T   6 C    -3.927897800000E-01 -4.463742200000E-01  2.481913200000E-01
     64 T   6 C    -2.006733900000E-01 -6.210239000000E-02 -2.518086800000E-01
     65 T   6 C     3.928233700000E-01  4.461720300000E-01  2.480916200000E-01
     66 T   6 C    -4.150602400000E-01 -1.695561400000E-01 -2.519083800000E-01
     67 T   6 C     4.462872600000E-01  3.926899900000E-01  2.483906900000E-01
     68 T   6 C    -3.615963500000E-01 -2.230381800000E-01 -2.516093100000E-01
     69 T   6 C    -4.462570400000E-01 -3.929020000000E-01  2.476216700000E-01
     70 T   6 C    -2.541406500000E-01 -8.630170000000E-03 -2.523783300000E-01
     71 T   6 C     4.459599800000E-01 -4.460417700000E-01  2.484049500000E-01
     72 T   6 C    -3.619236300000E-01 -6.176994000000E-02 -2.515950500000E-01
     73 T   8 O    -4.392633200000E-01  2.803706300000E-01  2.497009400000E-01
     74 T   8 O    -2.471469300000E-01 -3.353575400000E-01 -2.502990700000E-01
     75 T   8 O    -2.803183000000E-01  2.803783300000E-01  2.521647400000E-01
     76 T   8 O    -8.820191000000E-02 -3.353498400000E-01 -2.478352600000E-01
     77 T   8 O    -2.803205800000E-01  4.393234600000E-01  2.484476900000E-01
     78 T   8 O    -8.820419000000E-02 -1.764047100000E-01 -2.515523100000E-01
     79 T   8 O     2.803245100000E-01 -2.803488900000E-01  2.497009500000E-01
     80 T   8 O     4.724409000000E-01  1.039229400000E-01 -2.502990500000E-01
     81 T   8 O     2.803439700000E-01 -4.393043900000E-01  2.521647300000E-01
     82 T   8 O     4.724603600000E-01 -5.503256000000E-02 -2.478352700000E-01
     83 T   8 O     4.392638400000E-01 -2.803645800000E-01  2.484476800000E-01
     84 T   8 O    -3.686197700000E-01  1.039072500000E-01 -2.515523300000E-01

 T = ATOM BELONGING TO THE ASYMMETRIC UNIT

 ****    1 SYMMOPS - TRANSLATORS IN FRACTIONAL UNITS
 **** MATRICES AND TRANSLATORS IN THE CRYSTALLOGRAPHIC REFERENCE FRAME
   V INV                    ROTATION MATRICES                   TRANSLATORS
   1   1  1.00  0.00  0.00  0.00  1.00  0.00  0.00 -0.00  1.00  0.00  0.00  0.00

 DIRECT LATTICE VECTORS CARTESIAN COMPONENTS (ANGSTROM)
          X                    Y                    Z
   0.130113578931E+02  -0.751088897922E+01   0.000000000000E+00
   0.000000000000E+00   0.150239160000E+02   0.000000000000E+00
  -0.182809542969E-04  -0.484817559599E-04   0.859999999984E+01


 CARTESIAN COORDINATES - PRIMITIVE CELL
 *******************************************************************************
 *      ATOM          X(ANGSTROM)         Y(ANGSTROM)         Z(ANGSTROM)
 *******************************************************************************
    1     5 B    -5.026545335505E+00  6.316800269753E+00  2.154776697961E+00
    2     5 B    -2.526841087616E+00 -4.376788670660E+00 -2.145223301961E+00
    3     5 B    -2.957015218329E+00  7.511849836805E+00  2.154776783961E+00
    4     5 B    -4.573109704394E-01 -3.181739103608E+00 -2.145223215961E+00
    5     5 B    -5.026600872654E+00 -6.317643192899E+00  2.144733531961E+00
    6     5 B    -2.526896624765E+00 -1.987316133313E+00 -2.155266381961E+00
    7     5 B     2.956894810433E+00 -7.511643147972E+00  2.154776783961E+00
    8     5 B     5.456599058323E+00 -3.181316088386E+00 -2.145223215961E+00
    9     5 B     5.027105551741E+00  6.316918506914E+00  2.154776697961E+00
   10     5 B    -5.484548093426E+00  3.134218545717E+00 -2.145223301961E+00
   11     5 B     5.026848989112E+00 -6.315955348631E+00  2.144733617961E+00
   12     5 B     7.526553237001E+00 -1.985628289044E+00 -2.155266381961E+00
   13     1 H    -1.261538696328E+00  5.369555697094E+00  2.133955237961E+00
   14     1 H     1.238165551562E+00 -5.324033243319E+00 -2.166044761961E+00
   15     1 H     1.257341925293E+00 -5.367410404356E+00  2.130771259961E+00
   16     1 H     3.757046173182E+00 -1.037083344770E+00 -2.169228739961E+00
   17     1 H    -1.262478108558E+00 -5.369862830849E+00  2.130281231961E+00
   18     1 H     1.237226139332E+00 -1.039535771263E+00 -2.169718767961E+00
   19     1 H     1.258664530605E+00  5.368389742806E+00  2.130403437961E+00
   20     1 H     3.758368778494E+00 -5.325199197607E+00 -2.169596561961E+00
   21     1 H    -4.020092625304E+00  3.777990881418E+00  2.166044933961E+00
   22     1 H    -1.520388377415E+00 -6.915598058996E+00 -2.133955065961E+00
   23     1 H     4.019590539608E+00 -3.771098801436E+00  2.169229083961E+00
   24     1 H     6.519294787497E+00  5.592282581507E-01 -2.130770915961E+00
   25     1 H     5.280915085785E+00 -1.590385919169E+00  2.169719369961E+00
   26     1 H    -5.230738559382E+00 -4.773085880366E+00 -2.130280629961E+00
   27     1 H    -5.278553640428E+00  1.594961974507E+00  2.169596389961E+00
   28     1 H    -2.778849392538E+00  5.925289034093E+00 -2.130403609961E+00
   29     1 H    -4.019567678914E+00 -3.778589126989E+00  2.133955409961E+00
   30     1 H    -1.519863431025E+00  5.517379325973E-01 -2.166044589961E+00
   31     1 H     4.020008416060E+00  3.773250486753E+00  2.130771087961E+00
   32     1 H    -6.491645229107E+00  5.905505255564E-01 -2.169228997961E+00
   33     1 H     5.280532375470E+00  1.591499093041E+00  2.130280801961E+00
   34     1 H    -5.231121269697E+00 -1.591200868156E+00 -2.169719197961E+00
   35     1 H    -5.278831089380E+00 -1.595797951938E+00  2.130403781961E+00
   36     1 H    -2.779126841491E+00  2.734529107648E+00 -2.169596131961E+00
   37     6 C    -1.406658426560E+00  7.511808329779E+00  2.144366053961E+00
   38     6 C     1.093045821329E+00 -3.181780610635E+00 -2.155633859961E+00
   39     6 C    -6.962538781400E-01  6.303080632346E+00  2.134445265961E+00
   40     6 C     1.803450369749E+00 -4.390508308067E+00 -2.165554819961E+00
   41     6 C     6.946474012053E-01 -6.302619326413E+00  2.133588189961E+00
   42     6 C     3.194351649095E+00 -1.972292266827E+00 -2.166411809961E+00
   43     6 C    -6.967353020274E-01 -6.303110833141E+00  2.136160191961E+00
   44     6 C     1.802968945862E+00 -1.972783773555E+00 -2.163839807961E+00
   45     6 C     6.951447038962E-01  6.303130750845E+00  2.129546103961E+00
   46     6 C     3.194848951785E+00 -4.390458189569E+00 -2.170453895961E+00
   47     6 C     1.405689089005E+00 -7.511588852542E+00  2.136282569961E+00
   48     6 C     3.905393336895E+00 -3.181261792956E+00 -2.163717429961E+00
   49     6 C     7.208800598267E+00 -2.536226869041E+00  2.155634117961E+00
   50     6 C    -3.302853046901E+00 -5.718926830238E+00 -2.144365881961E+00
   51     6 C    -5.111154185273E+00  3.755051292960E+00  2.165554905961E+00
   52     6 C    -2.611449937384E+00 -6.938537647453E+00 -2.134445179961E+00
   53     6 C     5.110839470161E+00 -3.751607618381E+00  2.166412239961E+00
   54     6 C     7.610543718050E+00  5.787194412055E-01 -2.133587759961E+00
   55     6 C     5.806802826947E+00 -2.546703798646E+00  2.163840237961E+00
   56     6 C    -4.704850818220E+00 -5.729403759843E+00 -2.136159761961E+00
   57     6 C    -5.806754400008E+00  2.550047806260E+00  2.170453895961E+00
   58     6 C    -3.307050152119E+00  6.880374865846E+00 -2.129546103961E+00
   59     6 C     5.802123032115E+00 -4.972029440408E+00  2.163717687961E+00
   60     6 C     8.301827280004E+00 -6.417023808219E-01 -2.136282311961E+00
   61     6 C     7.208871534119E+00  2.537400188985E+00  2.144366139961E+00
   62     6 C    -3.302782111048E+00 -6.452997722119E-01 -2.155633945961E+00
   63     6 C    -5.110732941489E+00 -3.756100388846E+00  2.134445351961E+00
   64     6 C    -2.611028693600E+00  5.742266707407E-01 -2.165554647961E+00
   65     6 C     5.111160920475E+00  3.752786351840E+00  2.133587931961E+00
   66     6 C    -5.400492724692E+00  5.700863906433E-01 -2.166412067961E+00
   67     6 C     5.806798722153E+00  2.547715318685E+00  2.136159933961E+00
   68     6 C    -4.704854923015E+00 -6.349846425118E-01 -2.163840065961E+00
   69     6 C    -5.806414586496E+00 -2.551151565732E+00  2.129546361961E+00
   70     6 C    -3.306710338607E+00  1.779175493855E+00 -2.170453637961E+00
   71     6 C     5.802540364681E+00  4.973053972967E+00  2.136282569961E+00
   72     6 C    -4.709113280487E+00  1.790354011770E+00 -2.163717429961E+00
   73     8 O     7.295941062473E+00  6.217379926190E-04  2.147428083961E+00
   74     8 O    -3.215712582694E+00 -3.182078223204E+00 -2.152572001961E+00
   75     8 O    -3.647326335085E+00  6.317807882894E+00  2.168616763961E+00
   76     8 O    -1.147622087196E+00 -4.375781057520E+00 -2.131383235961E+00
   77     8 O    -3.647355933030E+00 -6.318112530341E+00  2.136650133961E+00
   78     8 O    -1.147651685141E+00 -1.987785470755E+00 -2.163349865961E+00
   79     8 O     3.647397961034E+00 -6.317436552757E+00  2.147428169961E+00
   80     8 O     6.147102208923E+00 -1.987109493171E+00 -2.152571829961E+00
   81     8 O     3.647651117018E+00  6.318199086157E+00  2.168616677961E+00
   82     8 O     6.147355364908E+00 -4.375389854257E+00 -2.131383321961E+00
   83     8 O    -7.295943403199E+00 -5.589000829137E-04  2.136650047961E+00
   84     8 O    -4.796239155310E+00  4.329768159504E+00 -2.163350037961E+00

 *******************************************************************************
 STARTING BASIS SET HANDLING 
 *******************************************************************************

 Loading internal basis set: SOLDEF2MSVP         

 Please cite in your publication:
 L. Dona', J. G. Brandenburg and B. Civalleri, J. Chem. Phys., 151, 121101 (2019
 )                                                                              
                                                                                
                    

 *******************************************************************************
 LOCAL ATOMIC FUNCTIONS BASIS SET
 *******************************************************************************
   ATOM   X(AU)   Y(AU)   Z(AU)  N. TYPE  EXPONENT  S COEF   P COEF   D/F/G COEF
 *******************************************************************************
   1 B   -9.499  11.937   4.072
                                  1 S  
                                         2.410E+03 1.755E-03 0.000E+00 0.000E+00
                                         3.619E+02 1.344E-02 0.000E+00 0.000E+00
                                         8.231E+01 6.637E-02 0.000E+00 0.000E+00
                                         2.311E+01 2.303E-01 0.000E+00 0.000E+00
                                         7.252E+00 5.150E-01 0.000E+00 0.000E+00
                                  2 S  
                                         2.367E+00 1.000E+00 0.000E+00 0.000E+00
                                  3 S  
                                         5.533E-01 1.000E+00 0.000E+00 0.000E+00
                                  4 S  
                                         1.716E-01 1.000E+00 0.000E+00 0.000E+00
                           5-     7 P  
                                         6.002E+00 0.000E+00-3.555E-02 0.000E+00
                                         1.240E+00 0.000E+00-1.983E-01 0.000E+00
                                         3.367E-01 0.000E+00-5.048E-01 0.000E+00
                           8-    10 P  
                                         1.256E-01 0.000E+00 1.000E+00 0.000E+00
                          11-    15 D  
                                         8.880E-01 0.000E+00 0.000E+00 1.000E+00
   2 B   -4.775  -8.271  -4.054
   3 B   -5.588  14.195   4.072
   4 B   -0.864  -6.013  -4.054
   5 B   -9.499 -11.939   4.053
   6 B   -4.775  -3.755  -4.073
   7 B    5.588 -14.195   4.072
   8 B   10.311  -6.012  -4.054
   9 B    9.500  11.937   4.072
  10 B  -10.364   5.923  -4.054
  11 B    9.499 -11.935   4.053
  12 B   14.223  -3.752  -4.073
  13 H   -2.384  10.147   4.033
                                181 S  
                                         1.874E+01 1.968E-02 0.000E+00 0.000E+00
                                         2.826E+00 1.380E-01 0.000E+00 0.000E+00
                                         6.401E-01 4.783E-01 0.000E+00 0.000E+00
                                182 S  
                                         1.756E-01 1.000E+00 0.000E+00 0.000E+00
  14 H    2.340 -10.061  -4.093
  15 H    2.376 -10.143   4.027
  16 H    7.100  -1.960  -4.099
  17 H   -2.386 -10.148   4.026
  18 H    2.338  -1.964  -4.100
  19 H    2.379  10.145   4.026
  20 H    7.102 -10.063  -4.100
  21 H   -7.597   7.139   4.093
  22 H   -2.873 -13.069  -4.033
  23 H    7.596  -7.126   4.099
  24 H   12.320   1.057  -4.027
  25 H    9.979  -3.005   4.100
  26 H   -9.885  -9.020  -4.026
  27 H   -9.975   3.014   4.100
  28 H   -5.251  11.197  -4.026
  29 H   -7.596  -7.140   4.033
  30 H   -2.872   1.043  -4.093
  31 H    7.597   7.130   4.027
  32 H  -12.267   1.116  -4.099
  33 H    9.979   3.007   4.026
  34 H   -9.885  -3.007  -4.100
  35 H   -9.976  -3.016   4.026
  36 H   -5.252   5.168  -4.100
  37 C   -2.658  14.195   4.052
                                229 S  
                                         3.624E+03 1.634E-03 0.000E+00 0.000E+00
                                         5.440E+02 1.252E-02 0.000E+00 0.000E+00
                                         1.237E+02 6.211E-02 0.000E+00 0.000E+00
                                         3.476E+01 2.182E-01 0.000E+00 0.000E+00
                                         1.093E+01 4.980E-01 0.000E+00 0.000E+00
                                230 S  
                                         3.574E+00 1.000E+00 0.000E+00 0.000E+00
                                231 S  
                                         7.742E-01 1.000E+00 0.000E+00 0.000E+00
                                232 S  
                                         2.330E-01 1.000E+00 0.000E+00 0.000E+00
                         233-   235 P  
                                         9.443E+00 0.000E+00 3.790E-02 0.000E+00
                                         2.002E+00 0.000E+00 2.082E-01 0.000E+00
                                         5.463E-01 0.000E+00 5.047E-01 0.000E+00
                         236-   238 P  
                                         1.820E-01 0.000E+00 1.000E+00 0.000E+00
                         239-   243 D  
                                         8.880E-01 0.000E+00 0.000E+00 1.000E+00
  38 C    2.066  -6.013  -4.074
  39 C   -1.316  11.911   4.034
  40 C    3.408  -8.297  -4.092
  41 C    1.313 -11.910   4.032
  42 C    6.036  -3.727  -4.094
  43 C   -1.317 -11.911   4.037
  44 C    3.407  -3.728  -4.089
  45 C    1.314  11.911   4.024
  46 C    6.037  -8.297  -4.102
  47 C    2.656 -14.195   4.037
  48 C    7.380  -6.012  -4.089
  49 C   13.623  -4.793   4.074
  50 C   -6.241 -10.807  -4.052
  51 C   -9.659   7.096   4.092
  52 C   -4.935 -13.112  -4.034
  53 C    9.658  -7.090   4.094
  54 C   14.382   1.094  -4.032
  55 C   10.973  -4.813   4.089
  56 C   -8.891 -10.827  -4.037
  57 C  -10.973   4.819   4.102
  58 C   -6.249  13.002  -4.024
  59 C   10.964  -9.396   4.089
  60 C   15.688  -1.213  -4.037
  61 C   13.623   4.795   4.052
  62 C   -6.241  -1.219  -4.074
  63 C   -9.658  -7.098   4.034
  64 C   -4.934   1.085  -4.092
  65 C    9.659   7.092   4.032
  66 C  -10.205   1.077  -4.094
  67 C   10.973   4.814   4.037
  68 C   -8.891  -1.200  -4.089
  69 C  -10.973  -4.821   4.024
  70 C   -6.249   3.362  -4.102
  71 C   10.965   9.398   4.037
  72 C   -8.899   3.383  -4.089
  73 O   13.787   0.001   4.058
                                769 S  
                                         6.773E+03 1.727E-03 0.000E+00 0.000E+00
                                         1.017E+03 1.325E-02 0.000E+00 0.000E+00
                                         2.313E+02 6.603E-02 0.000E+00 0.000E+00
                                         6.501E+01 2.353E-01 0.000E+00 0.000E+00
                                         2.050E+01 5.498E-01 0.000E+00 0.000E+00
                                770 S  
                                         6.716E+00 1.000E+00 0.000E+00 0.000E+00
                                771 S  
                                         1.147E+00 1.000E+00 0.000E+00 0.000E+00
                                772 S  
                                         3.342E-01 1.000E+00 0.000E+00 0.000E+00
                         773-   775 P  
                                         1.769E+01 0.000E+00 4.359E-02 0.000E+00
                                         3.854E+00 0.000E+00 2.318E-01 0.000E+00
                                         1.047E+00 0.000E+00 5.146E-01 0.000E+00
                         776-   778 P  
                                         2.759E-01 0.000E+00 1.000E+00 0.000E+00
                         779-   783 D  
                                         8.000E-01 0.000E+00 0.000E+00 1.000E+00
  74 O   -6.077  -6.013  -4.068
  75 O   -6.892  11.939   4.098
  76 O   -2.169  -8.269  -4.028
  77 O   -6.893 -11.940   4.038
  78 O   -2.169  -3.756  -4.088
  79 O    6.893 -11.938   4.058
  80 O   11.616  -3.755  -4.068
  81 O    6.893  11.940   4.098
  82 O   11.617  -8.268  -4.028
  83 O  -13.787  -0.001   4.038
  84 O   -9.064   8.182  -4.088

 *******************************************************************************
 FINISHED BASIS SET HANDLING 
 *******************************************************************************

 INFORMATION **** SET_MPP **** PCRYSTAL CALCULATION
 INFORMATION **** READM2 **** NEW DEFAULT: FOCK/KS MATRIX MIXING SET TO 30 %
 INFORMATION **** READM2 **** NEW DEFAULT: FULL DIRECT SCF MODE
 INFORMATION **** READM2 **** NEW DEFAULT: COULOMB BIPOLAR BUFFER SET TO 32 Mb
 INFORMATION **** READM2 **** NEW DEFAULT: EXCHANGE BIPOLAR BUFFER SET TO 32 Mb

 *******************************************************************************
 NEW DEFAULT: DFT INTEGRATION GRID INCREASED TO XLGRID
 NEW DEFAULT: DIIS ACCELERATOR ACTIVE
 USE KEYWORD NODIIS TO TURN IT OFF
 *******************************************************************************

 WARNING **** RDDFTP **** HSEsol-HJS ACTIVE
 RANGE SEPARATION - OMEGA:   0.110000000000000     
 WARNING **** RDDFTP **** HSEsol-3c has to be combined with sol-def2-mSVP basis set
 *******************************************************************************
 N. OF ATOMS PER CELL        84  COULOMB OVERLAP TOL         (T1) 10**   -6
 NUMBER OF SHELLS           468  COULOMB PENETRATION TOL     (T2) 10**   -6
 NUMBER OF AO               948  EXCHANGE OVERLAP TOL        (T3) 10**   -6
 N. OF ELECTRONS PER CELL   396  EXCHANGE PSEUDO OVP (F(G))  (T4) 10**   -6
 CORE ELECTRONS PER CELL    120  EXCHANGE PSEUDO OVP (P(G))  (T5) 10**  -12
 N. OF SYMMETRY OPERATORS     1  POLE ORDER IN MONO ZONE                  4
 *******************************************************************************
 TYPE OF CALCULATION :  RESTRICTED CLOSED SHELL
 KOHN-SHAM HAMILTONIAN

 (EXCHANGE)[CORRELATION] FUNCTIONAL:(HSEsol GGA)[PBEsol]

 RANGE-SEPARATED HYBRID FUNCTIONAL 
 OMEGA (SHORT-RANGE)[LONG-RANGE]:(    0.1100)[    0.0000]

 HYBRID EXCHANGE - PERCENTAGE OF FOCK EXCHANGE    25.0000

 CAPPA:IS1  2;IS2  2;IS3  8; K PTS MONK NET  20; SYMMOPS:K SPACE   2;G SPACE   1

 *******************************************************************************
 MAX NUMBER OF SCF CYCLES      50  CONVERGENCE ON DELTAP        10**-16
 WEIGHT OF F(I) IN F(I+1)      30% CONVERGENCE ON ENERGY        10**- 6
 SHRINK. FACT.(MONKH.)    2  2  8  NUMBER OF K POINTS IN THE IBZ     20
 SHRINKING FACTOR(GILAT NET)    8  NUMBER OF K POINTS(GILAT NET)   1028
 *******************************************************************************
 *** K POINTS COORDINATES (OBLIQUE COORDINATES IN UNITS OF IS =  2)
   1-R(  0  0  0)   2-R(  1  0  0)   3-R(  0  1  0)   4-R(  1  1  0)
   5-C(  0  0  1)   6-C(  1  0  1)   7-C(  0  1  1)   8-C(  1  1  1)
   9-C(  0  0  2)  10-C(  1  0  2)  11-C(  0  1  2)  12-C(  1  1  2)
  13-C(  0  0  3)  14-C(  1  0  3)  15-C(  0  1  3)  16-C(  1  1  3)
  17-R(  0  0  4)  18-R(  1  0  4)  19-R(  0  1  4)  20-R(  1  1  4)

 DIRECT LATTICE VECTORS COMPON. (A.U.)     RECIP. LATTICE VECTORS COMPON. (A.U.) 
        X            Y            Z              X            Y            Z
   24.5879030  -14.1935232    0.0000000      0.2555397    0.0000000    0.0000005
    0.0000000   28.3910867    0.0000000      0.1277517    0.2213084    0.0000015
   -0.0000345   -0.0000916   16.2516448      0.0000000    0.0000000    0.3866184

 DISK SPACE FOR EIGENVECTORS (FTN 10)    28758528 REALS

 SYMMETRY ADAPTION OF THE BLOCH FUNCTIONS DISABLED
 TTTTTTTTTTTTTTTTTTTTTTTTTTTTTT gordsh1     TELAPSE        0.07 TCPU        0.07

 MATRIX SIZE: P(G)  575818, F(G)  114591, P(G) IRR  289811, F(G) IRR  115551
 MAX G-VECTOR INDEX FOR 1- AND 2-ELECTRON INTEGRALS  43

 TTTTTTTTTTTTTTTTTTTTTTTTTTTTTT INPUT       TELAPSE        2.90 TCPU        2.90

 NEIGHBORS OF THE NON-EQUIVALENT ATOMS

 N = NUMBER OF NEIGHBORS AT DISTANCE R
    ATOM  N     R/ANG      R/AU   NEIGHBORS (ATOM LABELS AND CELL INDICES)
   1 B    1     1.3791     2.6061   73 O   -1 0 0
   1 B    1     1.3793     2.6065   75 O    0 0 0
   1 B    1     1.5503     2.9297   49 C   -1 0 0
   1 B    1     2.3895     4.5155    5 B    0 1 0
   1 B    1     2.3898     4.5160    3 B    0 0 0
   1 B    1     2.5632     4.8437   51 C    0 0 0

   2 B    1     1.3791     2.6061   74 O    0 0 0
   2 B    1     1.3793     2.6065   76 O    0 0 0
   2 B    1     1.5503     2.9297   50 C    0 0 0
   2 B    1     2.3895     4.5155    6 B    0 0 0
   2 B    1     2.3898     4.5160    4 B    0 0 0
   2 B    1     2.5632     4.8437   52 C    0 0 0

   3 B    1     1.3793     2.6065   77 O    0 1 0
   3 B    1     1.3793     2.6065   75 O    0 0 0
   3 B    1     1.5504     2.9298   37 C    0 0 0
   3 B    1     2.3895     4.5156    5 B    0 1 0
   3 B    1     2.3898     4.5160    1 B    0 0 0
   3 B    1     2.5634     4.8440   43 C    0 1 0

   4 B    1     1.3793     2.6065   78 O    0 0 0
   4 B    1     1.3793     2.6065   76 O    0 0 0
   4 B    1     1.5504     2.9298   38 C    0 0 0
   4 B    1     2.3895     4.5156    6 B    0 0 0
   4 B    1     2.3898     4.5160    2 B    0 0 0
   4 B    1     2.5634     4.8440   44 C    0 0 0

   5 B    1     1.3791     2.6061   73 O   -1-1 0
   5 B    1     1.3793     2.6064   77 O    0 0 0
   5 B    1     1.5502     2.9294   61 C   -1-1 0
   5 B    1     2.3895     4.5155    1 B    0-1 0
   5 B    1     2.3895     4.5156    3 B    0-1 0
   5 B    1     2.5629     4.8433   63 C    0 0 0

   6 B    1     1.3791     2.6061   74 O    0 0 0
   6 B    1     1.3793     2.6064   78 O    0 0 0
   6 B    1     1.5502     2.9294   62 C    0 0 0
   6 B    1     2.3895     4.5155    2 B    0 0 0
   6 B    1     2.3895     4.5156    4 B    0 0 0
   6 B    1     2.5629     4.8433   64 C    0 0 0

   7 B    1     1.3795     2.6068   79 O    0 0 0
   7 B    1     1.3795     2.6070   81 O    0-1 0
   7 B    1     1.5513     2.9316   47 C    0 0 0
   7 B    1     2.3905     4.5174   11 B    0 0 0
   7 B    1     2.3905     4.5175    9 B    0-1 0
   7 B    1     2.5648     4.8468   45 C    0-1 0

   8 B    1     1.3795     2.6068   80 O    0 0 0
   8 B    1     1.3795     2.6070   82 O    0 0 0
   8 B    1     1.5513     2.9316   48 C    0 0 0
   8 B    1     2.3905     4.5174   12 B    0 0 0
   8 B    1     2.3905     4.5175   10 B    1 0 0
   8 B    1     2.5648     4.8468   46 C    0 0 0

   9 B    1     1.3795     2.6069   81 O    0 0 0
   9 B    1     1.3797     2.6072   83 O    1 1 0
   9 B    1     1.5516     2.9322   71 C    0 0 0
   9 B    1     2.3905     4.5175    7 B    0 1 0
   9 B    1     2.3911     4.5185   11 B    0 1 0
   9 B    1     2.5651     4.8473   69 C    1 1 0

  10 B    1     1.3795     2.6069   82 O   -1 0 0
  10 B    1     1.3797     2.6072   84 O    0 0 0
  10 B    1     1.5516     2.9322   72 C    0 0 0
  10 B    1     2.3905     4.5175    8 B   -1 0 0
  10 B    1     2.3911     4.5185   12 B   -1 0 0
  10 B    1     2.5651     4.8473   70 C    0 0 0

  11 B    1     1.3795     2.6068   79 O    0 0 0
  11 B    1     1.3796     2.6071   83 O    1 0 0
  11 B    1     1.5516     2.9322   59 C    0 0 0
  11 B    1     2.3905     4.5174    7 B    0 0 0
  11 B    1     2.3911     4.5185    9 B    0-1 0
  11 B    1     2.5651     4.8473   57 C    1 0 0

  12 B    1     1.3795     2.6068   80 O    0 0 0
  12 B    1     1.3796     2.6071   84 O    1 0 0
  12 B    1     1.5516     2.9322   60 C    0 0 0
  12 B    1     2.3905     4.5174    8 B    0 0 0
  12 B    1     2.3911     4.5185   10 B    1 0 0
  12 B    1     2.5651     4.8473   58 C    1 0 0

  13 H    1     1.0913     2.0623   39 C    0 0 0
  13 H    1     2.1472     4.0576   37 C    0 0 0
  13 H    1     2.1680     4.0969   45 C    0 0 0
  13 H    1     2.5202     4.7625   19 H    0 0 0
  13 H    1     2.5676     4.8520   75 O    0 0 0
  13 H    1     2.7321     5.1630    3 B    0 0 0

  14 H    1     1.0913     2.0623   40 C    0 0 0
  14 H    1     2.1472     4.0576   38 C    0 0 0
  14 H    1     2.1680     4.0969   46 C    0 0 0
  14 H    1     2.5202     4.7625   20 H    0 0 0
  14 H    1     2.5676     4.8520   76 O    0 0 0
  14 H    1     2.7321     5.1630    4 B    0 0 0

  15 H    1     1.0914     2.0625   41 C    0 0 0
  15 H    1     2.1493     4.0616   47 C    0 0 0
  15 H    1     2.1666     4.0942   43 C    0 0 0
  15 H    1     2.5198     4.7618   17 H    0 0 0
  15 H    1     2.5720     4.8604   79 O    0 0 0
  15 H    1     2.7362     5.1707    7 B    0 0 0

  16 H    1     1.0914     2.0625   42 C    0 0 0
  16 H    1     2.1493     4.0616   48 C    0 0 0
  16 H    1     2.1666     4.0942   44 C    0 0 0
  16 H    1     2.5198     4.7618   18 H    0 0 0
  16 H    1     2.5720     4.8604   80 O    0 0 0
  16 H    1     2.7362     5.1707    8 B    0 0 0

  17 H    1     1.0914     2.0624   43 C    0 0 0
  17 H    1     2.1471     4.0575   37 C    0-1 0
  17 H    1     2.1680     4.0970   41 C    0 0 0
  17 H    1     2.5198     4.7618   15 H    0 0 0
  17 H    1     2.5665     4.8500   77 O    0 0 0
  17 H    1     2.7315     5.1618    3 B    0-1 0

  18 H    1     1.0914     2.0624   44 C    0 0 0
  18 H    1     2.1471     4.0575   38 C    0 0 0
  18 H    1     2.1680     4.0970   42 C    0 0 0
  18 H    1     2.5198     4.7618   16 H    0 0 0
  18 H    1     2.5665     4.8500   78 O    0 0 0
  18 H    1     2.7315     5.1618    4 B    0 0 0

  19 H    1     1.0915     2.0626   45 C    0 0 0
  19 H    1     2.1490     4.0610   47 C    0 1 0
  19 H    1     2.1669     4.0948   39 C    0 0 0
  19 H    1     2.5202     4.7625   13 H    0 0 0
  19 H    1     2.5712     4.8588   81 O    0 0 0
  19 H    1     2.7351     5.1686    7 B    0 1 0

  20 H    1     1.0915     2.0626   46 C    0 0 0
  20 H    1     2.1490     4.0610   48 C    0 0 0
  20 H    1     2.1669     4.0948   40 C    0 0 0
  20 H    1     2.5202     4.7625   14 H    0 0 0
  20 H    1     2.5712     4.8588   82 O    0 0 0
  20 H    1     2.7351     5.1686    8 B    0 0 0

  21 H    1     1.0913     2.0623   51 C    0 0 0
  21 H    1     2.1469     4.0571   49 C   -1 0 0
  21 H    1     2.1680     4.0968   57 C    0 0 0
  21 H    1     2.5198     4.7617   27 H    0 0 0
  21 H    1     2.5670     4.8510   75 O    0 0 0
  21 H    1     2.7310     5.1609    1 B    0 0 0

  22 H    1     1.0913     2.0623   52 C    0 0 0
  22 H    1     2.1469     4.0571   50 C    0 0 0
  22 H    1     2.1680     4.0968   58 C    0-1 0
  22 H    1     2.5198     4.7617   28 H    0-1 0
  22 H    1     2.5670     4.8510   76 O    0 0 0
  22 H    1     2.7310     5.1609    2 B    0 0 0

  23 H    1     1.0914     2.0625   53 C    0 0 0
  23 H    1     2.1493     4.0617   59 C    0 0 0
  23 H    1     2.1664     4.0939   55 C    0 0 0
  23 H    1     2.5192     4.7606   25 H    0 0 0
  23 H    1     2.5735     4.8632   79 O    0 0 0
  23 H    1     2.7371     5.1723   11 B    0 0 0

  24 H    1     1.0914     2.0625   54 C    0 0 0
  24 H    1     2.1493     4.0617   60 C    0 0 0
  24 H    1     2.1664     4.0939   56 C    1 1 0
  24 H    1     2.5192     4.7606   26 H    1 1 0
  24 H    1     2.5735     4.8632   80 O    0 0 0
  24 H    1     2.7371     5.1723   12 B    0 0 0

  25 H    1     1.0914     2.0624   55 C    0 0 0
  25 H    1     2.1475     4.0581   49 C    0 0 0
  25 H    1     2.1679     4.0967   53 C    0 0 0
  25 H    1     2.5192     4.7606   23 H    0 0 0
  25 H    1     2.5675     4.8519   73 O    0 0 0
  25 H    1     2.7328     5.1643    1 B    1 0 0

  26 H    1     1.0914     2.0624   56 C    0 0 0
  26 H    1     2.1475     4.0581   50 C    0 0 0
  26 H    1     2.1679     4.0967   54 C   -1-1 0
  26 H    1     2.5192     4.7606   24 H   -1-1 0
  26 H    1     2.5675     4.8519   74 O    0 0 0
  26 H    1     2.7328     5.1643    2 B    0 0 0

  27 H    1     1.0914     2.0625   57 C    0 0 0
  27 H    1     2.1491     4.0612   59 C   -1 0 0
  27 H    1     2.1666     4.0942   51 C    0 0 0
  27 H    1     2.5198     4.7617   21 H    0 0 0
  27 H    1     2.5723     4.8609   83 O    0 0 0
  27 H    1     2.7355     5.1693   11 B   -1 0 0

  28 H    1     1.0914     2.0625   58 C    0 0 0
  28 H    1     2.1491     4.0612   60 C   -1 0 0
  28 H    1     2.1666     4.0942   52 C    0 1 0
  28 H    1     2.5198     4.7617   22 H    0 1 0
  28 H    1     2.5723     4.8609   84 O    0 0 0
  28 H    1     2.7355     5.1693   12 B   -1 0 0

  29 H    1     1.0914     2.0624   63 C    0 0 0
  29 H    1     2.1475     4.0582   61 C   -1-1 0
  29 H    1     2.1678     4.0966   69 C    0 0 0
  29 H    1     2.5200     4.7621   35 H    0 0 0
  29 H    1     2.5667     4.8503   77 O    0 0 0
  29 H    1     2.7315     5.1618    5 B    0 0 0

  30 H    1     1.0914     2.0624   64 C    0 0 0
  30 H    1     2.1475     4.0582   62 C    0 0 0
  30 H    1     2.1678     4.0966   70 C    0 0 0
  30 H    1     2.5200     4.7621   36 H    0 0 0
  30 H    1     2.5667     4.8503   78 O    0 0 0
  30 H    1     2.7315     5.1618    6 B    0 0 0

  31 H    1     1.0913     2.0623   65 C    0 0 0
  31 H    1     2.1487     4.0605   71 C    0 0 0
  31 H    1     2.1667     4.0945   67 C    0 0 0
  31 H    1     2.5197     4.7616   33 H    0 0 0
  31 H    1     2.5723     4.8610   81 O    0 0 0
  31 H    1     2.7359     5.1701    9 B    0 0 0

  32 H    1     1.0913     2.0623   66 C    0 0 0
  32 H    1     2.1487     4.0605   72 C    0 0 0
  32 H    1     2.1667     4.0945   68 C    0 0 0
  32 H    1     2.5197     4.7616   34 H    0 0 0
  32 H    1     2.5723     4.8610   82 O   -1 0 0
  32 H    1     2.7359     5.1701   10 B    0 0 0

  33 H    1     1.0915     2.0626   67 C    0 0 0
  33 H    1     2.1479     4.0589   61 C    0 0 0
  33 H    1     2.1679     4.0968   65 C    0 0 0
  33 H    1     2.5197     4.7616   31 H    0 0 0
  33 H    1     2.5677     4.8522   73 O    0 0 0
  33 H    1     2.7331     5.1648    5 B    1 1 0

  34 H    1     1.0915     2.0626   68 C    0 0 0
  34 H    1     2.1479     4.0589   62 C    0 0 0
  34 H    1     2.1679     4.0968   66 C    0 0 0
  34 H    1     2.5197     4.7616   32 H    0 0 0
  34 H    1     2.5677     4.8522   74 O    0 0 0
  34 H    1     2.7331     5.1648    6 B    0 0 0

  35 H    1     1.0914     2.0624   69 C    0 0 0
  35 H    1     2.1486     4.0602   71 C   -1-1 0
  35 H    1     2.1668     4.0947   63 C    0 0 0
  35 H    1     2.5200     4.7621   29 H    0 0 0
  35 H    1     2.5717     4.8598   83 O    0 0 0
  35 H    1     2.7349     5.1682    9 B   -1-1 0

  36 H    1     1.0914     2.0624   70 C    0 0 0
  36 H    1     2.1486     4.0602   72 C    0 0 0
  36 H    1     2.1668     4.0947   64 C    0 0 0
  36 H    1     2.5200     4.7621   30 H    0 0 0
  36 H    1     2.5717     4.8598   84 O    0 0 0
  36 H    1     2.7349     5.1682   10 B    0 0 0

  37 C    1     1.4020     2.6495   43 C    0 1 0
  37 C    1     1.4021     2.6495   39 C    0 0 0
  37 C    1     1.5504     2.9298    3 B    0 0 0
  37 C    1     2.1471     4.0575   17 H    0 1 0
  37 C    1     2.1472     4.0576   13 H    0 0 0
  37 C    1     2.4246     4.5817   41 C    0 1 0

  38 C    1     1.4020     2.6495   44 C    0 0 0
  38 C    1     1.4021     2.6495   40 C    0 0 0
  38 C    1     1.5504     2.9298    4 B    0 0 0
  38 C    1     2.1471     4.0575   18 H    0 0 0
  38 C    1     2.1472     4.0576   14 H    0 0 0
  38 C    1     2.4246     4.5817   42 C    0 0 0

  39 C    1     1.0913     2.0623   13 H    0 0 0
  39 C    1     1.3914     2.6294   45 C    0 0 0
  39 C    1     1.4021     2.6495   37 C    0 0 0
  39 C    1     2.1669     4.0948   19 H    0 0 0
  39 C    1     2.4177     4.5688   43 C    0 1 0
  39 C    1     2.4250     4.5825   47 C    0 1 0

  40 C    1     1.0913     2.0623   14 H    0 0 0
  40 C    1     1.3914     2.6294   46 C    0 0 0
  40 C    1     1.4021     2.6495   38 C    0 0 0
  40 C    1     2.1669     4.0948   20 H    0 0 0
  40 C    1     2.4177     4.5688   44 C    0 0 0
  40 C    1     2.4250     4.5825   48 C    0 0 0

  41 C    1     1.0914     2.0625   15 H    0 0 0
  41 C    1     1.3914     2.6293   43 C    0 0 0
  41 C    1     1.4026     2.6505   47 C    0 0 0
  41 C    1     2.1680     4.0970   17 H    0 0 0
  41 C    1     2.4182     4.5697   45 C    0-1 0
  41 C    1     2.4246     4.5817   37 C    0-1 0

  42 C    1     1.0914     2.0625   16 H    0 0 0
  42 C    1     1.3914     2.6293   44 C    0 0 0
  42 C    1     1.4026     2.6505   48 C    0 0 0
  42 C    1     2.1680     4.0970   18 H    0 0 0
  42 C    1     2.4182     4.5697   46 C    0 0 0
  42 C    1     2.4246     4.5817   38 C    0 0 0

  43 C    1     1.0914     2.0624   17 H    0 0 0
  43 C    1     1.3914     2.6293   41 C    0 0 0
  43 C    1     1.4020     2.6495   37 C    0-1 0
  43 C    1     2.1666     4.0942   15 H    0 0 0
  43 C    1     2.4177     4.5688   39 C    0-1 0
  43 C    1     2.4250     4.5826   47 C    0 0 0

  44 C    1     1.0914     2.0624   18 H    0 0 0
  44 C    1     1.3914     2.6293   42 C    0 0 0
  44 C    1     1.4020     2.6495   38 C    0 0 0
  44 C    1     2.1666     4.0942   16 H    0 0 0
  44 C    1     2.4177     4.5688   40 C    0 0 0
  44 C    1     2.4250     4.5826   48 C    0 0 0

  45 C    1     1.0915     2.0626   19 H    0 0 0
  45 C    1     1.3914     2.6294   39 C    0 0 0
  45 C    1     1.4025     2.6504   47 C    0 1 0
  45 C    1     2.1680     4.0969   13 H    0 0 0
  45 C    1     2.4182     4.5697   41 C    0 1 0
  45 C    1     2.4246     4.5818   37 C    0 0 0

  46 C    1     1.0915     2.0626   20 H    0 0 0
  46 C    1     1.3914     2.6294   40 C    0 0 0
  46 C    1     1.4025     2.6504   48 C    0 0 0
  46 C    1     2.1680     4.0969   14 H    0 0 0
  46 C    1     2.4182     4.5697   42 C    0 0 0
  46 C    1     2.4246     4.5818   38 C    0 0 0

  47 C    1     1.4025     2.6504   45 C    0-1 0
  47 C    1     1.4026     2.6505   41 C    0 0 0
  47 C    1     1.5513     2.9316    7 B    0 0 0
  47 C    1     2.1490     4.0610   19 H    0-1 0
  47 C    1     2.1493     4.0616   15 H    0 0 0
  47 C    1     2.4250     4.5825   39 C    0-1 0

  48 C    1     1.4025     2.6504   46 C    0 0 0
  48 C    1     1.4026     2.6505   42 C    0 0 0
  48 C    1     1.5513     2.9316    8 B    0 0 0
  48 C    1     2.1490     4.0610   20 H    0 0 0
  48 C    1     2.1493     4.0616   16 H    0 0 0
  48 C    1     2.4250     4.5825   40 C    0 0 0

  49 C    1     1.4020     2.6494   51 C    1 0 0
  49 C    1     1.4021     2.6495   55 C    0 0 0
  49 C    1     1.5503     2.9297    1 B    1 0 0
  49 C    1     2.1469     4.0571   21 H    1 0 0
  49 C    1     2.1475     4.0581   25 H    0 0 0
  49 C    1     2.4246     4.5818   53 C    0 0 0

  50 C    1     1.4020     2.6494   52 C    0 0 0
  50 C    1     1.4021     2.6495   56 C    0 0 0
  50 C    1     1.5503     2.9297    2 B    0 0 0
  50 C    1     2.1469     4.0571   22 H    0 0 0
  50 C    1     2.1475     4.0581   26 H    0 0 0
  50 C    1     2.4246     4.5818   54 C   -1-1 0

  51 C    1     1.0913     2.0623   21 H    0 0 0
  51 C    1     1.3914     2.6293   57 C    0 0 0
  51 C    1     1.4020     2.6494   49 C   -1 0 0
  51 C    1     2.1666     4.0942   27 H    0 0 0
  51 C    1     2.4175     4.5684   55 C   -1 0 0
  51 C    1     2.4251     4.5828   59 C   -1 0 0

  52 C    1     1.0913     2.0623   22 H    0 0 0
  52 C    1     1.3914     2.6293   58 C    0-1 0
  52 C    1     1.4020     2.6494   50 C    0 0 0
  52 C    1     2.1666     4.0942   28 H    0-1 0
  52 C    1     2.4175     4.5684   56 C    0 0 0
  52 C    1     2.4251     4.5828   60 C   -1-1 0

  53 C    1     1.0914     2.0625   23 H    0 0 0
  53 C    1     1.3915     2.6295   55 C    0 0 0
  53 C    1     1.4026     2.6505   59 C    0 0 0
  53 C    1     2.1679     4.0967   25 H    0 0 0
  53 C    1     2.4179     4.5691   57 C    1 0 0
  53 C    1     2.4246     4.5818   49 C    0 0 0

  54 C    1     1.0914     2.0625   24 H    0 0 0
  54 C    1     1.3915     2.6295   56 C    1 1 0
  54 C    1     1.4026     2.6505   60 C    0 0 0
  54 C    1     2.1679     4.0967   26 H    1 1 0
  54 C    1     2.4179     4.5691   58 C    1 0 0
  54 C    1     2.4246     4.5818   50 C    1 1 0

  55 C    1     1.0914     2.0624   25 H    0 0 0
  55 C    1     1.3915     2.6295   53 C    0 0 0
  55 C    1     1.4021     2.6495   49 C    0 0 0
  55 C    1     2.1664     4.0939   23 H    0 0 0
  55 C    1     2.4175     4.5684   51 C    1 0 0
  55 C    1     2.4253     4.5832   59 C    0 0 0

  56 C    1     1.0914     2.0624   26 H    0 0 0
  56 C    1     1.3915     2.6295   54 C   -1-1 0
  56 C    1     1.4021     2.6495   50 C    0 0 0
  56 C    1     2.1664     4.0939   24 H   -1-1 0
  56 C    1     2.4175     4.5684   52 C    0 0 0
  56 C    1     2.4253     4.5832   60 C   -1-1 0

  57 C    1     1.0914     2.0625   27 H    0 0 0
  57 C    1     1.3914     2.6293   51 C    0 0 0
  57 C    1     1.4025     2.6504   59 C   -1 0 0
  57 C    1     2.1680     4.0968   21 H    0 0 0
  57 C    1     2.4179     4.5691   53 C   -1 0 0
  57 C    1     2.4247     4.5819   49 C   -1 0 0

  58 C    1     1.0914     2.0625   28 H    0 0 0
  58 C    1     1.3914     2.6293   52 C    0 1 0
  58 C    1     1.4025     2.6504   60 C   -1 0 0
  58 C    1     2.1680     4.0968   22 H    0 1 0
  58 C    1     2.4179     4.5691   54 C   -1 0 0
  58 C    1     2.4247     4.5819   50 C    0 1 0

  59 C    1     1.4025     2.6504   57 C    1 0 0
  59 C    1     1.4026     2.6505   53 C    0 0 0
  59 C    1     1.5516     2.9322   11 B    0 0 0
  59 C    1     2.1491     4.0612   27 H    1 0 0
  59 C    1     2.1493     4.0617   23 H    0 0 0
  59 C    1     2.4251     4.5828   51 C    1 0 0

  60 C    1     1.4025     2.6504   58 C    1 0 0
  60 C    1     1.4026     2.6505   54 C    0 0 0
  60 C    1     1.5516     2.9322   12 B    0 0 0
  60 C    1     2.1491     4.0612   28 H    1 0 0
  60 C    1     2.1493     4.0617   24 H    0 0 0
  60 C    1     2.4251     4.5828   52 C    1 1 0

  61 C    1     1.4021     2.6496   63 C    1 1 0
  61 C    1     1.4021     2.6497   67 C    0 0 0
  61 C    1     1.5502     2.9294    5 B    1 1 0
  61 C    1     2.1475     4.0582   29 H    1 1 0
  61 C    1     2.1479     4.0589   33 H    0 0 0
  61 C    1     2.4244     4.5814   65 C    0 0 0

  62 C    1     1.4021     2.6496   64 C    0 0 0
  62 C    1     1.4021     2.6497   68 C    0 0 0
  62 C    1     1.5502     2.9294    6 B    0 0 0
  62 C    1     2.1475     4.0582   30 H    0 0 0
  62 C    1     2.1479     4.0589   34 H    0 0 0
  62 C    1     2.4244     4.5814   66 C    0 0 0

  63 C    1     1.0914     2.0624   29 H    0 0 0
  63 C    1     1.3914     2.6293   69 C    0 0 0
  63 C    1     1.4021     2.6496   61 C   -1-1 0
  63 C    1     2.1668     4.0947   35 H    0 0 0
  63 C    1     2.4179     4.5692   67 C   -1-1 0
  63 C    1     2.4251     4.5827   71 C   -1-1 0

  64 C    1     1.0914     2.0624   30 H    0 0 0
  64 C    1     1.3914     2.6293   70 C    0 0 0
  64 C    1     1.4021     2.6496   62 C    0 0 0
  64 C    1     2.1668     4.0947   36 H    0 0 0
  64 C    1     2.4179     4.5692   68 C    0 0 0
  64 C    1     2.4251     4.5827   72 C    0 0 0

  65 C    1     1.0913     2.0623   31 H    0 0 0
  65 C    1     1.3914     2.6294   67 C    0 0 0
  65 C    1     1.4025     2.6504   71 C    0 0 0
  65 C    1     2.1679     4.0968   33 H    0 0 0
  65 C    1     2.4178     4.5690   69 C    1 1 0
  65 C    1     2.4244     4.5814   61 C    0 0 0

  66 C    1     1.0913     2.0623   32 H    0 0 0
  66 C    1     1.3914     2.6294   68 C    0 0 0
  66 C    1     1.4025     2.6504   72 C    0 0 0
  66 C    1     2.1679     4.0968   34 H    0 0 0
  66 C    1     2.4178     4.5690   70 C    0 0 0
  66 C    1     2.4244     4.5814   62 C    0 0 0

  67 C    1     1.0915     2.0626   33 H    0 0 0
  67 C    1     1.3914     2.6294   65 C    0 0 0
  67 C    1     1.4021     2.6497   61 C    0 0 0
  67 C    1     2.1667     4.0945   31 H    0 0 0
  67 C    1     2.4179     4.5692   63 C    1 1 0
  67 C    1     2.4253     4.5832   71 C    0 0 0

  68 C    1     1.0915     2.0626   34 H    0 0 0
  68 C    1     1.3914     2.6294   66 C    0 0 0
  68 C    1     1.4021     2.6497   62 C    0 0 0
  68 C    1     2.1667     4.0945   32 H    0 0 0
  68 C    1     2.4179     4.5692   64 C    0 0 0
  68 C    1     2.4253     4.5832   72 C    0 0 0

  69 C    1     1.0914     2.0624   35 H    0 0 0
  69 C    1     1.3914     2.6293   63 C    0 0 0
  69 C    1     1.4025     2.6503   71 C   -1-1 0
  69 C    1     2.1678     4.0966   29 H    0 0 0
  69 C    1     2.4178     4.5690   65 C   -1-1 0
  69 C    1     2.4245     4.5817   61 C   -1-1 0

  70 C    1     1.0914     2.0624   36 H    0 0 0
  70 C    1     1.3914     2.6293   64 C    0 0 0
  70 C    1     1.4025     2.6503   72 C    0 0 0
  70 C    1     2.1678     4.0966   30 H    0 0 0
  70 C    1     2.4178     4.5690   66 C    0 0 0
  70 C    1     2.4245     4.5817   62 C    0 0 0

  71 C    1     1.4025     2.6503   69 C    1 1 0
  71 C    1     1.4025     2.6504   65 C    0 0 0
  71 C    1     1.5516     2.9322    9 B    0 0 0
  71 C    1     2.1486     4.0602   35 H    1 1 0
  71 C    1     2.1487     4.0605   31 H    0 0 0
  71 C    1     2.4251     4.5827   63 C    1 1 0

  72 C    1     1.4025     2.6503   70 C    0 0 0
  72 C    1     1.4025     2.6504   66 C    0 0 0
  72 C    1     1.5516     2.9322   10 B    0 0 0
  72 C    1     2.1486     4.0602   36 H    0 0 0
  72 C    1     2.1487     4.0605   32 H    0 0 0
  72 C    1     2.4251     4.5827   64 C    0 0 0

  73 O    1     1.3791     2.6061    1 B    1 0 0
  73 O    1     1.3791     2.6061    5 B    1 1 0
  73 O    1     2.3880     4.5126   75 O    1 0 0
  73 O    1     2.3882     4.5130   77 O    1 1 0
  73 O    1     2.5383     4.7966   61 C    0 0 0
  73 O    1     2.5384     4.7968   49 C    0 0 0

  74 O    1     1.3791     2.6061    2 B    0 0 0
  74 O    1     1.3791     2.6061    6 B    0 0 0
  74 O    1     2.3880     4.5126   76 O    0 0 0
  74 O    1     2.3882     4.5130   78 O    0 0 0
  74 O    1     2.5383     4.7966   62 C    0 0 0
  74 O    1     2.5384     4.7968   50 C    0 0 0

  75 O    1     1.3793     2.6065    1 B    0 0 0
  75 O    1     1.3793     2.6065    3 B    0 0 0
  75 O    1     2.3880     4.5126   73 O   -1 0 0
  75 O    1     2.3882     4.5131   77 O    0 1 0
  75 O    1     2.5391     4.7981   37 C    0 0 0
  75 O    1     2.5395     4.7990   49 C   -1 0 0

  76 O    1     1.3793     2.6065    2 B    0 0 0
  76 O    1     1.3793     2.6065    4 B    0 0 0
  76 O    1     2.3880     4.5126   74 O    0 0 0
  76 O    1     2.3882     4.5131   78 O    0 0 0
  76 O    1     2.5391     4.7981   38 C    0 0 0
  76 O    1     2.5395     4.7990   50 C    0 0 0

  77 O    1     1.3793     2.6064    5 B    0 0 0
  77 O    1     1.3793     2.6065    3 B    0-1 0
  77 O    1     2.3882     4.5130   73 O   -1-1 0
  77 O    1     2.3882     4.5131   75 O    0-1 0
  77 O    1     2.5390     4.7980   37 C    0-1 0
  77 O    1     2.5391     4.7982   61 C   -1-1 0

  78 O    1     1.3793     2.6064    6 B    0 0 0
  78 O    1     1.3793     2.6065    4 B    0 0 0
  78 O    1     2.3882     4.5130   74 O    0 0 0
  78 O    1     2.3882     4.5131   76 O    0 0 0
  78 O    1     2.5390     4.7980   38 C    0 0 0
  78 O    1     2.5391     4.7982   62 C    0 0 0

  79 O    1     1.3795     2.6068   11 B    0 0 0
  79 O    1     1.3795     2.6068    7 B    0 0 0
  79 O    1     2.3880     4.5126   83 O    1 0 0
  79 O    1     2.3884     4.5134   81 O    0-1 0
  79 O    1     2.5400     4.7998   47 C    0 0 0
  79 O    1     2.5403     4.8005   59 C    0 0 0

  80 O    1     1.3795     2.6068   12 B    0 0 0
  80 O    1     1.3795     2.6068    8 B    0 0 0
  80 O    1     2.3880     4.5126   84 O    1 0 0
  80 O    1     2.3884     4.5134   82 O    0 0 0
  80 O    1     2.5400     4.7998   48 C    0 0 0
  80 O    1     2.5403     4.8005   60 C    0 0 0

  81 O    1     1.3795     2.6069    9 B    0 0 0
  81 O    1     1.3795     2.6070    7 B    0 1 0
  81 O    1     2.3881     4.5128   83 O    1 1 0
  81 O    1     2.3884     4.5134   79 O    0 1 0
  81 O    1     2.5404     4.8006   47 C    0 1 0
  81 O    1     2.5405     4.8008   71 C    0 0 0

  82 O    1     1.3795     2.6069   10 B    1 0 0
  82 O    1     1.3795     2.6070    8 B    0 0 0
  82 O    1     2.3881     4.5128   84 O    1 0 0
  82 O    1     2.3884     4.5134   80 O    0 0 0
  82 O    1     2.5404     4.8006   48 C    0 0 0
  82 O    1     2.5405     4.8008   72 C    1 0 0

  83 O    1     1.3796     2.6071   11 B   -1 0 0
  83 O    1     1.3797     2.6072    9 B   -1-1 0
  83 O    1     2.3880     4.5126   79 O   -1 0 0
  83 O    1     2.3881     4.5128   81 O   -1-1 0
  83 O    1     2.5409     4.8016   71 C   -1-1 0
  83 O    1     2.5410     4.8019   59 C   -1 0 0

  84 O    1     1.3796     2.6071   12 B   -1 0 0
  84 O    1     1.3797     2.6072   10 B    0 0 0
  84 O    1     2.3880     4.5126   80 O   -1 0 0
  84 O    1     2.3881     4.5128   82 O   -1 0 0
  84 O    1     2.5409     4.8016   72 C    0 0 0
  84 O    1     2.5410     4.8019   60 C   -1 0 0


 SYMMETRY ALLOWED INTERNAL DEGREE(S) OF FREEDOM: 249
 TTTTTTTTTTTTTTTTTTTTTTTTTTTTTT SYMM        TELAPSE        2.91 TCPU        2.90
 TTTTTTTTTTTTTTTTTTTTTTTTTTTTTT INT_SCREEN  TELAPSE        3.11 TCPU        3.10

 DFT PARAMETERS

     ATOM       ELECTRONS   NET CHARGE   R(ANGSTROM)
   1   5  B       5.0000      0.0000     0.89000000
  13   1  H       1.0000      0.0000     1.11000000
  37   6  C       6.0000      0.0000     0.77000000
  73   8  O       8.0000      0.0000     0.74000000

 SIZE OF GRID=    2669576
 TTTTTTTTTTTTTTTTTTTTTTTTTTTTTT MAKE_GRID2  TELAPSE       19.69 TCPU       19.67
 BECKE WEIGHT FUNCTION
 RADSAFE =     2.00
 TOLERANCES - DENSITY:10**- 6; POTENTIAL:10**- 9; GRID WGT:10**-14

 RADIAL INTEGRATION  - INTERVALS (POINTS,UPPER LIMIT):            1( 75,  4.0*R)

 ANGULAR INTEGRATION - INTERVALS (ACCURACY LEVEL [N. POINTS] UPPER LIMIT):
  1(  4[  86]   0.2)  2(  8[ 194]   0.5)  3( 12[ 350]   0.9)  4( 16[ 974]   3.5)
  5( 12[ 350]9999.0)
 TTTTTTTTTTTTTTTTTTTTTTTTTTTTTT INT_CALC    TELAPSE       20.00 TCPU       19.98
 EEEEEEEEEE INT_CALC TERMINATION  DATE 19 02 2026 TIME 20:28:41.6

 *******************************************************************************
 cof-1_z43_L050_serr                                                             
 CRYSTAL - SCF - TYPE OF CALCULATION :  RESTRICTED CLOSED SHELL
 *******************************************************************************

 CAPPA:IS1  2;IS2  2;IS3  8; K PTS MONK NET  20; SYMMOPS:K SPACE   2;G SPACE   1

 TTTTTTTTTTTTTTTTTTTTTTTTTTTTTT SDIK        TELAPSE       22.40 TCPU       53.67

 AAAAAAAAAAAAAAAAAAAAAAAAAAAAAAAAAAAAAAAAAAAAAAAAAAAAAAAAAAAAAAAAAAAAAAAAAAAAAAA
         ATOMIC WAVEFUNCTION(S)


 NUCLEAR CHARGE  5.0  SYMMETRY SPECIES            S    P
 N. ELECTRONS    5.0  NUMBER OF PRIMITIVE GTOS    8    4
                      NUMBER OF CONTRACTED GTOS   4    2
                      NUMBER OF CLOSED SHELLS     2    0
                      OPEN SHELL OCCUPATION       0    1

  ZNUC  SCFIT    TOTAL HF ENERGY   KINETIC ENERGY   VIRIAL THEOREM ACCURACY
   5.0    11    -2.451164084E+01  2.462155050E+01 -1.995536038E+00  1.5E-06

 NUCLEAR CHARGE  1.0  SYMMETRY SPECIES            S
 N. ELECTRONS    1.0  NUMBER OF PRIMITIVE GTOS    4
                      NUMBER OF CONTRACTED GTOS   2
                      NUMBER OF CLOSED SHELLS     0
                      OPEN SHELL OCCUPATION       1

  ZNUC  SCFIT    TOTAL HF ENERGY   KINETIC ENERGY   VIRIAL THEOREM ACCURACY
   1.0     1    -4.977266687E-01  5.190767460E-01 -1.958869132E+00  0.0E+00

 NUCLEAR CHARGE  6.0  SYMMETRY SPECIES            S    P
 N. ELECTRONS    6.0  NUMBER OF PRIMITIVE GTOS    8    4
                      NUMBER OF CONTRACTED GTOS   4    2
                      NUMBER OF CLOSED SHELLS     2    0
                      OPEN SHELL OCCUPATION       0    2

  ZNUC  SCFIT    TOTAL HF ENERGY   KINETIC ENERGY   VIRIAL THEOREM ACCURACY
   6.0     9    -3.766704647E+01  3.775180683E+01 -1.997754800E+00  1.1E-06

 NUCLEAR CHARGE  8.0  SYMMETRY SPECIES            S    P
 N. ELECTRONS    8.0  NUMBER OF PRIMITIVE GTOS    8    4
                      NUMBER OF CONTRACTED GTOS   4    2
                      NUMBER OF CLOSED SHELLS     2    0
                      OPEN SHELL OCCUPATION       0    4

  ZNUC  SCFIT    TOTAL HF ENERGY   KINETIC ENERGY   VIRIAL THEOREM ACCURACY
   8.0    12    -7.477373220E+01  7.477365593E+01 -2.000001020E+00  3.8E-06

 AAAAAAAAAAAAAAAAAAAAAAAAAAAAAAAAAAAAAAAAAAAAAAAAAAAAAAAAAAAAAAAAAAAAAAAAAAAAAAA

 CHARGE NORMALIZATION FACTOR   1.00000000
 TOTAL ATOMIC CHARGES:
   5.0000000   5.0000000   5.0000000   5.0000000   5.0000000   5.0000000
   5.0000000   5.0000000   5.0000000   5.0000000   5.0000000   5.0000000
   1.0000000   1.0000000   1.0000000   1.0000000   1.0000000   1.0000000
   1.0000000   1.0000000   1.0000000   1.0000000   1.0000000   1.0000000
   1.0000000   1.0000000   1.0000000   1.0000000   1.0000000   1.0000000
   1.0000000   1.0000000   1.0000000   1.0000000   1.0000000   1.0000000
   6.0000000   6.0000000   6.0000000   6.0000000   6.0000000   6.0000000
   6.0000000   6.0000000   6.0000000   6.0000000   6.0000000   6.0000000
   6.0000000   6.0000000   6.0000000   6.0000000   6.0000000   6.0000000
   6.0000000   6.0000000   6.0000000   6.0000000   6.0000000   6.0000000
   6.0000000   6.0000000   6.0000000   6.0000000   6.0000000   6.0000000
   6.0000000   6.0000000   6.0000000   6.0000000   6.0000000   6.0000000
   8.0000000   8.0000000   8.0000000   8.0000000   8.0000000   8.0000000
   8.0000000   8.0000000   8.0000000   8.0000000   8.0000000   8.0000000
 TTTTTTTTTTTTTTTTTTTTTTTTTTTTTT MOQGAD      TELAPSE       22.50 TCPU       56.99
 TTTTTTTTTTTTTTTTTTTTTTTTTTTTTT SHELLXN     TELAPSE       36.49 TCPU      504.20
 TTTTTTTTTTTTTTTTTTTTTTTTTTTTTT MONMO3      TELAPSE       37.06 TCPU      522.29
 NUMERICALLY INTEGRATED DENSITY    395.9999530289
 TTTTTTTTTTTTTTTTTTTTTTTTTTTTTT NUMDFT      TELAPSE       38.64 TCPU      572.85
 CYC   0 ETOT(AU) -2.591908753954E+03 DETOT -2.59E+03 tst  0.00E+00 PX  1.00E+00
 TTTTTTTTTTTTTTTTTTTTTTTTTTTTTT DIIS        TELAPSE       38.81 TCPU      578.29
 TTTTTTTTTTTTTTTTTTTTTTTTTTTTTT FDIK        TELAPSE       40.90 TCPU      644.78
 INSULATING STATE
 TOP OF VALENCE BANDS -    BAND    198; K    1; EIG -3.1506752E-01 AU
 BOTTOM OF VIRTUAL BANDS - BAND    199; K    1; EIG -1.5977372E-01 AU
 DIRECT ENERGY BAND GAP:   4.2258 eV
 TTTTTTTTTTTTTTTTTTTTTTTTTTTTTT PDIG        TELAPSE       42.89 TCPU      651.68
 CHARGE NORMALIZATION FACTOR   1.00000000
 TOTAL ATOMIC CHARGES:
   4.1581697   4.1647272   4.1681841   4.1661743   4.1684299   4.1664189
   4.1660076   4.1680168   4.1657802   4.1677825   4.1643440   4.1577956
   0.7850751   0.7851254   0.7852411   0.7851910   0.7849896   0.7849983
   0.7851179   0.7851097   0.7852603   0.7851838   0.7853507   0.7854266
   0.7852512   0.7851732   0.7853137   0.7853895   0.7849920   0.7850007
   0.7851825   0.7851745   0.7850280   0.7850774   0.7852343   0.7851846
   6.0433069   6.0429361   6.2654427   6.2652127   6.2651760   6.2654044
   6.2651097   6.2649095   6.2648514   6.2650543   6.0422141   6.0425843
   6.0454640   6.0422923   6.2648854   6.2642606   6.2643389   6.2649626
   6.2648007   6.2641684   6.2643556   6.2649801   6.0410933   6.0442437
   6.0436648   6.0432954   6.2648798   6.2646781   6.2652215   6.2654244
   6.2650721   6.2648418   6.2654538   6.2656796   6.0417547   6.0421228
   8.6922433   8.6907364   8.6923492   8.6908448   8.6916625   8.6908143
   8.6911634   8.6926705   8.6912197   8.6920646   8.6913405   8.6928523
 TTTTTTTTTTTTTTTTTTTTTTTTTTTTTT MOQGAD      TELAPSE       43.00 TCPU      651.78
 TTTTTTTTTTTTTTTTTTTTTTTTTTTTTT SHELLXN     TELAPSE       57.52 TCPU     1114.56
 TTTTTTTTTTTTTTTTTTTTTTTTTTTTTT MONMO3      TELAPSE       58.06 TCPU     1132.05
 NUMERICALLY INTEGRATED DENSITY    395.9999775542
 TTTTTTTTTTTTTTTTTTTTTTTTTTTTTT NUMDFT      TELAPSE       59.61 TCPU     1181.41
 CYC   1 ETOT(AU) -2.577628078751E+03 DETOT  1.43E+01 tst  0.00E+00 PX  1.00E+00
 TTTTTTTTTTTTTTTTTTTTTTTTTTTTTT DIIS        TELAPSE       59.83 TCPU     1188.03
 DIIS TEST: 0.22087E+01 AT SCF   CYCLE   1 - MIX   30 %
 TTTTTTTTTTTTTTTTTTTTTTTTTTTTTT FDIK        TELAPSE       61.93 TCPU     1254.86
 INSULATING STATE
 TOP OF VALENCE BANDS -    BAND    198; K    1; EIG -2.2818947E-01 AU
 BOTTOM OF VIRTUAL BANDS - BAND    199; K    1; EIG -8.3290783E-02 AU
 DIRECT ENERGY BAND GAP:   3.9429 eV
 TTTTTTTTTTTTTTTTTTTTTTTTTTTTTT PDIG        TELAPSE       63.95 TCPU     1261.78
 CHARGE NORMALIZATION FACTOR   1.00000000
 TOTAL ATOMIC CHARGES:
   4.6970207   4.7032420   4.6925126   4.7146493   4.6925024   4.7146706
   4.7148193   4.6926203   4.7147696   4.6925878   4.7032942   4.6969631
   0.9115924   0.9056973   0.9057442   0.9115906   0.9147704   0.9137157
   0.9137416   0.9148576   0.9071381   0.9024157   0.9023696   0.9072480
   0.9071237   0.9023955   0.9023513   0.9072025   0.9147603   0.9137073
   0.9138172   0.9149412   0.9115311   0.9056416   0.9057505   0.9115996
   5.8573292   5.8758591   6.1406773   6.1310921   6.1315410   6.1411091
   6.1305832   6.1431764   6.1438435   6.1313485   5.8784045   5.8599393
   5.8878184   5.8693083   6.1431974   6.1304182   6.1312347   6.1437676
   6.1433993   6.1306313   6.1311574   6.1437929   5.8724740   5.8908807
   5.8572695   5.8758084   6.1306755   6.1432603   6.1436667   6.1312390
   6.1408738   6.1313144   6.1312567   6.1407861   5.8786973   5.8601117
   8.3363197   8.3280102   8.3366825   8.3283549   8.3332912   8.3381904
   8.3278537   8.3361311   8.3379208   8.3332015   8.3282396   8.3365064
 TTTTTTTTTTTTTTTTTTTTTTTTTTTTTT MOQGAD      TELAPSE       64.05 TCPU     1261.88
 TTTTTTTTTTTTTTTTTTTTTTTTTTTTTT SHELLXN     TELAPSE       78.80 TCPU     1732.00
 TTTTTTTTTTTTTTTTTTTTTTTTTTTTTT MONMO3      TELAPSE       79.37 TCPU     1750.14
 NUMERICALLY INTEGRATED DENSITY    395.9999726550
 TTTTTTTTTTTTTTTTTTTTTTTTTTTTTT NUMDFT      TELAPSE       81.00 TCPU     1802.12
 CYC   2 ETOT(AU) -2.578018349144E+03 DETOT -3.90E-01 tst  3.53E-03 PX  1.59E-01
 TTTTTTTTTTTTTTTTTTTTTTTTTTTTTT DIIS        TELAPSE       81.26 TCPU     1808.76
 DIIS TEST: 0.90774E+00 AT SCF   CYCLE   2 - DIIS ACTIVE - HISTORY:     2 CYCLES
 TTTTTTTTTTTTTTTTTTTTTTTTTTTTTT FDIK        TELAPSE       83.38 TCPU     1876.36
 INSULATING STATE
 TOP OF VALENCE BANDS -    BAND    198; K    1; EIG -2.4006535E-01 AU
 BOTTOM OF VIRTUAL BANDS - BAND    199; K    1; EIG -7.9636288E-02 AU
 DIRECT ENERGY BAND GAP:   4.3655 eV
 TTTTTTTTTTTTTTTTTTTTTTTTTTTTTT PDIG        TELAPSE       85.40 TCPU     1883.28
 CHARGE NORMALIZATION FACTOR   1.00000000
 TOTAL ATOMIC CHARGES:
   4.4919610   4.4991493   4.4958355   4.5076521   4.4959400   4.5077816
   4.5074797   4.4956392   4.5072930   4.4954560   4.4986863   4.4917139
   0.8896278   0.8850438   0.8851489   0.8898431   0.8911308   0.8920541
   0.8921977   0.8912065   0.8863452   0.8815755   0.8819337   0.8865123
   0.8863854   0.8815883   0.8818740   0.8864146   0.8911205   0.8920579
   0.8922506   0.8912847   0.8896193   0.8850492   0.8851036   0.8898018
   5.9012818   5.8848959   6.1587622   6.1621895   6.1619658   6.1585488
   6.1631330   6.1518135   6.1512594   6.1622749   5.8840640   5.9005539
   5.8958454   5.8968520   6.1595465   6.1651132   6.1646595   6.1592010
   6.1596075   6.1652261   6.1646053   6.1592630   5.8957744   5.8950148
   5.9015837   5.8851787   6.1630972   6.1517619   6.1513695   6.1624170
   6.1586559   6.1620556   6.1619615   6.1585479   5.8838803   5.9002567
   8.5118898   8.5111777   8.5120421   8.5113468   8.5161495   8.5058221
   8.5113912   8.5122005   8.5059687   8.5160394   8.5115949   8.5124034
 TTTTTTTTTTTTTTTTTTTTTTTTTTTTTT MOQGAD      TELAPSE       85.50 TCPU     1883.39
 TTTTTTTTTTTTTTTTTTTTTTTTTTTTTT SHELLXN     TELAPSE      100.20 TCPU     2351.98
 TTTTTTTTTTTTTTTTTTTTTTTTTTTTTT MONMO3      TELAPSE      100.76 TCPU     2369.77
 NUMERICALLY INTEGRATED DENSITY    395.9999726246
 TTTTTTTTTTTTTTTTTTTTTTTTTTTTTT NUMDFT      TELAPSE      102.35 TCPU     2420.46
 CYC   3 ETOT(AU) -2.578205887594E+03 DETOT -1.88E-01 tst  5.86E-04 PX  6.54E-02
 TTTTTTTTTTTTTTTTTTTTTTTTTTTTTT DIIS        TELAPSE      102.64 TCPU     2427.14
 DIIS TEST: 0.28798E-01 AT SCF   CYCLE   3 - DIIS ACTIVE - HISTORY:     3 CYCLES
 TTTTTTTTTTTTTTTTTTTTTTTTTTTTTT FDIK        TELAPSE      104.75 TCPU     2494.39
 INSULATING STATE
 TOP OF VALENCE BANDS -    BAND    198; K    1; EIG -2.5025193E-01 AU
 BOTTOM OF VIRTUAL BANDS - BAND    199; K    1; EIG -8.7584220E-02 AU
 DIRECT ENERGY BAND GAP:   4.4264 eV
 TTTTTTTTTTTTTTTTTTTTTTTTTTTTTT PDIG        TELAPSE      106.76 TCPU     2501.29
 CHARGE NORMALIZATION FACTOR   1.00000000
 TOTAL ATOMIC CHARGES:
   4.4997386   4.5023691   4.5006951   4.5111139   4.5007952   4.5112451
   4.5111296   4.5006068   4.5109430   4.5004322   4.5021388   4.4994829
   0.8720259   0.8687959   0.8688948   0.8720560   0.8762671   0.8723389
   0.8723433   0.8762898   0.8675956   0.8657487   0.8657006   0.8678033
   0.8676227   0.8657609   0.8656409   0.8677083   0.8762728   0.8723467
   0.8724037   0.8763576   0.8720099   0.8687769   0.8688632   0.8720277
   5.9270082   5.9461384   6.1714563   6.1633530   6.1637055   6.1716705
   6.1584911   6.1759160   6.1768940   6.1598007   5.9484518   5.9293545
   5.9580983   5.9321749   6.1748100   6.1636534   6.1644894   6.1753517
   6.1748099   6.1636858   6.1645280   6.1755199   5.9346982   5.9603033
   5.9270438   5.9461813   6.1584342   6.1758402   6.1769487   6.1599319
   6.1713440   6.1632859   6.1637032   6.1716419   5.9485690   5.9293249
   8.4803887   8.4731329   8.4806612   8.4733854   8.4759409   8.4818324
   8.4731598   8.4802863   8.4818211   8.4763503   8.4734823   8.4806053
 TTTTTTTTTTTTTTTTTTTTTTTTTTTTTT MOQGAD      TELAPSE      106.86 TCPU     2501.40
 TTTTTTTTTTTTTTTTTTTTTTTTTTTTTT SHELLXN     TELAPSE      121.41 TCPU     2965.09
 TTTTTTTTTTTTTTTTTTTTTTTTTTTTTT MONMO3      TELAPSE      121.97 TCPU     2983.16
 NUMERICALLY INTEGRATED DENSITY    395.9999730652
 TTTTTTTTTTTTTTTTTTTTTTTTTTTTTT NUMDFT      TELAPSE      123.59 TCPU     3035.02
 CYC   4 ETOT(AU) -2.578211792024E+03 DETOT -5.90E-03 tst  2.76E-05 PX  1.48E-02
 TTTTTTTTTTTTTTTTTTTTTTTTTTTTTT DIIS        TELAPSE      123.90 TCPU     3041.65
 DIIS TEST: 0.92960E-02 AT SCF   CYCLE   4 - DIIS ACTIVE - HISTORY:     4 CYCLES
 TTTTTTTTTTTTTTTTTTTTTTTTTTTTTT FDIK        TELAPSE      126.06 TCPU     3110.14
 INSULATING STATE
 TOP OF VALENCE BANDS -    BAND    198; K    1; EIG -2.4869837E-01 AU
 BOTTOM OF VIRTUAL BANDS - BAND    199; K    1; EIG -8.7521987E-02 AU
 DIRECT ENERGY BAND GAP:   4.3858 eV
 TTTTTTTTTTTTTTTTTTTTTTTTTTTTTT PDIG        TELAPSE      128.07 TCPU     3117.06
 CHARGE NORMALIZATION FACTOR   1.00000000
 TOTAL ATOMIC CHARGES:
   4.5001298   4.5055721   4.5008822   4.5153128   4.5009761   4.5154371
   4.5152977   4.5008423   4.5151261   4.5006735   4.5052768   4.4999684
   0.8750433   0.8710225   0.8711220   0.8751949   0.8776832   0.8770316
   0.8772043   0.8778197   0.8713990   0.8673382   0.8676150   0.8715807
   0.8714213   0.8673359   0.8675667   0.8714950   0.8776747   0.8770325
   0.8772668   0.8779030   0.8750169   0.8710059   0.8710950   0.8751712
   5.9244523   5.9208598   6.1675482   6.1672587   6.1671992   6.1675324
   6.1697021   6.1634532   6.1629047   6.1689043   5.9203705   5.9240813
   5.9295145   5.9295521   6.1690370   6.1697100   6.1694919   6.1688018
   6.1691277   6.1698490   6.1694281   6.1688607   5.9291298   5.9292855
   5.9246697   5.9210654   6.1696830   6.1634228   6.1629522   6.1689969
   6.1675086   6.1672056   6.1671361   6.1674647   5.9202908   5.9238824
   8.4876503   8.4855648   8.4878453   8.4857678   8.4907348   8.4842531
   8.4856739   8.4878603   8.4842544   8.4905063   8.4859206   8.4881012
 TTTTTTTTTTTTTTTTTTTTTTTTTTTTTT MOQGAD      TELAPSE      128.18 TCPU     3117.16
 TTTTTTTTTTTTTTTTTTTTTTTTTTTTTT SHELLXN     TELAPSE      142.86 TCPU     3585.30
 TTTTTTTTTTTTTTTTTTTTTTTTTTTTTT MONMO3      TELAPSE      143.42 TCPU     3603.26
 NUMERICALLY INTEGRATED DENSITY    395.9999731921
 TTTTTTTTTTTTTTTTTTTTTTTTTTTTTT NUMDFT      TELAPSE      145.02 TCPU     3654.30
 CYC   5 ETOT(AU) -2.578213857013E+03 DETOT -2.06E-03 tst  7.25E-06 PX  8.22E-03
 TTTTTTTTTTTTTTTTTTTTTTTTTTTTTT DIIS        TELAPSE      145.36 TCPU     3661.03
 DIIS TEST: 0.54412E-03 AT SCF   CYCLE   5 - DIIS ACTIVE - HISTORY:     5 CYCLES
 TTTTTTTTTTTTTTTTTTTTTTTTTTTTTT FDIK        TELAPSE      147.50 TCPU     3729.05
 INSULATING STATE
 TOP OF VALENCE BANDS -    BAND    198; K    1; EIG -2.4827190E-01 AU
 BOTTOM OF VIRTUAL BANDS - BAND    199; K    1; EIG -8.6929928E-02 AU
 DIRECT ENERGY BAND GAP:   4.3903 eV
 TTTTTTTTTTTTTTTTTTTTTTTTTTTTTT PDIG        TELAPSE      149.48 TCPU     3735.92
 CHARGE NORMALIZATION FACTOR   1.00000000
 TOTAL ATOMIC CHARGES:
   4.5004789   4.5053001   4.5014258   4.5143640   4.5015207   4.5144929
   4.5143164   4.5012802   4.5141375   4.5011100   4.5050100   4.5002245
   0.8761429   0.8722137   0.8723236   0.8762313   0.8795768   0.8773498
   0.8773655   0.8796009   0.8722275   0.8690579   0.8691112   0.8724302
   0.8722586   0.8690698   0.8690515   0.8723354   0.8795769   0.8773551
   0.8774247   0.8796726   0.8761280   0.8722005   0.8722899   0.8762005
   5.9169146   5.9226011   6.1701450   6.1638914   6.1640448   6.1701907
   6.1602043   6.1702676   6.1710239   6.1611470   5.9242448   5.9185947
   5.9363533   5.9163401   6.1720500   6.1650206   6.1655313   6.1723706
   6.1720560   6.1650647   6.1655541   6.1725168   5.9179339   5.9377574
   5.9170360   5.9227201   6.1601551   6.1702010   6.1710981   6.1612848
   6.1700248   6.1637952   6.1640479   6.1701777   5.9242635   5.9184788
   8.4904162   8.4843798   8.4906526   8.4846080   8.4877015   8.4888913
   8.4844718   8.4904167   8.4889735   8.4880760   8.4847556   8.4906998
 TTTTTTTTTTTTTTTTTTTTTTTTTTTTTT MOQGAD      TELAPSE      149.59 TCPU     3736.03
 TTTTTTTTTTTTTTTTTTTTTTTTTTTTTT SHELLXN     TELAPSE      163.86 TCPU     4191.07
 TTTTTTTTTTTTTTTTTTTTTTTTTTTTTT MONMO3      TELAPSE      164.43 TCPU     4209.16
 NUMERICALLY INTEGRATED DENSITY    395.9999731259
 TTTTTTTTTTTTTTTTTTTTTTTTTTTTTT NUMDFT      TELAPSE      166.04 TCPU     4260.66
 CYC   6 ETOT(AU) -2.578213900634E+03 DETOT -4.36E-05 tst  3.39E-06 PX  3.10E-03
 TTTTTTTTTTTTTTTTTTTTTTTTTTTTTT DIIS        TELAPSE      166.41 TCPU     4267.43
 DIIS TEST: 0.42200E-03 AT SCF   CYCLE   6 - DIIS ACTIVE - HISTORY:     6 CYCLES
 TTTTTTTTTTTTTTTTTTTTTTTTTTTTTT FDIK        TELAPSE      168.56 TCPU     4335.64
 INSULATING STATE
 TOP OF VALENCE BANDS -    BAND    198; K    1; EIG -2.4838322E-01 AU
 BOTTOM OF VIRTUAL BANDS - BAND    199; K    1; EIG -8.6891240E-02 AU
 DIRECT ENERGY BAND GAP:   4.3944 eV
 TTTTTTTTTTTTTTTTTTTTTTTTTTTTTT PDIG        TELAPSE      170.57 TCPU     4342.55
 CHARGE NORMALIZATION FACTOR   1.00000000
 TOTAL ATOMIC CHARGES:
   4.5003324   4.5054035   4.5014126   4.5145895   4.5015087   4.5147167
   4.5145535   4.5013214   4.5143770   4.5011503   4.5050969   4.5001145
   0.8762470   0.8720696   0.8721677   0.8763607   0.8791383   0.8777176
   0.8778207   0.8792234   0.8724225   0.8688116   0.8689759   0.8726093
   0.8724497   0.8688167   0.8689221   0.8725188   0.8791348   0.8777219
   0.8778803   0.8792998   0.8762277   0.8720558   0.8721363   0.8763326
   5.9197822   5.9225424   6.1677537   6.1657230   6.1658047   6.1678027
   6.1644925   6.1667461   6.1667772   6.1644885   5.9230848   5.9204049
   5.9325938   5.9228630   6.1698913   6.1671066   6.1672638   6.1699468
   6.1699416   6.1672007   6.1672400   6.1700463   5.9234825   5.9332212
   5.9199459   5.9226994   6.1644540   6.1666916   6.1668432   6.1646094
   6.1676706   6.1656482   6.1657770   6.1677629   5.9230611   5.9202519
   8.4887280   8.4847261   8.4889455   8.4849424   8.4891184   8.4866176
   8.4848291   8.4888411   8.4866382   8.4891576   8.4850976   8.4891054
 TTTTTTTTTTTTTTTTTTTTTTTTTTTTTT MOQGAD      TELAPSE      170.68 TCPU     4342.65
 TTTTTTTTTTTTTTTTTTTTTTTTTTTTTT SHELLXN     TELAPSE      185.47 TCPU     4814.40
 TTTTTTTTTTTTTTTTTTTTTTTTTTTTTT MONMO3      TELAPSE      186.04 TCPU     4832.52
 NUMERICALLY INTEGRATED DENSITY    395.9999731324
 TTTTTTTTTTTTTTTTTTTTTTTTTTTTTT NUMDFT      TELAPSE      187.67 TCPU     4884.53
 CYC   7 ETOT(AU) -2.578214006546E+03 DETOT -1.06E-04 tst  9.40E-07 PX  1.50E-03
 TTTTTTTTTTTTTTTTTTTTTTTTTTTTTT DIIS        TELAPSE      188.07 TCPU     4891.35
 DIIS TEST: 0.44125E-05 AT SCF   CYCLE   7 - DIIS ACTIVE - HISTORY:     7 CYCLES
 TTTTTTTTTTTTTTTTTTTTTTTTTTTTTT FDIK        TELAPSE      190.20 TCPU     4959.16
 INSULATING STATE
 TOP OF VALENCE BANDS -    BAND    198; K    1; EIG -2.4836531E-01 AU
 BOTTOM OF VIRTUAL BANDS - BAND    199; K    1; EIG -8.6954690E-02 AU
 DIRECT ENERGY BAND GAP:   4.3922 eV
 TTTTTTTTTTTTTTTTTTTTTTTTTTTTTT PDIG        TELAPSE      192.23 TCPU     4966.09
 CHARGE NORMALIZATION FACTOR   1.00000000
 TOTAL ATOMIC CHARGES:
   4.5003888   4.5054534   4.5013947   4.5147481   4.5014898   4.5148750
   4.5147133   4.5012999   4.5145374   4.5011296   4.5051562   4.5001771
   0.8761432   0.8721405   0.8722443   0.8762616   0.8791169   0.8777031
   0.8777943   0.8791926   0.8723217   0.8687364   0.8688972   0.8725134
   0.8723493   0.8687419   0.8688428   0.8724224   0.8791128   0.8777065
   0.8778549   0.8792698   0.8761235   0.8721265   0.8722133   0.8762336
   5.9204814   5.9217811   6.1684155   6.1651041   6.1651568   6.1684344
   6.1644328   6.1665435   6.1666625   6.1645269   5.9223970   5.9211733
   5.9331283   5.9225976   6.1701566   6.1668726   6.1670317   6.1702099
   6.1702041   6.1669630   6.1670117   6.1703134   5.9232284   5.9337538
   5.9206488   5.9219412   6.1643978   6.1664942   6.1667238   6.1646427
   6.1683347   6.1650287   6.1651278   6.1683947   5.9223690   5.9210182
   8.4888533   8.4847603   8.4890703   8.4849770   8.4889585   8.4865109
   8.4848584   8.4889540   8.4865517   8.4890350   8.4851253   8.4892176
 TTTTTTTTTTTTTTTTTTTTTTTTTTTTTT MOQGAD      TELAPSE      192.33 TCPU     4966.19
 TTTTTTTTTTTTTTTTTTTTTTTTTTTTTT SHELLXN     TELAPSE      206.93 TCPU     5431.73
 TTTTTTTTTTTTTTTTTTTTTTTTTTTTTT MONMO3      TELAPSE      207.48 TCPU     5449.22
 NUMERICALLY INTEGRATED DENSITY    395.9999731325
 TTTTTTTTTTTTTTTTTTTTTTTTTTTTTT NUMDFT      TELAPSE      209.03 TCPU     5498.76
 CYC   8 ETOT(AU) -2.578214006842E+03 DETOT -2.96E-07 tst  2.00E-08 PX  1.93E-04
 TTTTTTTTTTTTTTTTTTTTTTTTTTTTTT DIIS        TELAPSE      209.43 TCPU     5505.44
 DIIS TEST: 0.16444E-05 AT SCF   CYCLE   8 - DIIS ACTIVE - HISTORY:     8 CYCLES
 TTTTTTTTTTTTTTTTTTTTTTTTTTTTTT FDIK        TELAPSE      211.53 TCPU     5572.37
 INSULATING STATE
 TOP OF VALENCE BANDS -    BAND    198; K    1; EIG -2.4837177E-01 AU
 BOTTOM OF VIRTUAL BANDS - BAND    199; K    1; EIG -8.6948450E-02 AU
 DIRECT ENERGY BAND GAP:   4.3926 eV
 TTTTTTTTTTTTTTTTTTTTTTTTTTTTTT PDIG        TELAPSE      213.55 TCPU     5579.25
 CHARGE NORMALIZATION FACTOR   1.00000000
 TOTAL ATOMIC CHARGES:
   4.5004110   4.5054656   4.5013926   4.5147590   4.5014877   4.5148859
   4.5147246   4.5012989   4.5145487   4.5011286   4.5051666   4.5001974
   0.8761499   0.8720951   0.8721972   0.8762661   0.8791295   0.8776673
   0.8777618   0.8792082   0.8723223   0.8687410   0.8689014   0.8725128
   0.8723497   0.8687465   0.8688471   0.8724220   0.8791257   0.8776710
   0.8778220   0.8792850   0.8761304   0.8720810   0.8721661   0.8762381
   5.9201009   5.9221146   6.1681808   6.1653361   6.1654004   6.1682106
   6.1643913   6.1666776   6.1667758   6.1644644   5.9227179   5.9207810
   5.9329076   5.9227037   6.1700853   6.1669371   6.1671007   6.1701426
   6.1701326   6.1670279   6.1670807   6.1702460   5.9233419   5.9335424
   5.9202659   5.9222729   6.1643551   6.1666263   6.1668386   6.1645820
   6.1680984   6.1652609   6.1653724   6.1681713   5.9226924   5.9206275
   8.4888478   8.4847617   8.4890653   8.4849783   8.4890322   8.4865769
   8.4848621   8.4889515   8.4866107   8.4891011   8.4851296   8.4892155
 TTTTTTTTTTTTTTTTTTTTTTTTTTTTTT MOQGAD      TELAPSE      213.65 TCPU     5579.36
 TTTTTTTTTTTTTTTTTTTTTTTTTTTTTT SHELLXN     TELAPSE      228.37 TCPU     6048.60
 +++ ENERGIES IN A.U. +++
 ::: EXT EL-POLE                                  -2.3896621373459E+03
 ::: EXT EL-SPHEROPOLE                             2.6592592417575E+01
 ::: BIELET ZONE E-E                               3.9568460734039E+03
 ::: TOTAL E-E                                     1.5937765284756E+03
 ::: TOTAL E-N + N-E                              -6.8506621059158E+03
 ::: TOTAL N-N                                     3.8622695520285E+02
 ::: KINETIC ENERGY                                2.5598832778944E+03
 ::: PSEUDO TOTAL   ENERGY                        -2.3107753443430E+03
 ::: VIRIAL COEFFICIENT                            1.0511446095635E+00
 TTTTTTTTTTTTTTTTTTTTTTTTTTTTTT MONMO3      TELAPSE      228.94 TCPU     6066.70
 NUMERICALLY INTEGRATED DENSITY    395.9999731308
 EXCHANGE ENERGY: -0.252059744880E+03  CORRELATION ENERGY: -0.153789178826E+02
 TTTTTTTTTTTTTTTTTTTTTTTTTTTTTT NUMDFT      TELAPSE      230.56 TCPU     6118.37
 CYC   9 ETOT(AU) -2.578214007105E+03 DETOT -2.63E-07 tst  4.97E-09 PX  1.93E-04

 == SCF ENDED - CONVERGENCE ON ENERGY      E(AU) -2.5782140071055E+03 CYCLES   9


 ENERGY EXPRESSION=HARTREE+FOCK EXCH*0.00000+(HSESOL     EXCH)*1.00000+PBESOL     CORR


 TOTAL ENERGY(DFT)(AU)(  9) -2.5782140071055E+03 DE-2.6E-07 tester 5.0E-09
 TTTTTTTTTTTTTTTTTTTTTTTTTTTTTT EDFT        TELAPSE      230.56 TCPU     6118.38
 
 INFORMATION **** DFTD3 ENERGY **** CALCULATE DFTD3 ENERGY

           DFT-D V3(BJ)
 DF                                         hsesol3c  
 parameters
 s6       :    1.0000
 s8       :    0.0000
 a1       :    0.5196
 a2       :    4.9385
 k1 k3    :   16.0000   -4.0000
 Cutoff   :   50.2022
 CN-Cutoff:   21.1671
 ABC-Cutoff:   21.1671
 
 Edisp /kcal,au:   -44.6486 -0.07115210

 E6    /kcal :   -47.0610
 E8    /kcal :     0.0000
 E6(ABC) "   :   2.412348
 
 INFORMATION **** DFTD3 ENERGY **** NORMAL TERMINATION OF DFTD3 MODULE

 GCP ENERGY CALCULATION
  level        hsesol3c            basis:hsesol3c
  Nbf            948
  Atoms           84

  Parameters: 
  sigma     1.0000
  eta       1.4281
  alpha     0.2936
  beta      1.9467

  dmp_scal      4.0000
  dmp_exp       6.0000
 cutoffs: 
   distance [bohr] 60.0
   noise    [a.u.] 2.2E-16
 SR-damping   T
 ** gCP correction **
  Egcp:        0.1658447521 / (a.u.) ||     104.0692 / (kcal/mol)
 INFORMATION **** GCP **** NORMAL TERMINATION OF GCP MODULE

 *******************************************************************************

 DFT-D3-GCP DISPERSION AND COUNTERPOISE CORRECTION

 D3 DISPERSION ENERGY (AU)      -7.1152096041131E-02
 GCP ENERGY (AU)                 1.6584475212853E-01
 TOTAL ENERGY + DISP + GCP (AU) -2.5781193144494E+03

 *******************************************************************************

 EIGENVECTORS IN FORTRAN UNIT 10
 TTTTTTTTTTTTTTTTTTTTTTTTTTTTTT END         TELAPSE      233.21 TCPU     6126.58
 EEEEEEEEEE TERMINATION  DATE 19 02 2026 TIME 20:32:14.8
