 Default number of threads is:           32

         
 *******************************************************************************
 *                                                                             *
 *                               CRYSTAL23                                     *
 *                      public : 1.0.1 - October 2022                          *
 *                       HTTP://WWW.CRYSTAL.UNITO.IT                           *
 *                                                                             *
 *                              MAIN AUTHORS                                   *
 *                                                                             *
 *  R. DOVESI(1,11), V.R. SAUNDERS(2), C. ROETTI(1,11), R. ORLANDO(1,11),      *
 *  C.M. ZICOVICH-WILSON(1,3), F. PASCALE(4), B. CIVALLERI(1,11),              *
 *  K. DOLL(5), N.M. HARRISON(6), I.J. BUSH(7), Ph. D'ARCO(8),                 *
 *  M. LLUNELL(9), M. CAUSA'(10), Y. NOEL(8), L. MASCHIO(1,11), A. ERBA(1,11)  *
 *  M. RE'RAT(14), S. CASASSA(1,11), B.G. SEARLE(2), J.K. DESMARAIS(1)         *
 *                                                                             *
 *        CONTRIBUTIONS TO THE CODE HAVE ALSO BEEN GIVEN BY                    *
 *                                                                             *
 *  M. FERRABONE(1,11), M. DE LA PIERRE(1,11), M. FERRERO(1,11),               *
 *  J. BAIMA(1,11), E. ALBANESE(1,11), M.F. PEINTINGER(12), R. BAST(13),       *
 *  B. KIRTMAN(15), V. LACIVITA(1,11), R. DEMICHELIS(1,16)                     *
 *  G. BRANDEBURG(17), S. SALUSTRO(1,11), G. SANSONE(1,11)                     *
 *  M.T. RUGGIERO(18), L.E. DAGA(1), L. DONA'(1), A. COSSARD(1)                *
 *                                                                             *
 * (1) THEORETICAL CHEMISTRY GROUP - UNIVERSITA' DI TORINO - TORINO (ITALY)    *
 * (2) SCIENTIFIC COMPUTING DEPARTMENT - STFC DARESBURY (UK)                   *
 * (3) UNIVERSIDAD AUTONOMA DEL ESTADO DE MORELOS - CUERNAVACA (MEXICO)        *
 * (4) UNIVERSITE' DE LORRAINE - NANCY (FRANCE)                                *
 * (5) UNIVERSITAET STUTTGART- STUTTGART (GERMANY)                             *
 * (6) IMPERIAL COLLEGE - LONDON (UK)                                          *
 * (7) SCIENTIFIC COMPUTING DEPARTMENT - STFC RAL (UK)                         *
 * (8) UPMC - SORBONNE UNIVERSITES - PARIS (FRANCE)                            *
 * (9) UNIVERSIDAD DE BARCELONA - BARCELONA (SPAIN)                            *
 *(10) UNIVERSITA' DI NAPOLI "FEDERICO II" - NAPOLI (ITALY)                    *
 *(11) NIS - NANOSTRUCTURED INTERFACES AND SURFACES - TORINO (ITALY)           *
 *(12) MPI FUER CHEMISCHE ENERGIEKONVERSION - MUELHEIM AN DER RUHR (GERMANY)   *
 *(13) UNIVERSITY OF TROMSO - TROMSO (NORWAY)                                  *
 *(14) UNIVERSITE' DE PAU ET DES PAYS DE L'ADOUR - PAU (FRANCE)                *
 *(15) UNIVERSITY OF CALIFORNIA SANTA BARBARA - SANTA BARBARA (USA)            *
 *(16) CURTIN UNIVERSITY - PERTH (AUSTRALIA)                                   *
 *(17) UNIVERSITY COLLEGE LONDON - LONDON (UK)                                 *
 *(18) UNIVERSITY OF VERMONT - BURLINGTON (USA)                                *
 *                                                                             *
 *******************************************************************************
 EEEEEEEEEE STARTING  DATE 19 02 2026 TIME 19:48:55.7
 cof-1_z32_L030_serr                                                             

 CRYSTAL CALCULATION
 (INPUT ACCORDING TO THE INTERNATIONAL TABLES FOR X-RAY CRYSTALLOGRAPHY)
 CRYSTAL FAMILY                       :  TRICLINIC   
 CRYSTAL CLASS  (GROTH - 1921)        :  TRICLINIC PEDIAL                     

 SPACE GROUP (NONCENTROSYMMETRIC)     :  P 1             

 LATTICE PARAMETERS  (ANGSTROMS AND DEGREES) - CONVENTIONAL CELL
        A           B           C        ALPHA        BETA       GAMMA
    15.02361    15.02392     6.40000    90.00032    89.99994   119.99596


 NUMBER OF IRREDUCIBLE ATOMS IN THE CONVENTIONAL CELL:   84

 INPUT COORDINATES

 ATOM AT. N.              COORDINATES
   1   5     6.136805400000E-01  2.273182200000E-01  2.507463700000E-01
   2   5     7.289503700000E-01  4.578813200000E-01  7.507463700000E-01
   3   5     7.727362000000E-01  3.863778800000E-01  2.507463800000E-01
   4   5     8.880060300000E-01  6.169409800000E-01  7.507463800000E-01
   5   5     6.136762700000E-01  3.863606700000E-01  2.491771200000E-01
   6   5     7.289461000000E-01  6.169237700000E-01  7.491771300000E-01
   7   5     2.272552500000E-01  6.136332200000E-01  2.507463700000E-01
   8   5     3.425250800000E-01  8.441963200000E-01  7.507463700000E-01
   9   5     3.863632200000E-01  6.136124500000E-01  2.507463700000E-01
  10   5     5.016330500000E-01  8.441755500000E-01  7.507463700000E-01
  11   5     3.863435000000E-01  7.727516500000E-01  2.491771300000E-01
  12   5     5.016133300000E-01  3.314750000000E-03  7.491771200000E-01
  13   1     9.030436200000E-01  3.089300500000E-01  2.474930100000E-01
  14   1     1.831345000000E-02  5.394931500000E-01  7.474930000000E-01
  15   1     9.663453000000E-02  6.910534400000E-01  2.469955100000E-01
  16   1     2.119043600000E-01  9.216165400000E-01  7.469955100000E-01
  17   1     9.029714200000E-01  5.940724300000E-01  2.469189400000E-01
  18   1     1.824125000000E-02  8.246355300000E-01  7.469189400000E-01
  19   1     9.673618000000E-02  4.056849400000E-01  2.469380400000E-01
  20   1     2.120060100000E-01  6.362480400000E-01  7.469380400000E-01
  21   1     6.910324000000E-01  9.700412000000E-02  2.525070200000E-01
  22   1     8.063022300000E-01  3.275672200000E-01  7.525070200000E-01
  23   1     3.089297200000E-01  9.034373100000E-01  2.530045500000E-01
  24   1     4.241995500000E-01  1.340004100000E-01  7.530045500000E-01
  25   1     4.058699900000E-01  9.704998000000E-02  2.530811600000E-01
  26   1     5.211398200000E-01  3.276130800000E-01  7.530811600000E-01
  27   1     5.943122100000E-01  9.033473200000E-01  2.530619400000E-01
  28   1     7.095820400000E-01  1.339104200000E-01  7.530619400000E-01
  29   1     6.910727400000E-01  5.940542100000E-01  2.474930300000E-01
  30   1     8.063425700000E-01  8.246173100000E-01  7.474930300000E-01
  31   1     3.089618300000E-01  4.056093300000E-01  2.469954700000E-01
  32   1     4.242316600000E-01  6.361724300000E-01  7.469954700000E-01
  33   1     4.058405700000E-01  3.088232500000E-01  2.469188800000E-01
  34   1     5.211104000000E-01  5.393863500000E-01  7.469188800000E-01
  35   1     5.942908800000E-01  6.909579300000E-01  2.469381000000E-01
  36   1     7.095607100000E-01  9.215210300000E-01  7.469381000000E-01
  37   6     8.918903100000E-01  4.459436900000E-01  2.491197000000E-01
  38   6     7.160140000000E-03  6.765067900000E-01  7.491197100000E-01
  39   6     9.464891100000E-01  3.927856300000E-01  2.475695600000E-01
  40   6     6.175894000000E-02  6.233487300000E-01  7.475695700000E-01
  41   6     5.338812000000E-02  6.071853000000E-01  2.474356500000E-01
  42   6     1.686579500000E-01  8.377484000000E-01  7.474356500000E-01
  43   6     9.464521100000E-01  5.536921900000E-01  2.478375300000E-01
  44   6     6.172194000000E-02  7.842552900000E-01  7.478375300000E-01
  45   6     5.342634000000E-02  4.462499700000E-01  2.468040800000E-01
  46   6     1.686961700000E-01  6.768130700000E-01  7.468040800000E-01
  47   6     1.080358900000E-01  5.540356300000E-01  2.478566500000E-01
  48   6     2.233057200000E-01  7.845987300000E-01  7.478566500000E-01
  49   6     5.540394200000E-01  1.081684600000E-01  2.508803400000E-01
  50   6     6.693092500000E-01  3.387315600000E-01  7.508803400000E-01
  51   6     6.071778500000E-01  5.355594000000E-02  2.524304500000E-01
  52   6     7.224476800000E-01  2.841190400000E-01  7.524304500000E-01
  53   6     3.927986700000E-01  9.466631600000E-01  2.525644100000E-01
  54   6     5.080685000000E-01  1.772262600000E-01  7.525644100000E-01
  55   6     4.462875800000E-01  5.360286000000E-02  2.521625500000E-01
  56   6     5.615574100000E-01  2.841659600000E-01  7.521625500000E-01
  57   6     5.537168500000E-01  9.466235600000E-01  2.531959200000E-01
  58   6     6.689866800000E-01  1.771866600000E-01  7.531959200000E-01
  59   6     4.459279100000E-01  8.919920600000E-01  2.521433800000E-01
  60   6     5.611977400000E-01  1.225551600000E-01  7.521433800000E-01
  61   6     5.540448700000E-01  4.458745500000E-01  2.491197000000E-01
  62   6     6.693147000000E-01  6.764376500000E-01  7.491197000000E-01
  63   6     6.072102200000E-01  5.536257800000E-01  2.475696000000E-01
  64   6     7.224800500000E-01  7.841888800000E-01  7.475696000000E-01
  65   6     3.928233700000E-01  4.461720300000E-01  2.474356200000E-01
  66   6     5.080932000000E-01  6.767351300000E-01  7.474356200000E-01
  67   6     4.462872600000E-01  3.926899900000E-01  2.478374900000E-01
  68   6     5.615570900000E-01  6.232530900000E-01  7.478374900000E-01
  69   6     5.537429600000E-01  6.070980000000E-01  2.468041200000E-01
  70   6     6.690127900000E-01  8.376611000000E-01  7.468041200000E-01
  71   6     4.459599800000E-01  5.539582300000E-01  2.478566500000E-01
  72   6     5.612298100000E-01  7.845213300000E-01  7.478566500000E-01
  73   8     5.607366800000E-01  2.803706300000E-01  2.495981300000E-01
  74   8     6.760065100000E-01  5.109337300000E-01  7.495981400000E-01
  75   8     7.196817000000E-01  2.803783300000E-01  2.529088600000E-01
  76   8     8.349515300000E-01  5.109414300000E-01  7.529088700000E-01
  77   8     7.196794200000E-01  4.393234600000E-01  2.479140800000E-01
  78   8     8.349492500000E-01  6.698865600000E-01  7.479140800000E-01
  79   8     2.803245100000E-01  7.196511100000E-01  2.495981500000E-01
  80   8     3.955943400000E-01  9.502142100000E-01  7.495981500000E-01
  81   8     2.803439700000E-01  5.606956100000E-01  2.529088600000E-01
  82   8     3.956138000000E-01  7.912587100000E-01  7.529088700000E-01
  83   8     4.392638400000E-01  7.196354200000E-01  2.479140600000E-01
  84   8     5.545336700000E-01  9.501985200000E-01  7.479140700000E-01

 *******************************************************************************

 << INFORMATION >>: FROM NOW ON, ALL COORDINATES REFER TO THE PRIMITIVE CELL

 *******************************************************************************

 LATTICE PARAMETERS  (ANGSTROMS AND DEGREES) - PRIMITIVE CELL
       A          B          C        ALPHA      BETA     GAMMA        VOLUME
   15.02361   15.02392    6.40000    90.00032  89.99994 119.99596   1251.081907

 COORDINATES OF THE EQUIVALENT ATOMS (FRACTIONAL UNITS)

 N. ATOM EQUIV AT. N.          X                  Y                  Z

   1   1   1    5 B    -3.86319460000E-01  2.27318220000E-01  2.50746370000E-01

   2   2   1    5 B    -2.71049630000E-01  4.57881320000E-01 -2.49253630000E-01

   3   3   1    5 B    -2.27263800000E-01  3.86377880000E-01  2.50746380000E-01

   4   4   1    5 B    -1.11993970000E-01 -3.83059020000E-01 -2.49253620000E-01

   5   5   1    5 B    -3.86323730000E-01  3.86360670000E-01  2.49177120000E-01

   6   6   1    5 B    -2.71053900000E-01 -3.83076230000E-01 -2.50822870000E-01

   7   7   1    5 B     2.27255250000E-01 -3.86366780000E-01  2.50746370000E-01

   8   8   1    5 B     3.42525080000E-01 -1.55803680000E-01 -2.49253630000E-01

   9   9   1    5 B     3.86363220000E-01 -3.86387550000E-01  2.50746370000E-01

  10  10   1    5 B    -4.98366950000E-01 -1.55824450000E-01 -2.49253630000E-01

  11  11   1    5 B     3.86343500000E-01 -2.27248350000E-01  2.49177130000E-01

  12  12   1    5 B    -4.98386670000E-01  3.31475000000E-03 -2.50822880000E-01

  13  13   1    1 H    -9.69563800000E-02  3.08930050000E-01  2.47493010000E-01

  14  14   1    1 H     1.83134500000E-02 -4.60506850000E-01 -2.52507000000E-01

  15  15   1    1 H     9.66345300000E-02 -3.08946560000E-01  2.46995510000E-01

  16  16   1    1 H     2.11904360000E-01 -7.83834600000E-02 -2.53004490000E-01

  17  17   1    1 H    -9.70285800000E-02 -4.05927570000E-01  2.46918940000E-01

  18  18   1    1 H     1.82412500000E-02 -1.75364470000E-01 -2.53081060000E-01

  19  19   1    1 H     9.67361800000E-02  4.05684940000E-01  2.46938040000E-01

  20  20   1    1 H     2.12006010000E-01 -3.63751960000E-01 -2.53061960000E-01

  21  21   1    1 H    -3.08967600000E-01  9.70041200000E-02  2.52507020000E-01

  22  22   1    1 H    -1.93697770000E-01  3.27567220000E-01 -2.47492980000E-01

  23  23   1    1 H     3.08929720000E-01 -9.65626900000E-02  2.53004550000E-01

  24  24   1    1 H     4.24199550000E-01  1.34000410000E-01 -2.46995450000E-01

  25  25   1    1 H     4.05869990000E-01  9.70499800000E-02  2.53081160000E-01

  26  26   1    1 H    -4.78860180000E-01  3.27613080000E-01 -2.46918840000E-01

  27  27   1    1 H    -4.05687790000E-01 -9.66526800000E-02  2.53061940000E-01

  28  28   1    1 H    -2.90417960000E-01  1.33910420000E-01 -2.46938060000E-01

  29  29   1    1 H    -3.08927260000E-01 -4.05945790000E-01  2.47493030000E-01

  30  30   1    1 H    -1.93657430000E-01 -1.75382690000E-01 -2.52506970000E-01

  31  31   1    1 H     3.08961830000E-01  4.05609330000E-01  2.46995470000E-01

  32  32   1    1 H     4.24231660000E-01 -3.63827570000E-01 -2.53004530000E-01

  33  33   1    1 H     4.05840570000E-01  3.08823250000E-01  2.46918880000E-01

  34  34   1    1 H    -4.78889600000E-01 -4.60613650000E-01 -2.53081120000E-01

  35  35   1    1 H    -4.05709120000E-01 -3.09042070000E-01  2.46938100000E-01

  36  36   1    1 H    -2.90439290000E-01 -7.84789700000E-02 -2.53061900000E-01

  37  37   1    6 C    -1.08109690000E-01  4.45943690000E-01  2.49119700000E-01

  38  38   1    6 C     7.16014000000E-03 -3.23493210000E-01 -2.50880290000E-01

  39  39   1    6 C    -5.35108900000E-02  3.92785630000E-01  2.47569560000E-01

  40  40   1    6 C     6.17589400000E-02 -3.76651270000E-01 -2.52430430000E-01

  41  41   1    6 C     5.33881200000E-02 -3.92814700000E-01  2.47435650000E-01

  42  42   1    6 C     1.68657950000E-01 -1.62251600000E-01 -2.52564350000E-01

  43  43   1    6 C    -5.35478900000E-02 -4.46307810000E-01  2.47837530000E-01

  44  44   1    6 C     6.17219400000E-02 -2.15744710000E-01 -2.52162470000E-01

  45  45   1    6 C     5.34263400000E-02  4.46249970000E-01  2.46804080000E-01

  46  46   1    6 C     1.68696170000E-01 -3.23186930000E-01 -2.53195920000E-01

  47  47   1    6 C     1.08035890000E-01 -4.45964370000E-01  2.47856650000E-01

  48  48   1    6 C     2.23305720000E-01 -2.15401270000E-01 -2.52143350000E-01

  49  49   1    6 C    -4.45960580000E-01  1.08168460000E-01  2.50880340000E-01

  50  50   1    6 C    -3.30690750000E-01  3.38731560000E-01 -2.49119660000E-01

  51  51   1    6 C    -3.92822150000E-01  5.35559400000E-02  2.52430450000E-01

  52  52   1    6 C    -2.77552320000E-01  2.84119040000E-01 -2.47569550000E-01

  53  53   1    6 C     3.92798670000E-01 -5.33368400000E-02  2.52564410000E-01

  54  54   1    6 C    -4.91931500000E-01  1.77226260000E-01 -2.47435590000E-01

  55  55   1    6 C     4.46287580000E-01  5.36028600000E-02  2.52162550000E-01

  56  56   1    6 C    -4.38442590000E-01  2.84165960000E-01 -2.47837450000E-01

  57  57   1    6 C    -4.46283150000E-01 -5.33764400000E-02  2.53195920000E-01

  58  58   1    6 C    -3.31013320000E-01  1.77186660000E-01 -2.46804080000E-01

  59  59   1    6 C     4.45927910000E-01 -1.08007940000E-01  2.52143380000E-01

  60  60   1    6 C    -4.38802260000E-01  1.22555160000E-01 -2.47856620000E-01

  61  61   1    6 C    -4.45955130000E-01  4.45874550000E-01  2.49119700000E-01

  62  62   1    6 C    -3.30685300000E-01 -3.23562350000E-01 -2.50880300000E-01

  63  63   1    6 C    -3.92789780000E-01 -4.46374220000E-01  2.47569600000E-01

  64  64   1    6 C    -2.77519950000E-01 -2.15811120000E-01 -2.52430400000E-01

  65  65   1    6 C     3.92823370000E-01  4.46172030000E-01  2.47435620000E-01

  66  66   1    6 C    -4.91906800000E-01 -3.23264870000E-01 -2.52564380000E-01

  67  67   1    6 C     4.46287260000E-01  3.92689990000E-01  2.47837490000E-01

  68  68   1    6 C    -4.38442910000E-01 -3.76746910000E-01 -2.52162510000E-01

  69  69   1    6 C    -4.46257040000E-01 -3.92902000000E-01  2.46804120000E-01

  70  70   1    6 C    -3.30987210000E-01 -1.62338900000E-01 -2.53195880000E-01

  71  71   1    6 C     4.45959980000E-01 -4.46041770000E-01  2.47856650000E-01

  72  72   1    6 C    -4.38770190000E-01 -2.15478670000E-01 -2.52143350000E-01

  73  73   1    8 O    -4.39263320000E-01  2.80370630000E-01  2.49598130000E-01

  74  74   1    8 O    -3.23993490000E-01 -4.89066270000E-01 -2.50401860000E-01

  75  75   1    8 O    -2.80318300000E-01  2.80378330000E-01  2.52908860000E-01

  76  76   1    8 O    -1.65048470000E-01 -4.89058570000E-01 -2.47091130000E-01

  77  77   1    8 O    -2.80320580000E-01  4.39323460000E-01  2.47914080000E-01

  78  78   1    8 O    -1.65050750000E-01 -3.30113440000E-01 -2.52085920000E-01

  79  79   1    8 O     2.80324510000E-01 -2.80348890000E-01  2.49598150000E-01

  80  80   1    8 O     3.95594340000E-01 -4.97857900000E-02 -2.50401850000E-01

  81  81   1    8 O     2.80343970000E-01 -4.39304390000E-01  2.52908860000E-01

  82  82   1    8 O     3.95613800000E-01 -2.08741290000E-01 -2.47091130000E-01

  83  83   1    8 O     4.39263840000E-01 -2.80364580000E-01  2.47914060000E-01

  84  84   1    8 O    -4.45466330000E-01 -4.98014800000E-02 -2.52085930000E-01

 NUMBER OF SYMMETRY OPERATORS         :    1
 *******************************************************************************
 * GEOMETRY EDITING - INPUT COORDINATES ARE GIVEN IN ANGSTROM         
 *******************************************************************************

 GCALCO - MAX INDICES DIRECT LATTICE VECTOR    11    11    24
 NO.OF VECTORS CREATED 6999 STARS 3500 RMAX   241.85967 BOHR

 GEOMETRY FOR WAVE FUNCTION - DIMENSIONALITY OF THE SYSTEM    3
 (NON PERIODIC DIRECTION: LATTICE PARAMETER FORMALLY SET TO 500)
 *******************************************************************************
 LATTICE PARAMETERS (ANGSTROMS AND DEGREES) - BOHR = 0.5291772083 ANGSTROM
 PRIMITIVE CELL - CENTRING CODE 1/0 VOLUME=  1251.081907 - DENSITY  1.036 g/cm^3
         A              B              C           ALPHA      BETA       GAMMA 
    15.02361100    15.02391600     6.40000000    90.000323  89.999944 119.995964
 *******************************************************************************
 ATOMS IN THE ASYMMETRIC UNIT   84 - ATOMS IN THE UNIT CELL:   84
     ATOM                 X/A                 Y/B                 Z/C    
 *******************************************************************************
      1 T   5 B    -3.863194600000E-01  2.273182200000E-01  2.507463700000E-01
      2 T   5 B    -2.710496300000E-01  4.578813200000E-01 -2.492536300000E-01
      3 T   5 B    -2.272638000000E-01  3.863778800000E-01  2.507463800000E-01
      4 T   5 B    -1.119939700000E-01 -3.830590200000E-01 -2.492536200000E-01
      5 T   5 B    -3.863237300000E-01  3.863606700000E-01  2.491771200000E-01
      6 T   5 B    -2.710539000000E-01 -3.830762300000E-01 -2.508228700000E-01
      7 T   5 B     2.272552500000E-01 -3.863667800000E-01  2.507463700000E-01
      8 T   5 B     3.425250800000E-01 -1.558036800000E-01 -2.492536300000E-01
      9 T   5 B     3.863632200000E-01 -3.863875500000E-01  2.507463700000E-01
     10 T   5 B    -4.983669500000E-01 -1.558244500000E-01 -2.492536300000E-01
     11 T   5 B     3.863435000000E-01 -2.272483500000E-01  2.491771300000E-01
     12 T   5 B    -4.983866700000E-01  3.314750000000E-03 -2.508228800000E-01
     13 T   1 H    -9.695638000000E-02  3.089300500000E-01  2.474930100000E-01
     14 T   1 H     1.831345000000E-02 -4.605068500000E-01 -2.525070000000E-01
     15 T   1 H     9.663453000000E-02 -3.089465600000E-01  2.469955100000E-01
     16 T   1 H     2.119043600000E-01 -7.838346000000E-02 -2.530044900000E-01
     17 T   1 H    -9.702858000000E-02 -4.059275700000E-01  2.469189400000E-01
     18 T   1 H     1.824125000000E-02 -1.753644700000E-01 -2.530810600000E-01
     19 T   1 H     9.673618000000E-02  4.056849400000E-01  2.469380400000E-01
     20 T   1 H     2.120060100000E-01 -3.637519600000E-01 -2.530619600000E-01
     21 T   1 H    -3.089676000000E-01  9.700412000000E-02  2.525070200000E-01
     22 T   1 H    -1.936977700000E-01  3.275672200000E-01 -2.474929800000E-01
     23 T   1 H     3.089297200000E-01 -9.656269000000E-02  2.530045500000E-01
     24 T   1 H     4.241995500000E-01  1.340004100000E-01 -2.469954500000E-01
     25 T   1 H     4.058699900000E-01  9.704998000000E-02  2.530811600000E-01
     26 T   1 H    -4.788601800000E-01  3.276130800000E-01 -2.469188400000E-01
     27 T   1 H    -4.056877900000E-01 -9.665268000000E-02  2.530619400000E-01
     28 T   1 H    -2.904179600000E-01  1.339104200000E-01 -2.469380600000E-01
     29 T   1 H    -3.089272600000E-01 -4.059457900000E-01  2.474930300000E-01
     30 T   1 H    -1.936574300000E-01 -1.753826900000E-01 -2.525069700000E-01
     31 T   1 H     3.089618300000E-01  4.056093300000E-01  2.469954700000E-01
     32 T   1 H     4.242316600000E-01 -3.638275700000E-01 -2.530045300000E-01
     33 T   1 H     4.058405700000E-01  3.088232500000E-01  2.469188800000E-01
     34 T   1 H    -4.788896000000E-01 -4.606136500000E-01 -2.530811200000E-01
     35 T   1 H    -4.057091200000E-01 -3.090420700000E-01  2.469381000000E-01
     36 T   1 H    -2.904392900000E-01 -7.847897000000E-02 -2.530619000000E-01
     37 T   6 C    -1.081096900000E-01  4.459436900000E-01  2.491197000000E-01
     38 T   6 C     7.160140000000E-03 -3.234932100000E-01 -2.508802900000E-01
     39 T   6 C    -5.351089000000E-02  3.927856300000E-01  2.475695600000E-01
     40 T   6 C     6.175894000000E-02 -3.766512700000E-01 -2.524304300000E-01
     41 T   6 C     5.338812000000E-02 -3.928147000000E-01  2.474356500000E-01
     42 T   6 C     1.686579500000E-01 -1.622516000000E-01 -2.525643500000E-01
     43 T   6 C    -5.354789000000E-02 -4.463078100000E-01  2.478375300000E-01
     44 T   6 C     6.172194000000E-02 -2.157447100000E-01 -2.521624700000E-01
     45 T   6 C     5.342634000000E-02  4.462499700000E-01  2.468040800000E-01
     46 T   6 C     1.686961700000E-01 -3.231869300000E-01 -2.531959200000E-01
     47 T   6 C     1.080358900000E-01 -4.459643700000E-01  2.478566500000E-01
     48 T   6 C     2.233057200000E-01 -2.154012700000E-01 -2.521433500000E-01
     49 T   6 C    -4.459605800000E-01  1.081684600000E-01  2.508803400000E-01
     50 T   6 C    -3.306907500000E-01  3.387315600000E-01 -2.491196600000E-01
     51 T   6 C    -3.928221500000E-01  5.355594000000E-02  2.524304500000E-01
     52 T   6 C    -2.775523200000E-01  2.841190400000E-01 -2.475695500000E-01
     53 T   6 C     3.927986700000E-01 -5.333684000000E-02  2.525644100000E-01
     54 T   6 C    -4.919315000000E-01  1.772262600000E-01 -2.474355900000E-01
     55 T   6 C     4.462875800000E-01  5.360286000000E-02  2.521625500000E-01
     56 T   6 C    -4.384425900000E-01  2.841659600000E-01 -2.478374500000E-01
     57 T   6 C    -4.462831500000E-01 -5.337644000000E-02  2.531959200000E-01
     58 T   6 C    -3.310133200000E-01  1.771866600000E-01 -2.468040800000E-01
     59 T   6 C     4.459279100000E-01 -1.080079400000E-01  2.521433800000E-01
     60 T   6 C    -4.388022600000E-01  1.225551600000E-01 -2.478566200000E-01
     61 T   6 C    -4.459551300000E-01  4.458745500000E-01  2.491197000000E-01
     62 T   6 C    -3.306853000000E-01 -3.235623500000E-01 -2.508803000000E-01
     63 T   6 C    -3.927897800000E-01 -4.463742200000E-01  2.475696000000E-01
     64 T   6 C    -2.775199500000E-01 -2.158111200000E-01 -2.524304000000E-01
     65 T   6 C     3.928233700000E-01  4.461720300000E-01  2.474356200000E-01
     66 T   6 C    -4.919068000000E-01 -3.232648700000E-01 -2.525643800000E-01
     67 T   6 C     4.462872600000E-01  3.926899900000E-01  2.478374900000E-01
     68 T   6 C    -4.384429100000E-01 -3.767469100000E-01 -2.521625100000E-01
     69 T   6 C    -4.462570400000E-01 -3.929020000000E-01  2.468041200000E-01
     70 T   6 C    -3.309872100000E-01 -1.623389000000E-01 -2.531958800000E-01
     71 T   6 C     4.459599800000E-01 -4.460417700000E-01  2.478566500000E-01
     72 T   6 C    -4.387701900000E-01 -2.154786700000E-01 -2.521433500000E-01
     73 T   8 O    -4.392633200000E-01  2.803706300000E-01  2.495981300000E-01
     74 T   8 O    -3.239934900000E-01 -4.890662700000E-01 -2.504018600000E-01
     75 T   8 O    -2.803183000000E-01  2.803783300000E-01  2.529088600000E-01
     76 T   8 O    -1.650484700000E-01 -4.890585700000E-01 -2.470911300000E-01
     77 T   8 O    -2.803205800000E-01  4.393234600000E-01  2.479140800000E-01
     78 T   8 O    -1.650507500000E-01 -3.301134400000E-01 -2.520859200000E-01
     79 T   8 O     2.803245100000E-01 -2.803488900000E-01  2.495981500000E-01
     80 T   8 O     3.955943400000E-01 -4.978579000000E-02 -2.504018500000E-01
     81 T   8 O     2.803439700000E-01 -4.393043900000E-01  2.529088600000E-01
     82 T   8 O     3.956138000000E-01 -2.087412900000E-01 -2.470911300000E-01
     83 T   8 O     4.392638400000E-01 -2.803645800000E-01  2.479140600000E-01
     84 T   8 O    -4.454663300000E-01 -4.980148000000E-02 -2.520859300000E-01

 T = ATOM BELONGING TO THE ASYMMETRIC UNIT

 ****    1 SYMMOPS - TRANSLATORS IN FRACTIONAL UNITS
 **** MATRICES AND TRANSLATORS IN THE CRYSTALLOGRAPHIC REFERENCE FRAME
   V INV                    ROTATION MATRICES                   TRANSLATORS
   1   1  1.00 -0.00  0.00  0.00  1.00  0.00  0.00  0.00  1.00  0.00  0.00  0.00

 DIRECT LATTICE VECTORS CARTESIAN COMPONENTS (ANGSTROM)
          X                    Y                    Z
   0.130113578931E+02  -0.751088897922E+01   0.000000000000E+00
   0.000000000000E+00   0.150239160000E+02   0.000000000000E+00
  -0.136044311046E-04  -0.360794462958E-04   0.639999999988E+01


 CARTESIAN COORDINATES - PRIMITIVE CELL
 *******************************************************************************
 *      ATOM          X(ANGSTROM)         Y(ANGSTROM)         Z(ANGSTROM)
 *******************************************************************************
    1     5 B    -5.026544166374E+00  6.316803370330E+00  1.604776767971E+00
    2     5 B    -3.526720351757E+00 -6.108912838630E+00 -1.595223231971E+00
    3     5 B    -2.957014049198E+00  7.511852937382E+00  1.604776831971E+00
    4     5 B    -1.457190234581E+00 -4.913863271578E+00 -1.595223167971E+00
    5     5 B    -5.026599703524E+00 -6.317640092322E+00  1.594733567971E+00
    6     5 B    -3.526775888906E+00 -3.719440301283E+00 -1.605266367971E+00
    7     5 B     2.956895979564E+00 -7.511640047395E+00  1.604776767971E+00
    8     5 B     4.456719794182E+00 -4.913440256355E+00 -1.595223231971E+00
    9     5 B     5.027106720872E+00  6.316921607491E+00  1.604776767971E+00
   10     5 B    -6.484427357567E+00  1.402094377747E+00 -1.595223231971E+00
   11     5 B     5.026850158243E+00 -6.315952248053E+00  1.594733631971E+00
   12     5 B     6.526673972860E+00 -3.717752457013E+00 -1.605266431971E+00
   13     1 H    -1.261537527197E+00  5.369558797672E+00  1.583955263971E+00
   14     1 H     2.382862874207E-01 -7.056157411288E+00 -1.616044799971E+00
   15     1 H     1.257343094424E+00 -5.367407303779E+00  1.580771263971E+00
   16     1 H     2.757166909041E+00 -2.769207512739E+00 -1.619228735971E+00
   17     1 H    -1.262476939427E+00 -5.369859730272E+00  1.580281215971E+00
   18     1 H     2.373468751906E-01 -2.771659939232E+00 -1.619718783971E+00
   19     1 H     1.258665699736E+00  5.368392843384E+00  1.580403455971E+00
   20     1 H     2.758489514353E+00 -7.057323365577E+00 -1.619596543971E+00
   21     1 H    -4.020091456173E+00  3.777993981995E+00  1.616044927971E+00
   22     1 H    -2.520267641556E+00  6.376193773035E+00 -1.583955071971E+00
   23     1 H     4.019591708739E+00 -3.771095700859E+00  1.619229119971E+00
   24     1 H     5.519415523356E+00 -1.172895909819E+00 -1.580770879971E+00
   25     1 H     5.280916254916E+00 -1.590382818592E+00  1.619719423971E+00
   26     1 H     6.780740069533E+00  1.007816972447E+00 -1.580280575971E+00
   27     1 H    -5.278552471297E+00  1.594965075084E+00  1.619596415971E+00
   28     1 H    -3.778728656680E+00  4.193164866124E+00 -1.580403583971E+00
   29     1 H    -4.019566509783E+00 -3.778586026412E+00  1.583955391971E+00
   30     1 H    -2.519742695166E+00 -1.180386235372E+00 -1.616044607971E+00
   31     1 H     4.020009585191E+00  3.773253587331E+00  1.580771007971E+00
   32     1 H    -7.491524493248E+00 -1.141573642413E+00 -1.619228991971E+00
   33     1 H     5.280533544601E+00  1.591502193619E+00  1.580280831971E+00
   34     1 H    -6.231000533838E+00 -3.323325036125E+00 -1.619719167971E+00
   35     1 H    -5.278829920249E+00 -1.595794851360E+00  1.580403839971E+00
   36     1 H    -3.779006105632E+00  1.002404939679E+00 -1.619596159971E+00
   37     6 C    -1.406657257429E+00  7.511811430357E+00  1.594366079971E+00
   38     6 C     9.316655718801E-02 -4.913904778604E+00 -1.605633855971E+00
   39     6 C    -6.962527090090E-01  6.303083732924E+00  1.584445183971E+00
   40     6 C     8.035711056082E-01 -6.122632476037E+00 -1.615554751971E+00
   41     6 C     6.946485703362E-01 -6.302616225836E+00  1.583588159971E+00
   42     6 C     2.194472384954E+00 -3.704416434796E+00 -1.616411839971E+00
   43     6 C    -6.967341328966E-01 -6.303107732564E+00  1.586160191971E+00
   44     6 C     8.030896817207E-01 -3.704907941524E+00 -1.613839807971E+00
   45     6 C     6.951458730270E-01  6.303133851422E+00  1.579546111971E+00
   46     6 C     2.194969687644E+00 -6.122582357538E+00 -1.620453887971E+00
   47     6 C     1.405690258136E+00 -7.511585751964E+00  1.586282559971E+00
   48     6 C     2.905514072754E+00 -4.913385960925E+00 -1.613717439971E+00
   49     6 C     7.208801767397E+00 -2.536223768464E+00  1.605634175971E+00
   50     6 C    -4.302732311042E+00 -7.451050998208E+00 -1.594365823971E+00
   51     6 C    -5.111153016143E+00  3.755054393537E+00  1.615554879971E+00
   52     6 C    -3.611329201525E+00  6.353254184577E+00 -1.584445119971E+00
   53     6 C     5.110840639292E+00 -3.751604517803E+00  1.616412223971E+00
   54     6 C     6.610664453909E+00 -1.153404726764E+00 -1.583587775971E+00
   55     6 C     5.806803996078E+00 -2.546700698069E+00  1.613840319971E+00
   56     6 C     7.306627810695E+00  5.149909297099E-02 -1.586159679971E+00
   57     6 C    -5.806753230877E+00  2.550050906837E+00  1.620453887971E+00
   58     6 C    -4.306929416260E+00  5.148250697877E+00 -1.579546111971E+00
   59     6 C     5.802124201245E+00 -4.972026339831E+00  1.613717631971E+00
   60     6 C     7.301948015863E+00 -2.373826548791E+00 -1.586282367971E+00
   61     6 C     7.208872703250E+00  2.537403289563E+00  1.594366079971E+00
   62     6 C    -4.302661375189E+00 -2.377423940181E+00 -1.605633919971E+00
   63     6 C    -5.110731772359E+00 -3.756097288269E+00  1.584445439971E+00
   64     6 C    -3.610907957741E+00 -1.157897497229E+00 -1.615554559971E+00
   65     6 C     5.111162089606E+00  3.752789452418E+00  1.583587967971E+00
   66     6 C    -6.400371988833E+00 -1.162037777326E+00 -1.616412031971E+00
   67     6 C     5.806799891284E+00  2.547718419263E+00  1.586159935971E+00
   68     6 C    -5.704734187156E+00 -2.367108810481E+00 -1.613840063971E+00
   69     6 C    -5.806413417366E+00 -2.551148465154E+00  1.579546367971E+00
   70     6 C    -4.306589602748E+00  4.705132588536E-02 -1.620453631971E+00
   71     6 C     5.802541533812E+00  4.973057073544E+00  1.586282559971E+00
   72     6 C    -5.708992544628E+00  5.822984380045E-02 -1.613717439971E+00
   73     8 O     7.295942231604E+00  6.248385703281E-04  1.597428031971E+00
   74     8 O    -4.215591846836E+00 -4.914202391174E+00 -1.602571903971E+00
   75     8 O    -3.647325165954E+00  6.317810983471E+00  1.618616703971E+00
   76     8 O    -2.147501351337E+00 -6.107905225489E+00 -1.581383231971E+00
   77     8 O    -3.647354763899E+00 -6.318109429764E+00  1.586650111971E+00
   78     8 O    -2.147530949282E+00 -3.719909638724E+00 -1.613349887971E+00
   79     8 O     3.647399130165E+00 -6.317433452180E+00  1.597428159971E+00
   80     8 O     5.147222944782E+00 -3.719233661140E+00 -1.602571839971E+00
   81     8 O     3.647652286149E+00  6.318202186734E+00  1.618616703971E+00
   82     8 O     5.147476100766E+00 -6.107514022226E+00 -1.581383231971E+00
   83     8 O    -7.295942234068E+00 -5.557995051377E-04  1.586649983971E+00
   84     8 O    -5.796118419451E+00  2.597643991534E+00 -1.613349951971E+00

 *******************************************************************************
 STARTING BASIS SET HANDLING 
 *******************************************************************************

 Loading internal basis set: SOLDEF2MSVP         

 Please cite in your publication:
 L. Dona', J. G. Brandenburg and B. Civalleri, J. Chem. Phys., 151, 121101 (2019
 )                                                                              
                                                                                
                    

 *******************************************************************************
 LOCAL ATOMIC FUNCTIONS BASIS SET
 *******************************************************************************
   ATOM   X(AU)   Y(AU)   Z(AU)  N. TYPE  EXPONENT  S COEF   P COEF   D/F/G COEF
 *******************************************************************************
   1 B   -9.499  11.937   3.033
                                  1 S  
                                         2.410E+03 1.755E-03 0.000E+00 0.000E+00
                                         3.619E+02 1.344E-02 0.000E+00 0.000E+00
                                         8.231E+01 6.637E-02 0.000E+00 0.000E+00
                                         2.311E+01 2.303E-01 0.000E+00 0.000E+00
                                         7.252E+00 5.150E-01 0.000E+00 0.000E+00
                                  2 S  
                                         2.367E+00 1.000E+00 0.000E+00 0.000E+00
                                  3 S  
                                         5.533E-01 1.000E+00 0.000E+00 0.000E+00
                                  4 S  
                                         1.716E-01 1.000E+00 0.000E+00 0.000E+00
                           5-     7 P  
                                         6.002E+00 0.000E+00-3.555E-02 0.000E+00
                                         1.240E+00 0.000E+00-1.983E-01 0.000E+00
                                         3.367E-01 0.000E+00-5.048E-01 0.000E+00
                           8-    10 P  
                                         1.256E-01 0.000E+00 1.000E+00 0.000E+00
                          11-    15 D  
                                         8.880E-01 0.000E+00 0.000E+00 1.000E+00
   2 B   -6.665 -11.544  -3.015
   3 B   -5.588  14.195   3.033
   4 B   -2.754  -9.286  -3.015
   5 B   -9.499 -11.939   3.014
   6 B   -6.665  -7.029  -3.034
   7 B    5.588 -14.195   3.033
   8 B    8.422  -9.285  -3.015
   9 B    9.500  11.937   3.033
  10 B  -12.254   2.650  -3.015
  11 B    9.499 -11.935   3.014
  12 B   12.334  -7.026  -3.034
  13 H   -2.384  10.147   2.993
                                181 S  
                                         1.874E+01 1.968E-02 0.000E+00 0.000E+00
                                         2.826E+00 1.380E-01 0.000E+00 0.000E+00
                                         6.401E-01 4.783E-01 0.000E+00 0.000E+00
                                182 S  
                                         1.756E-01 1.000E+00 0.000E+00 0.000E+00
  14 H    0.450 -13.334  -3.054
  15 H    2.376 -10.143   2.987
  16 H    5.210  -5.233  -3.060
  17 H   -2.386 -10.148   2.986
  18 H    0.449  -5.238  -3.061
  19 H    2.379  10.145   2.987
  20 H    5.213 -13.336  -3.061
  21 H   -7.597   7.139   3.054
  22 H   -4.763  12.049  -2.993
  23 H    7.596  -7.126   3.060
  24 H   10.430  -2.216  -2.987
  25 H    9.979  -3.005   3.061
  26 H   12.814   1.904  -2.986
  27 H   -9.975   3.014   3.061
  28 H   -7.141   7.924  -2.987
  29 H   -7.596  -7.140   2.993
  30 H   -4.762  -2.231  -3.054
  31 H    7.597   7.130   2.987
  32 H  -14.157  -2.157  -3.060
  33 H    9.979   3.008   2.986
  34 H  -11.775  -6.280  -3.061
  35 H   -9.976  -3.016   2.987
  36 H   -7.141   1.894  -3.061
  37 C   -2.658  14.195   3.013
                                229 S  
                                         3.624E+03 1.634E-03 0.000E+00 0.000E+00
                                         5.440E+02 1.252E-02 0.000E+00 0.000E+00
                                         1.237E+02 6.211E-02 0.000E+00 0.000E+00
                                         3.476E+01 2.182E-01 0.000E+00 0.000E+00
                                         1.093E+01 4.980E-01 0.000E+00 0.000E+00
                                230 S  
                                         3.574E+00 1.000E+00 0.000E+00 0.000E+00
                                231 S  
                                         7.742E-01 1.000E+00 0.000E+00 0.000E+00
                                232 S  
                                         2.330E-01 1.000E+00 0.000E+00 0.000E+00
                         233-   235 P  
                                         9.443E+00 0.000E+00 3.790E-02 0.000E+00
                                         2.002E+00 0.000E+00 2.082E-01 0.000E+00
                                         5.463E-01 0.000E+00 5.047E-01 0.000E+00
                         236-   238 P  
                                         1.820E-01 0.000E+00 1.000E+00 0.000E+00
                         239-   243 D  
                                         8.880E-01 0.000E+00 0.000E+00 1.000E+00
  38 C    0.176  -9.286  -3.034
  39 C   -1.316  11.911   2.994
  40 C    1.519 -11.570  -3.053
  41 C    1.313 -11.910   2.993
  42 C    4.147  -7.000  -3.055
  43 C   -1.317 -11.911   2.997
  44 C    1.518  -7.001  -3.050
  45 C    1.314  11.911   2.985
  46 C    4.148 -11.570  -3.062
  47 C    2.656 -14.195   2.998
  48 C    5.491  -9.285  -3.049
  49 C   13.623  -4.793   3.034
  50 C   -8.131 -14.080  -3.013
  51 C   -9.659   7.096   3.053
  52 C   -6.824  12.006  -2.994
  53 C    9.658  -7.090   3.055
  54 C   12.492  -2.180  -2.993
  55 C   10.973  -4.813   3.050
  56 C   13.808   0.097  -2.997
  57 C  -10.973   4.819   3.062
  58 C   -8.139   9.729  -2.985
  59 C   10.964  -9.396   3.049
  60 C   13.799  -4.486  -2.998
  61 C   13.623   4.795   3.013
  62 C   -8.131  -4.493  -3.034
  63 C   -9.658  -7.098   2.994
  64 C   -6.824  -2.188  -3.053
  65 C    9.659   7.092   2.993
  66 C  -12.095  -2.196  -3.055
  67 C   10.973   4.814   2.997
  68 C  -10.780  -4.473  -3.050
  69 C  -10.973  -4.821   2.985
  70 C   -8.138   0.089  -3.062
  71 C   10.965   9.398   2.998
  72 C  -10.788   0.110  -3.049
  73 O   13.787   0.001   3.019
                                769 S  
                                         6.773E+03 1.727E-03 0.000E+00 0.000E+00
                                         1.017E+03 1.325E-02 0.000E+00 0.000E+00
                                         2.313E+02 6.603E-02 0.000E+00 0.000E+00
                                         6.501E+01 2.353E-01 0.000E+00 0.000E+00
                                         2.050E+01 5.498E-01 0.000E+00 0.000E+00
                                770 S  
                                         6.716E+00 1.000E+00 0.000E+00 0.000E+00
                                771 S  
                                         1.147E+00 1.000E+00 0.000E+00 0.000E+00
                                772 S  
                                         3.342E-01 1.000E+00 0.000E+00 0.000E+00
                         773-   775 P  
                                         1.769E+01 0.000E+00 4.359E-02 0.000E+00
                                         3.854E+00 0.000E+00 2.318E-01 0.000E+00
                                         1.047E+00 0.000E+00 5.146E-01 0.000E+00
                         776-   778 P  
                                         2.759E-01 0.000E+00 1.000E+00 0.000E+00
                         779-   783 D  
                                         8.000E-01 0.000E+00 0.000E+00 1.000E+00
  74 O   -7.966  -9.286  -3.028
  75 O   -6.892  11.939   3.059
  76 O   -4.058 -11.542  -2.988
  77 O   -6.893 -11.939   2.998
  78 O   -4.058  -7.030  -3.049
  79 O    6.893 -11.938   3.019
  80 O    9.727  -7.028  -3.028
  81 O    6.893  11.940   3.059
  82 O    9.727 -11.542  -2.988
  83 O  -13.787  -0.001   2.998
  84 O  -10.953   4.909  -3.049

 *******************************************************************************
 FINISHED BASIS SET HANDLING 
 *******************************************************************************

 INFORMATION **** SET_MPP **** PCRYSTAL CALCULATION
 INFORMATION **** READM2 **** NEW DEFAULT: FOCK/KS MATRIX MIXING SET TO 30 %
 INFORMATION **** READM2 **** NEW DEFAULT: FULL DIRECT SCF MODE
 INFORMATION **** READM2 **** NEW DEFAULT: COULOMB BIPOLAR BUFFER SET TO 32 Mb
 INFORMATION **** READM2 **** NEW DEFAULT: EXCHANGE BIPOLAR BUFFER SET TO 32 Mb

 *******************************************************************************
 NEW DEFAULT: DFT INTEGRATION GRID INCREASED TO XLGRID
 NEW DEFAULT: DIIS ACCELERATOR ACTIVE
 USE KEYWORD NODIIS TO TURN IT OFF
 *******************************************************************************

 WARNING **** RDDFTP **** HSEsol-HJS ACTIVE
 RANGE SEPARATION - OMEGA:   0.110000000000000     
 WARNING **** RDDFTP **** HSEsol-3c has to be combined with sol-def2-mSVP basis set
 *******************************************************************************
 N. OF ATOMS PER CELL        84  COULOMB OVERLAP TOL         (T1) 10**   -6
 NUMBER OF SHELLS           468  COULOMB PENETRATION TOL     (T2) 10**   -6
 NUMBER OF AO               948  EXCHANGE OVERLAP TOL        (T3) 10**   -6
 N. OF ELECTRONS PER CELL   396  EXCHANGE PSEUDO OVP (F(G))  (T4) 10**   -6
 CORE ELECTRONS PER CELL    120  EXCHANGE PSEUDO OVP (P(G))  (T5) 10**  -12
 N. OF SYMMETRY OPERATORS     1  POLE ORDER IN MONO ZONE                  4
 *******************************************************************************
 TYPE OF CALCULATION :  RESTRICTED CLOSED SHELL
 KOHN-SHAM HAMILTONIAN

 (EXCHANGE)[CORRELATION] FUNCTIONAL:(HSEsol GGA)[PBEsol]

 RANGE-SEPARATED HYBRID FUNCTIONAL 
 OMEGA (SHORT-RANGE)[LONG-RANGE]:(    0.1100)[    0.0000]

 HYBRID EXCHANGE - PERCENTAGE OF FOCK EXCHANGE    25.0000

 CAPPA:IS1  2;IS2  2;IS3  8; K PTS MONK NET  20; SYMMOPS:K SPACE   2;G SPACE   1

 *******************************************************************************
 MAX NUMBER OF SCF CYCLES      50  CONVERGENCE ON DELTAP        10**-16
 WEIGHT OF F(I) IN F(I+1)      30% CONVERGENCE ON ENERGY        10**- 6
 SHRINK. FACT.(MONKH.)    2  2  8  NUMBER OF K POINTS IN THE IBZ     20
 SHRINKING FACTOR(GILAT NET)    8  NUMBER OF K POINTS(GILAT NET)   1028
 *******************************************************************************
 *** K POINTS COORDINATES (OBLIQUE COORDINATES IN UNITS OF IS =  2)
   1-R(  0  0  0)   2-R(  1  0  0)   3-R(  0  1  0)   4-R(  1  1  0)
   5-C(  0  0  1)   6-C(  1  0  1)   7-C(  0  1  1)   8-C(  1  1  1)
   9-C(  0  0  2)  10-C(  1  0  2)  11-C(  0  1  2)  12-C(  1  1  2)
  13-C(  0  0  3)  14-C(  1  0  3)  15-C(  0  1  3)  16-C(  1  1  3)
  17-R(  0  0  4)  18-R(  1  0  4)  19-R(  0  1  4)  20-R(  1  1  4)

 DIRECT LATTICE VECTORS COMPON. (A.U.)     RECIP. LATTICE VECTORS COMPON. (A.U.) 
        X            Y            Z              X            Y            Z
   24.5879030  -14.1935232    0.0000000      0.2555397    0.0000000    0.0000005
    0.0000000   28.3910867    0.0000000      0.1277517    0.2213084    0.0000015
   -0.0000257   -0.0000682   12.0942473      0.0000000    0.0000000    0.5195185

 DISK SPACE FOR EIGENVECTORS (FTN 10)    28758528 REALS

 SYMMETRY ADAPTION OF THE BLOCH FUNCTIONS DISABLED
 TTTTTTTTTTTTTTTTTTTTTTTTTTTTTT gordsh1     TELAPSE        0.05 TCPU        0.05

 MATRIX SIZE: P(G)  829650, F(G)  161419, P(G) IRR  416991, F(G) IRR  162667
 MAX G-VECTOR INDEX FOR 1- AND 2-ELECTRON INTEGRALS  67

 TTTTTTTTTTTTTTTTTTTTTTTTTTTTTT INPUT       TELAPSE        3.01 TCPU        3.00

 NEIGHBORS OF THE NON-EQUIVALENT ATOMS

 N = NUMBER OF NEIGHBORS AT DISTANCE R
    ATOM  N     R/ANG      R/AU   NEIGHBORS (ATOM LABELS AND CELL INDICES)
   1 B    1     1.3791     2.6061   73 O   -1 0 0
   1 B    1     1.3793     2.6065   75 O    0 0 0
   1 B    1     1.5503     2.9297   49 C   -1 0 0
   1 B    1     2.3895     4.5155    5 B    0 1 0
   1 B    1     2.3898     4.5160    3 B    0 0 0
   1 B    1     2.5632     4.8437   51 C    0 0 0

   2 B    1     1.3791     2.6061   74 O    0 0 0
   2 B    1     1.3793     2.6065   76 O    0 0 0
   2 B    1     1.5503     2.9297   50 C    0 0 0
   2 B    1     2.3895     4.5155    6 B    0 0 0
   2 B    1     2.3898     4.5160    4 B    0 0 0
   2 B    1     2.5632     4.8437   52 C    0-1 0

   3 B    1     1.3793     2.6065   77 O    0 1 0
   3 B    1     1.3793     2.6065   75 O    0 0 0
   3 B    1     1.5504     2.9298   37 C    0 0 0
   3 B    1     2.3895     4.5156    5 B    0 1 0
   3 B    1     2.3898     4.5160    1 B    0 0 0
   3 B    1     2.5634     4.8440   43 C    0 1 0

   4 B    1     1.3793     2.6065   78 O    0 0 0
   4 B    1     1.3793     2.6065   76 O    0 0 0
   4 B    1     1.5504     2.9298   38 C    0 0 0
   4 B    1     2.3895     4.5156    6 B    0 0 0
   4 B    1     2.3898     4.5160    2 B    0 0 0
   4 B    1     2.5634     4.8440   44 C    0 0 0

   5 B    1     1.3791     2.6061   73 O   -1-1 0
   5 B    1     1.3793     2.6064   77 O    0 0 0
   5 B    1     1.5502     2.9294   61 C   -1-1 0
   5 B    1     2.3895     4.5155    1 B    0-1 0
   5 B    1     2.3895     4.5156    3 B    0-1 0
   5 B    1     2.5629     4.8433   63 C    0 0 0

   6 B    1     1.3791     2.6061   74 O    0 0 0
   6 B    1     1.3793     2.6064   78 O    0 0 0
   6 B    1     1.5502     2.9294   62 C    0 0 0
   6 B    1     2.3895     4.5155    2 B    0 0 0
   6 B    1     2.3895     4.5156    4 B    0 0 0
   6 B    1     2.5629     4.8433   64 C    0 0 0

   7 B    1     1.3795     2.6068   79 O    0 0 0
   7 B    1     1.3795     2.6070   81 O    0-1 0
   7 B    1     1.5513     2.9316   47 C    0 0 0
   7 B    1     2.3905     4.5174   11 B    0 0 0
   7 B    1     2.3905     4.5175    9 B    0-1 0
   7 B    1     2.5648     4.8468   45 C    0-1 0

   8 B    1     1.3795     2.6068   80 O    0 0 0
   8 B    1     1.3795     2.6070   82 O    0 0 0
   8 B    1     1.5513     2.9316   48 C    0 0 0
   8 B    1     2.3905     4.5174   12 B    0 0 0
   8 B    1     2.3905     4.5175   10 B    1 0 0
   8 B    1     2.5648     4.8468   46 C    0 0 0

   9 B    1     1.3795     2.6069   81 O    0 0 0
   9 B    1     1.3797     2.6072   83 O    1 1 0
   9 B    1     1.5516     2.9322   71 C    0 0 0
   9 B    1     2.3905     4.5175    7 B    0 1 0
   9 B    1     2.3911     4.5185   11 B    0 1 0
   9 B    1     2.5651     4.8473   69 C    1 1 0

  10 B    1     1.3795     2.6069   82 O   -1 0 0
  10 B    1     1.3797     2.6072   84 O    0 0 0
  10 B    1     1.5516     2.9322   72 C    0 0 0
  10 B    1     2.3905     4.5175    8 B   -1 0 0
  10 B    1     2.3911     4.5185   12 B   -1 0 0
  10 B    1     2.5651     4.8473   70 C    0 0 0

  11 B    1     1.3795     2.6068   79 O    0 0 0
  11 B    1     1.3796     2.6071   83 O    1 0 0
  11 B    1     1.5516     2.9322   59 C    0 0 0
  11 B    1     2.3905     4.5174    7 B    0 0 0
  11 B    1     2.3911     4.5185    9 B    0-1 0
  11 B    1     2.5651     4.8473   57 C    1 0 0

  12 B    1     1.3795     2.6068   80 O    0 0 0
  12 B    1     1.3796     2.6071   84 O    1 0 0
  12 B    1     1.5516     2.9322   60 C    0 0 0
  12 B    1     2.3905     4.5174    8 B    0 0 0
  12 B    1     2.3911     4.5185   10 B    1 0 0
  12 B    1     2.5651     4.8473   58 C    1 0 0

  13 H    1     1.0913     2.0623   39 C    0 0 0
  13 H    1     2.1472     4.0576   37 C    0 0 0
  13 H    1     2.1680     4.0969   45 C    0 0 0
  13 H    1     2.5202     4.7625   19 H    0 0 0
  13 H    1     2.5676     4.8520   75 O    0 0 0
  13 H    1     2.7321     5.1630    3 B    0 0 0

  14 H    1     1.0913     2.0623   40 C    0 0 0
  14 H    1     2.1472     4.0576   38 C    0 0 0
  14 H    1     2.1680     4.0969   46 C    0 0 0
  14 H    1     2.5202     4.7625   20 H    0 0 0
  14 H    1     2.5676     4.8520   76 O    0 0 0
  14 H    1     2.7321     5.1630    4 B    0 0 0

  15 H    1     1.0914     2.0625   41 C    0 0 0
  15 H    1     2.1493     4.0616   47 C    0 0 0
  15 H    1     2.1666     4.0942   43 C    0 0 0
  15 H    1     2.5198     4.7618   17 H    0 0 0
  15 H    1     2.5720     4.8604   79 O    0 0 0
  15 H    1     2.7362     5.1707    7 B    0 0 0

  16 H    1     1.0914     2.0625   42 C    0 0 0
  16 H    1     2.1493     4.0616   48 C    0 0 0
  16 H    1     2.1666     4.0942   44 C    0 0 0
  16 H    1     2.5198     4.7618   18 H    0 0 0
  16 H    1     2.5720     4.8604   80 O    0 0 0
  16 H    1     2.7362     5.1707    8 B    0 0 0

  17 H    1     1.0914     2.0624   43 C    0 0 0
  17 H    1     2.1471     4.0575   37 C    0-1 0
  17 H    1     2.1680     4.0970   41 C    0 0 0
  17 H    1     2.5198     4.7618   15 H    0 0 0
  17 H    1     2.5665     4.8500   77 O    0 0 0
  17 H    1     2.7315     5.1618    3 B    0-1 0

  18 H    1     1.0914     2.0624   44 C    0 0 0
  18 H    1     2.1471     4.0575   38 C    0 0 0
  18 H    1     2.1680     4.0970   42 C    0 0 0
  18 H    1     2.5198     4.7618   16 H    0 0 0
  18 H    1     2.5665     4.8500   78 O    0 0 0
  18 H    1     2.7315     5.1618    4 B    0 0 0

  19 H    1     1.0915     2.0626   45 C    0 0 0
  19 H    1     2.1490     4.0610   47 C    0 1 0
  19 H    1     2.1669     4.0948   39 C    0 0 0
  19 H    1     2.5202     4.7625   13 H    0 0 0
  19 H    1     2.5712     4.8588   81 O    0 0 0
  19 H    1     2.7351     5.1686    7 B    0 1 0

  20 H    1     1.0915     2.0626   46 C    0 0 0
  20 H    1     2.1490     4.0610   48 C    0 0 0
  20 H    1     2.1669     4.0948   40 C    0 0 0
  20 H    1     2.5202     4.7625   14 H    0 0 0
  20 H    1     2.5712     4.8588   82 O    0 0 0
  20 H    1     2.7351     5.1686    8 B    0 0 0

  21 H    1     1.0913     2.0623   51 C    0 0 0
  21 H    1     2.1469     4.0571   49 C   -1 0 0
  21 H    1     2.1680     4.0968   57 C    0 0 0
  21 H    1     2.5198     4.7617   27 H    0 0 0
  21 H    1     2.5670     4.8510   75 O    0 0 0
  21 H    1     2.7310     5.1609    1 B    0 0 0

  22 H    1     1.0913     2.0623   52 C    0 0 0
  22 H    1     2.1469     4.0571   50 C    0 1 0
  22 H    1     2.1680     4.0968   58 C    0 0 0
  22 H    1     2.5198     4.7617   28 H    0 0 0
  22 H    1     2.5670     4.8510   76 O    0 1 0
  22 H    1     2.7310     5.1609    2 B    0 1 0

  23 H    1     1.0914     2.0625   53 C    0 0 0
  23 H    1     2.1493     4.0617   59 C    0 0 0
  23 H    1     2.1664     4.0939   55 C    0 0 0
  23 H    1     2.5192     4.7606   25 H    0 0 0
  23 H    1     2.5735     4.8632   79 O    0 0 0
  23 H    1     2.7371     5.1723   11 B    0 0 0

  24 H    1     1.0914     2.0625   54 C    0 0 0
  24 H    1     2.1493     4.0617   60 C    0 0 0
  24 H    1     2.1664     4.0939   56 C    0 0 0
  24 H    1     2.5192     4.7606   26 H    0 0 0
  24 H    1     2.5735     4.8632   80 O    0 0 0
  24 H    1     2.7371     5.1723   12 B    0 0 0

  25 H    1     1.0914     2.0624   55 C    0 0 0
  25 H    1     2.1475     4.0581   49 C    0 0 0
  25 H    1     2.1679     4.0967   53 C    0 0 0
  25 H    1     2.5192     4.7606   23 H    0 0 0
  25 H    1     2.5675     4.8519   73 O    0 0 0
  25 H    1     2.7328     5.1643    1 B    1 0 0

  26 H    1     1.0914     2.0624   56 C    0 0 0
  26 H    1     2.1475     4.0581   50 C    1 1 0
  26 H    1     2.1679     4.0967   54 C    0 0 0
  26 H    1     2.5192     4.7606   24 H    0 0 0
  26 H    1     2.5675     4.8519   74 O    1 1 0
  26 H    1     2.7328     5.1643    2 B    1 1 0

  27 H    1     1.0914     2.0625   57 C    0 0 0
  27 H    1     2.1491     4.0612   59 C   -1 0 0
  27 H    1     2.1666     4.0942   51 C    0 0 0
  27 H    1     2.5198     4.7617   21 H    0 0 0
  27 H    1     2.5723     4.8609   83 O    0 0 0
  27 H    1     2.7355     5.1693   11 B   -1 0 0

  28 H    1     1.0914     2.0625   58 C    0 0 0
  28 H    1     2.1491     4.0612   60 C   -1 0 0
  28 H    1     2.1666     4.0942   52 C    0 0 0
  28 H    1     2.5198     4.7617   22 H    0 0 0
  28 H    1     2.5723     4.8609   84 O    0 0 0
  28 H    1     2.7355     5.1693   12 B   -1 0 0

  29 H    1     1.0914     2.0624   63 C    0 0 0
  29 H    1     2.1475     4.0582   61 C   -1-1 0
  29 H    1     2.1678     4.0966   69 C    0 0 0
  29 H    1     2.5200     4.7621   35 H    0 0 0
  29 H    1     2.5667     4.8503   77 O    0 0 0
  29 H    1     2.7315     5.1618    5 B    0 0 0

  30 H    1     1.0914     2.0624   64 C    0 0 0
  30 H    1     2.1475     4.0582   62 C    0 0 0
  30 H    1     2.1678     4.0966   70 C    0 0 0
  30 H    1     2.5200     4.7621   36 H    0 0 0
  30 H    1     2.5667     4.8503   78 O    0 0 0
  30 H    1     2.7315     5.1618    6 B    0 0 0

  31 H    1     1.0913     2.0623   65 C    0 0 0
  31 H    1     2.1487     4.0605   71 C    0 0 0
  31 H    1     2.1667     4.0945   67 C    0 0 0
  31 H    1     2.5197     4.7616   33 H    0 0 0
  31 H    1     2.5723     4.8610   81 O    0 0 0
  31 H    1     2.7359     5.1701    9 B    0 0 0

  32 H    1     1.0913     2.0623   66 C    0 0 0
  32 H    1     2.1487     4.0605   72 C    0 0 0
  32 H    1     2.1667     4.0945   68 C    0 0 0
  32 H    1     2.5197     4.7616   34 H    0 0 0
  32 H    1     2.5723     4.8610   82 O   -1 0 0
  32 H    1     2.7359     5.1701   10 B    0 0 0

  33 H    1     1.0915     2.0626   67 C    0 0 0
  33 H    1     2.1479     4.0589   61 C    0 0 0
  33 H    1     2.1679     4.0968   65 C    0 0 0
  33 H    1     2.5197     4.7616   31 H    0 0 0
  33 H    1     2.5677     4.8522   73 O    0 0 0
  33 H    1     2.7331     5.1648    5 B    1 1 0

  34 H    1     1.0915     2.0626   68 C    0 0 0
  34 H    1     2.1479     4.0589   62 C    0 0 0
  34 H    1     2.1679     4.0968   66 C    0 0 0
  34 H    1     2.5197     4.7616   32 H    0 0 0
  34 H    1     2.5677     4.8522   74 O    0 0 0
  34 H    1     2.7331     5.1648    6 B    0 0 0

  35 H    1     1.0914     2.0624   69 C    0 0 0
  35 H    1     2.1486     4.0602   71 C   -1-1 0
  35 H    1     2.1668     4.0947   63 C    0 0 0
  35 H    1     2.5200     4.7621   29 H    0 0 0
  35 H    1     2.5717     4.8598   83 O    0 0 0
  35 H    1     2.7349     5.1682    9 B   -1-1 0

  36 H    1     1.0914     2.0624   70 C    0 0 0
  36 H    1     2.1486     4.0602   72 C    0 0 0
  36 H    1     2.1668     4.0947   64 C    0 0 0
  36 H    1     2.5200     4.7621   30 H    0 0 0
  36 H    1     2.5717     4.8598   84 O    0 0 0
  36 H    1     2.7349     5.1682   10 B    0 0 0

  37 C    1     1.4020     2.6495   43 C    0 1 0
  37 C    1     1.4021     2.6495   39 C    0 0 0
  37 C    1     1.5504     2.9298    3 B    0 0 0
  37 C    1     2.1471     4.0575   17 H    0 1 0
  37 C    1     2.1472     4.0576   13 H    0 0 0
  37 C    1     2.4246     4.5817   41 C    0 1 0

  38 C    1     1.4020     2.6495   44 C    0 0 0
  38 C    1     1.4021     2.6495   40 C    0 0 0
  38 C    1     1.5504     2.9298    4 B    0 0 0
  38 C    1     2.1471     4.0575   18 H    0 0 0
  38 C    1     2.1472     4.0576   14 H    0 0 0
  38 C    1     2.4246     4.5817   42 C    0 0 0

  39 C    1     1.0913     2.0623   13 H    0 0 0
  39 C    1     1.3914     2.6294   45 C    0 0 0
  39 C    1     1.4021     2.6495   37 C    0 0 0
  39 C    1     2.1669     4.0948   19 H    0 0 0
  39 C    1     2.4177     4.5688   43 C    0 1 0
  39 C    1     2.4250     4.5825   47 C    0 1 0

  40 C    1     1.0913     2.0623   14 H    0 0 0
  40 C    1     1.3914     2.6294   46 C    0 0 0
  40 C    1     1.4021     2.6495   38 C    0 0 0
  40 C    1     2.1669     4.0948   20 H    0 0 0
  40 C    1     2.4177     4.5688   44 C    0 0 0
  40 C    1     2.4250     4.5825   48 C    0 0 0

  41 C    1     1.0914     2.0625   15 H    0 0 0
  41 C    1     1.3914     2.6293   43 C    0 0 0
  41 C    1     1.4026     2.6505   47 C    0 0 0
  41 C    1     2.1680     4.0970   17 H    0 0 0
  41 C    1     2.4182     4.5697   45 C    0-1 0
  41 C    1     2.4246     4.5817   37 C    0-1 0

  42 C    1     1.0914     2.0625   16 H    0 0 0
  42 C    1     1.3914     2.6293   44 C    0 0 0
  42 C    1     1.4026     2.6505   48 C    0 0 0
  42 C    1     2.1680     4.0970   18 H    0 0 0
  42 C    1     2.4182     4.5697   46 C    0 0 0
  42 C    1     2.4246     4.5817   38 C    0 0 0

  43 C    1     1.0914     2.0624   17 H    0 0 0
  43 C    1     1.3914     2.6293   41 C    0 0 0
  43 C    1     1.4020     2.6495   37 C    0-1 0
  43 C    1     2.1666     4.0942   15 H    0 0 0
  43 C    1     2.4177     4.5688   39 C    0-1 0
  43 C    1     2.4250     4.5826   47 C    0 0 0

  44 C    1     1.0914     2.0624   18 H    0 0 0
  44 C    1     1.3914     2.6293   42 C    0 0 0
  44 C    1     1.4020     2.6495   38 C    0 0 0
  44 C    1     2.1666     4.0942   16 H    0 0 0
  44 C    1     2.4177     4.5688   40 C    0 0 0
  44 C    1     2.4250     4.5826   48 C    0 0 0

  45 C    1     1.0915     2.0626   19 H    0 0 0
  45 C    1     1.3914     2.6294   39 C    0 0 0
  45 C    1     1.4025     2.6504   47 C    0 1 0
  45 C    1     2.1680     4.0969   13 H    0 0 0
  45 C    1     2.4182     4.5697   41 C    0 1 0
  45 C    1     2.4246     4.5818   37 C    0 0 0

  46 C    1     1.0915     2.0626   20 H    0 0 0
  46 C    1     1.3914     2.6294   40 C    0 0 0
  46 C    1     1.4025     2.6504   48 C    0 0 0
  46 C    1     2.1680     4.0969   14 H    0 0 0
  46 C    1     2.4182     4.5697   42 C    0 0 0
  46 C    1     2.4246     4.5818   38 C    0 0 0

  47 C    1     1.4025     2.6504   45 C    0-1 0
  47 C    1     1.4026     2.6505   41 C    0 0 0
  47 C    1     1.5513     2.9316    7 B    0 0 0
  47 C    1     2.1490     4.0610   19 H    0-1 0
  47 C    1     2.1493     4.0616   15 H    0 0 0
  47 C    1     2.4250     4.5825   39 C    0-1 0

  48 C    1     1.4025     2.6504   46 C    0 0 0
  48 C    1     1.4026     2.6505   42 C    0 0 0
  48 C    1     1.5513     2.9316    8 B    0 0 0
  48 C    1     2.1490     4.0610   20 H    0 0 0
  48 C    1     2.1493     4.0616   16 H    0 0 0
  48 C    1     2.4250     4.5825   40 C    0 0 0

  49 C    1     1.4020     2.6494   51 C    1 0 0
  49 C    1     1.4021     2.6495   55 C    0 0 0
  49 C    1     1.5503     2.9297    1 B    1 0 0
  49 C    1     2.1469     4.0571   21 H    1 0 0
  49 C    1     2.1475     4.0581   25 H    0 0 0
  49 C    1     2.4246     4.5818   53 C    0 0 0

  50 C    1     1.4020     2.6494   52 C    0-1 0
  50 C    1     1.4021     2.6495   56 C   -1-1 0
  50 C    1     1.5503     2.9297    2 B    0 0 0
  50 C    1     2.1469     4.0571   22 H    0-1 0
  50 C    1     2.1475     4.0581   26 H   -1-1 0
  50 C    1     2.4246     4.5818   54 C   -1-1 0

  51 C    1     1.0913     2.0623   21 H    0 0 0
  51 C    1     1.3914     2.6293   57 C    0 0 0
  51 C    1     1.4020     2.6494   49 C   -1 0 0
  51 C    1     2.1666     4.0942   27 H    0 0 0
  51 C    1     2.4175     4.5684   55 C   -1 0 0
  51 C    1     2.4251     4.5828   59 C   -1 0 0

  52 C    1     1.0913     2.0623   22 H    0 0 0
  52 C    1     1.3914     2.6293   58 C    0 0 0
  52 C    1     1.4020     2.6494   50 C    0 1 0
  52 C    1     2.1666     4.0942   28 H    0 0 0
  52 C    1     2.4175     4.5684   56 C   -1 0 0
  52 C    1     2.4251     4.5828   60 C   -1 0 0

  53 C    1     1.0914     2.0625   23 H    0 0 0
  53 C    1     1.3915     2.6295   55 C    0 0 0
  53 C    1     1.4026     2.6505   59 C    0 0 0
  53 C    1     2.1679     4.0967   25 H    0 0 0
  53 C    1     2.4179     4.5691   57 C    1 0 0
  53 C    1     2.4246     4.5818   49 C    0 0 0

  54 C    1     1.0914     2.0625   24 H    0 0 0
  54 C    1     1.3915     2.6295   56 C    0 0 0
  54 C    1     1.4026     2.6505   60 C    0 0 0
  54 C    1     2.1679     4.0967   26 H    0 0 0
  54 C    1     2.4179     4.5691   58 C    1 0 0
  54 C    1     2.4246     4.5818   50 C    1 1 0

  55 C    1     1.0914     2.0624   25 H    0 0 0
  55 C    1     1.3915     2.6295   53 C    0 0 0
  55 C    1     1.4021     2.6495   49 C    0 0 0
  55 C    1     2.1664     4.0939   23 H    0 0 0
  55 C    1     2.4175     4.5684   51 C    1 0 0
  55 C    1     2.4253     4.5832   59 C    0 0 0

  56 C    1     1.0914     2.0624   26 H    0 0 0
  56 C    1     1.3915     2.6295   54 C    0 0 0
  56 C    1     1.4021     2.6495   50 C    1 1 0
  56 C    1     2.1664     4.0939   24 H    0 0 0
  56 C    1     2.4175     4.5684   52 C    1 0 0
  56 C    1     2.4253     4.5832   60 C    0 0 0

  57 C    1     1.0914     2.0625   27 H    0 0 0
  57 C    1     1.3914     2.6293   51 C    0 0 0
  57 C    1     1.4025     2.6504   59 C   -1 0 0
  57 C    1     2.1680     4.0968   21 H    0 0 0
  57 C    1     2.4179     4.5691   53 C   -1 0 0
  57 C    1     2.4247     4.5819   49 C   -1 0 0

  58 C    1     1.0914     2.0625   28 H    0 0 0
  58 C    1     1.3914     2.6293   52 C    0 0 0
  58 C    1     1.4025     2.6504   60 C   -1 0 0
  58 C    1     2.1680     4.0968   22 H    0 0 0
  58 C    1     2.4179     4.5691   54 C   -1 0 0
  58 C    1     2.4247     4.5819   50 C    0 1 0

  59 C    1     1.4025     2.6504   57 C    1 0 0
  59 C    1     1.4026     2.6505   53 C    0 0 0
  59 C    1     1.5516     2.9322   11 B    0 0 0
  59 C    1     2.1491     4.0612   27 H    1 0 0
  59 C    1     2.1493     4.0617   23 H    0 0 0
  59 C    1     2.4251     4.5828   51 C    1 0 0

  60 C    1     1.4025     2.6504   58 C    1 0 0
  60 C    1     1.4026     2.6505   54 C    0 0 0
  60 C    1     1.5516     2.9322   12 B    0 0 0
  60 C    1     2.1491     4.0612   28 H    1 0 0
  60 C    1     2.1493     4.0617   24 H    0 0 0
  60 C    1     2.4251     4.5828   52 C    1 0 0

  61 C    1     1.4021     2.6496   63 C    1 1 0
  61 C    1     1.4021     2.6497   67 C    0 0 0
  61 C    1     1.5502     2.9294    5 B    1 1 0
  61 C    1     2.1475     4.0582   29 H    1 1 0
  61 C    1     2.1479     4.0589   33 H    0 0 0
  61 C    1     2.4244     4.5814   65 C    0 0 0

  62 C    1     1.4021     2.6496   64 C    0 0 0
  62 C    1     1.4021     2.6497   68 C    0 0 0
  62 C    1     1.5502     2.9294    6 B    0 0 0
  62 C    1     2.1475     4.0582   30 H    0 0 0
  62 C    1     2.1479     4.0589   34 H    0 0 0
  62 C    1     2.4244     4.5814   66 C    0 0 0

  63 C    1     1.0914     2.0624   29 H    0 0 0
  63 C    1     1.3914     2.6293   69 C    0 0 0
  63 C    1     1.4021     2.6496   61 C   -1-1 0
  63 C    1     2.1668     4.0947   35 H    0 0 0
  63 C    1     2.4179     4.5692   67 C   -1-1 0
  63 C    1     2.4251     4.5827   71 C   -1-1 0

  64 C    1     1.0914     2.0624   30 H    0 0 0
  64 C    1     1.3914     2.6293   70 C    0 0 0
  64 C    1     1.4021     2.6496   62 C    0 0 0
  64 C    1     2.1668     4.0947   36 H    0 0 0
  64 C    1     2.4179     4.5692   68 C    0 0 0
  64 C    1     2.4251     4.5827   72 C    0 0 0

  65 C    1     1.0913     2.0623   31 H    0 0 0
  65 C    1     1.3914     2.6294   67 C    0 0 0
  65 C    1     1.4025     2.6504   71 C    0 0 0
  65 C    1     2.1679     4.0968   33 H    0 0 0
  65 C    1     2.4178     4.5690   69 C    1 1 0
  65 C    1     2.4244     4.5814   61 C    0 0 0

  66 C    1     1.0913     2.0623   32 H    0 0 0
  66 C    1     1.3914     2.6294   68 C    0 0 0
  66 C    1     1.4025     2.6504   72 C    0 0 0
  66 C    1     2.1679     4.0968   34 H    0 0 0
  66 C    1     2.4178     4.5690   70 C    0 0 0
  66 C    1     2.4244     4.5814   62 C    0 0 0

  67 C    1     1.0915     2.0626   33 H    0 0 0
  67 C    1     1.3914     2.6294   65 C    0 0 0
  67 C    1     1.4021     2.6497   61 C    0 0 0
  67 C    1     2.1667     4.0945   31 H    0 0 0
  67 C    1     2.4179     4.5692   63 C    1 1 0
  67 C    1     2.4253     4.5832   71 C    0 0 0

  68 C    1     1.0915     2.0626   34 H    0 0 0
  68 C    1     1.3914     2.6294   66 C    0 0 0
  68 C    1     1.4021     2.6497   62 C    0 0 0
  68 C    1     2.1667     4.0945   32 H    0 0 0
  68 C    1     2.4179     4.5692   64 C    0 0 0
  68 C    1     2.4253     4.5832   72 C    0 0 0

  69 C    1     1.0914     2.0624   35 H    0 0 0
  69 C    1     1.3914     2.6293   63 C    0 0 0
  69 C    1     1.4025     2.6503   71 C   -1-1 0
  69 C    1     2.1678     4.0966   29 H    0 0 0
  69 C    1     2.4178     4.5690   65 C   -1-1 0
  69 C    1     2.4245     4.5817   61 C   -1-1 0

  70 C    1     1.0914     2.0624   36 H    0 0 0
  70 C    1     1.3914     2.6293   64 C    0 0 0
  70 C    1     1.4025     2.6503   72 C    0 0 0
  70 C    1     2.1678     4.0966   30 H    0 0 0
  70 C    1     2.4178     4.5690   66 C    0 0 0
  70 C    1     2.4245     4.5817   62 C    0 0 0

  71 C    1     1.4025     2.6503   69 C    1 1 0
  71 C    1     1.4025     2.6504   65 C    0 0 0
  71 C    1     1.5516     2.9322    9 B    0 0 0
  71 C    1     2.1486     4.0602   35 H    1 1 0
  71 C    1     2.1487     4.0605   31 H    0 0 0
  71 C    1     2.4251     4.5827   63 C    1 1 0

  72 C    1     1.4025     2.6503   70 C    0 0 0
  72 C    1     1.4025     2.6504   66 C    0 0 0
  72 C    1     1.5516     2.9322   10 B    0 0 0
  72 C    1     2.1486     4.0602   36 H    0 0 0
  72 C    1     2.1487     4.0605   32 H    0 0 0
  72 C    1     2.4251     4.5827   64 C    0 0 0

  73 O    1     1.3791     2.6061    1 B    1 0 0
  73 O    1     1.3791     2.6061    5 B    1 1 0
  73 O    1     2.3880     4.5126   75 O    1 0 0
  73 O    1     2.3882     4.5130   77 O    1 1 0
  73 O    1     2.5383     4.7966   61 C    0 0 0
  73 O    1     2.5384     4.7968   49 C    0 0 0

  74 O    1     1.3791     2.6061    2 B    0 0 0
  74 O    1     1.3791     2.6061    6 B    0 0 0
  74 O    1     2.3880     4.5126   76 O    0 0 0
  74 O    1     2.3882     4.5130   78 O    0 0 0
  74 O    1     2.5383     4.7966   62 C    0 0 0
  74 O    1     2.5384     4.7968   50 C    0 0 0

  75 O    1     1.3793     2.6065    1 B    0 0 0
  75 O    1     1.3793     2.6065    3 B    0 0 0
  75 O    1     2.3880     4.5126   73 O   -1 0 0
  75 O    1     2.3882     4.5131   77 O    0 1 0
  75 O    1     2.5391     4.7981   37 C    0 0 0
  75 O    1     2.5395     4.7990   49 C   -1 0 0

  76 O    1     1.3793     2.6065    2 B    0 0 0
  76 O    1     1.3793     2.6065    4 B    0 0 0
  76 O    1     2.3880     4.5126   74 O    0 0 0
  76 O    1     2.3882     4.5131   78 O    0 0 0
  76 O    1     2.5391     4.7981   38 C    0 0 0
  76 O    1     2.5395     4.7990   50 C    0 0 0

  77 O    1     1.3793     2.6064    5 B    0 0 0
  77 O    1     1.3793     2.6065    3 B    0-1 0
  77 O    1     2.3882     4.5130   73 O   -1-1 0
  77 O    1     2.3882     4.5131   75 O    0-1 0
  77 O    1     2.5390     4.7980   37 C    0-1 0
  77 O    1     2.5391     4.7982   61 C   -1-1 0

  78 O    1     1.3793     2.6064    6 B    0 0 0
  78 O    1     1.3793     2.6065    4 B    0 0 0
  78 O    1     2.3882     4.5130   74 O    0 0 0
  78 O    1     2.3882     4.5131   76 O    0 0 0
  78 O    1     2.5390     4.7980   38 C    0 0 0
  78 O    1     2.5391     4.7982   62 C    0 0 0

  79 O    1     1.3795     2.6068   11 B    0 0 0
  79 O    1     1.3795     2.6068    7 B    0 0 0
  79 O    1     2.3880     4.5126   83 O    1 0 0
  79 O    1     2.3884     4.5134   81 O    0-1 0
  79 O    1     2.5400     4.7998   47 C    0 0 0
  79 O    1     2.5403     4.8005   59 C    0 0 0

  80 O    1     1.3795     2.6068   12 B    0 0 0
  80 O    1     1.3795     2.6068    8 B    0 0 0
  80 O    1     2.3880     4.5126   84 O    1 0 0
  80 O    1     2.3884     4.5134   82 O    0 0 0
  80 O    1     2.5400     4.7998   48 C    0 0 0
  80 O    1     2.5403     4.8005   60 C    0 0 0

  81 O    1     1.3795     2.6069    9 B    0 0 0
  81 O    1     1.3795     2.6070    7 B    0 1 0
  81 O    1     2.3881     4.5128   83 O    1 1 0
  81 O    1     2.3884     4.5134   79 O    0 1 0
  81 O    1     2.5404     4.8006   47 C    0 1 0
  81 O    1     2.5405     4.8008   71 C    0 0 0

  82 O    1     1.3795     2.6069   10 B    1 0 0
  82 O    1     1.3795     2.6070    8 B    0 0 0
  82 O    1     2.3881     4.5128   84 O    1 0 0
  82 O    1     2.3884     4.5134   80 O    0 0 0
  82 O    1     2.5404     4.8006   48 C    0 0 0
  82 O    1     2.5405     4.8008   72 C    1 0 0

  83 O    1     1.3796     2.6071   11 B   -1 0 0
  83 O    1     1.3797     2.6072    9 B   -1-1 0
  83 O    1     2.3880     4.5126   79 O   -1 0 0
  83 O    1     2.3881     4.5128   81 O   -1-1 0
  83 O    1     2.5409     4.8016   71 C   -1-1 0
  83 O    1     2.5410     4.8019   59 C   -1 0 0

  84 O    1     1.3796     2.6071   12 B   -1 0 0
  84 O    1     1.3797     2.6072   10 B    0 0 0
  84 O    1     2.3880     4.5126   80 O   -1 0 0
  84 O    1     2.3881     4.5128   82 O   -1 0 0
  84 O    1     2.5409     4.8016   72 C    0 0 0
  84 O    1     2.5410     4.8019   60 C   -1 0 0


 SYMMETRY ALLOWED INTERNAL DEGREE(S) OF FREEDOM: 249
 TTTTTTTTTTTTTTTTTTTTTTTTTTTTTT SYMM        TELAPSE        3.01 TCPU        3.01
 TTTTTTTTTTTTTTTTTTTTTTTTTTTTTT INT_SCREEN  TELAPSE        3.23 TCPU        3.22

 DFT PARAMETERS

     ATOM       ELECTRONS   NET CHARGE   R(ANGSTROM)
   1   5  B       5.0000      0.0000     0.89000000
  13   1  H       1.0000      0.0000     1.11000000
  37   6  C       6.0000      0.0000     0.77000000
  73   8  O       8.0000      0.0000     0.74000000

 SIZE OF GRID=    2472216
 TTTTTTTTTTTTTTTTTTTTTTTTTTTTTT MAKE_GRID2  TELAPSE       28.67 TCPU       28.64
 BECKE WEIGHT FUNCTION
 RADSAFE =     2.00
 TOLERANCES - DENSITY:10**- 6; POTENTIAL:10**- 9; GRID WGT:10**-14

 RADIAL INTEGRATION  - INTERVALS (POINTS,UPPER LIMIT):            1( 75,  4.0*R)

 ANGULAR INTEGRATION - INTERVALS (ACCURACY LEVEL [N. POINTS] UPPER LIMIT):
  1(  4[  86]   0.2)  2(  8[ 194]   0.5)  3( 12[ 350]   0.9)  4( 16[ 974]   3.5)
  5( 12[ 350]9999.0)
 TTTTTTTTTTTTTTTTTTTTTTTTTTTTTT INT_CALC    TELAPSE       28.99 TCPU       28.96
 EEEEEEEEEE INT_CALC TERMINATION  DATE 19 02 2026 TIME 19:49:24.7

 *******************************************************************************
 cof-1_z32_L030_serr                                                             
 CRYSTAL - SCF - TYPE OF CALCULATION :  RESTRICTED CLOSED SHELL
 *******************************************************************************

 CAPPA:IS1  2;IS2  2;IS3  8; K PTS MONK NET  20; SYMMOPS:K SPACE   2;G SPACE   1

 TTTTTTTTTTTTTTTTTTTTTTTTTTTTTT SDIK        TELAPSE       30.88 TCPU       56.28

 AAAAAAAAAAAAAAAAAAAAAAAAAAAAAAAAAAAAAAAAAAAAAAAAAAAAAAAAAAAAAAAAAAAAAAAAAAAAAAA
         ATOMIC WAVEFUNCTION(S)


 NUCLEAR CHARGE  5.0  SYMMETRY SPECIES            S    P
 N. ELECTRONS    5.0  NUMBER OF PRIMITIVE GTOS    8    4
                      NUMBER OF CONTRACTED GTOS   4    2
                      NUMBER OF CLOSED SHELLS     2    0
                      OPEN SHELL OCCUPATION       0    1

  ZNUC  SCFIT    TOTAL HF ENERGY   KINETIC ENERGY   VIRIAL THEOREM ACCURACY
   5.0    11    -2.451164084E+01  2.462155050E+01 -1.995536038E+00  1.5E-06

 NUCLEAR CHARGE  1.0  SYMMETRY SPECIES            S
 N. ELECTRONS    1.0  NUMBER OF PRIMITIVE GTOS    4
                      NUMBER OF CONTRACTED GTOS   2
                      NUMBER OF CLOSED SHELLS     0
                      OPEN SHELL OCCUPATION       1

  ZNUC  SCFIT    TOTAL HF ENERGY   KINETIC ENERGY   VIRIAL THEOREM ACCURACY
   1.0     1    -4.977266687E-01  5.190767460E-01 -1.958869132E+00  0.0E+00

 NUCLEAR CHARGE  6.0  SYMMETRY SPECIES            S    P
 N. ELECTRONS    6.0  NUMBER OF PRIMITIVE GTOS    8    4
                      NUMBER OF CONTRACTED GTOS   4    2
                      NUMBER OF CLOSED SHELLS     2    0
                      OPEN SHELL OCCUPATION       0    2

  ZNUC  SCFIT    TOTAL HF ENERGY   KINETIC ENERGY   VIRIAL THEOREM ACCURACY
   6.0     9    -3.766704647E+01  3.775180683E+01 -1.997754800E+00  1.1E-06

 NUCLEAR CHARGE  8.0  SYMMETRY SPECIES            S    P
 N. ELECTRONS    8.0  NUMBER OF PRIMITIVE GTOS    8    4
                      NUMBER OF CONTRACTED GTOS   4    2
                      NUMBER OF CLOSED SHELLS     2    0
                      OPEN SHELL OCCUPATION       0    4

  ZNUC  SCFIT    TOTAL HF ENERGY   KINETIC ENERGY   VIRIAL THEOREM ACCURACY
   8.0    12    -7.477373220E+01  7.477365593E+01 -2.000001020E+00  3.8E-06

 AAAAAAAAAAAAAAAAAAAAAAAAAAAAAAAAAAAAAAAAAAAAAAAAAAAAAAAAAAAAAAAAAAAAAAAAAAAAAAA

 CHARGE NORMALIZATION FACTOR   1.00000000
 TOTAL ATOMIC CHARGES:
   5.0000000   5.0000000   5.0000000   5.0000000   5.0000000   5.0000000
   5.0000000   5.0000000   5.0000000   5.0000000   5.0000000   5.0000000
   1.0000000   1.0000000   1.0000000   1.0000000   1.0000000   1.0000000
   1.0000000   1.0000000   1.0000000   1.0000000   1.0000000   1.0000000
   1.0000000   1.0000000   1.0000000   1.0000000   1.0000000   1.0000000
   1.0000000   1.0000000   1.0000000   1.0000000   1.0000000   1.0000000
   6.0000000   6.0000000   6.0000000   6.0000000   6.0000000   6.0000000
   6.0000000   6.0000000   6.0000000   6.0000000   6.0000000   6.0000000
   6.0000000   6.0000000   6.0000000   6.0000000   6.0000000   6.0000000
   6.0000000   6.0000000   6.0000000   6.0000000   6.0000000   6.0000000
   6.0000000   6.0000000   6.0000000   6.0000000   6.0000000   6.0000000
   6.0000000   6.0000000   6.0000000   6.0000000   6.0000000   6.0000000
   8.0000000   8.0000000   8.0000000   8.0000000   8.0000000   8.0000000
   8.0000000   8.0000000   8.0000000   8.0000000   8.0000000   8.0000000
 TTTTTTTTTTTTTTTTTTTTTTTTTTTTTT MOQGAD      TELAPSE       30.99 TCPU       59.78
 TTTTTTTTTTTTTTTTTTTTTTTTTTTTTT SHELLXN     TELAPSE       58.51 TCPU      939.09
 TTTTTTTTTTTTTTTTTTTTTTTTTTTTTT MONMO3      TELAPSE       59.17 TCPU      960.08
 NUMERICALLY INTEGRATED DENSITY    396.0000978602
 TTTTTTTTTTTTTTTTTTTTTTTTTTTTTT NUMDFT      TELAPSE       60.90 TCPU     1015.27
 CYC   0 ETOT(AU) -2.592022795299E+03 DETOT -2.59E+03 tst  0.00E+00 PX  1.00E+00
 TTTTTTTTTTTTTTTTTTTTTTTTTTTTTT DIIS        TELAPSE       61.02 TCPU     1019.23
 TTTTTTTTTTTTTTTTTTTTTTTTTTTTTT FDIK        TELAPSE       62.85 TCPU     1077.63
 INSULATING STATE
 TOP OF VALENCE BANDS -    BAND    198; K    1; EIG -2.9771296E-01 AU
 BOTTOM OF VIRTUAL BANDS - BAND    199; K    1; EIG -1.6823794E-01 AU
 DIRECT ENERGY BAND GAP:   3.5232 eV
 TTTTTTTTTTTTTTTTTTTTTTTTTTTTTT PDIG        TELAPSE       64.47 TCPU     1084.50
 CHARGE NORMALIZATION FACTOR   1.00000000
 TOTAL ATOMIC CHARGES:
   4.1368215   4.1113490   4.1380489   4.1566221   4.1382611   4.1568670
   4.1565098   4.1379773   4.1563359   4.1377644   4.1112068   4.1364266
   0.7861955   0.7860658   0.7861818   0.7863101   0.7816330   0.7858207
   0.7859376   0.7817532   0.7867611   0.7867155   0.7868820   0.7869259
   0.7867502   0.7867048   0.7868382   0.7868873   0.7816363   0.7858222
   0.7860029   0.7818224   0.7861491   0.7860181   0.7861761   0.7863034
   6.0432941   6.0508365   6.2736154   6.2673837   6.2673381   6.2735852
   6.2695635   6.2656889   6.2656400   6.2694905   6.0500931   6.0425328
   6.0472925   6.0642912   6.2696369   6.2576779   6.2577385   6.2696983
   6.2695507   6.2576092   6.2577413   6.2696884   6.0629709   6.0459847
   6.0436537   6.0512235   6.2693380   6.2654409   6.2660253   6.2698710
   6.2732302   6.2669869   6.2676127   6.2738567   6.0496039   6.0420451
   8.7087782   8.7051215   8.7088814   8.7052637   8.7091236   8.6934538
   8.7055420   8.7091758   8.6938336   8.7094445   8.7057076   8.7093609
 TTTTTTTTTTTTTTTTTTTTTTTTTTTTTT MOQGAD      TELAPSE       64.58 TCPU     1084.61
 TTTTTTTTTTTTTTTTTTTTTTTTTTTTTT SHELLXN     TELAPSE       93.22 TCPU     1998.61
 TTTTTTTTTTTTTTTTTTTTTTTTTTTTTT MONMO3      TELAPSE       93.88 TCPU     2019.72
 NUMERICALLY INTEGRATED DENSITY    396.0000731140
 TTTTTTTTTTTTTTTTTTTTTTTTTTTTTT NUMDFT      TELAPSE       95.60 TCPU     2074.48
 CYC   1 ETOT(AU) -2.577657140675E+03 DETOT  1.44E+01 tst  0.00E+00 PX  1.00E+00
 TTTTTTTTTTTTTTTTTTTTTTTTTTTTTT DIIS        TELAPSE       95.74 TCPU     2078.92
 DIIS TEST: 0.21850E+01 AT SCF   CYCLE   1 - MIX   30 %
 TTTTTTTTTTTTTTTTTTTTTTTTTTTTTT FDIK        TELAPSE       97.54 TCPU     2136.69
 INSULATING STATE
 TOP OF VALENCE BANDS -    BAND    198; K    1; EIG -2.0189366E-01 AU
 BOTTOM OF VIRTUAL BANDS - BAND    199; K    1; EIG -9.0202511E-02 AU
 DIRECT ENERGY BAND GAP:   3.0393 eV
 TTTTTTTTTTTTTTTTTTTTTTTTTTTTTT PDIG        TELAPSE       99.16 TCPU     2143.56
 CHARGE NORMALIZATION FACTOR   1.00000000
 TOTAL ATOMIC CHARGES:
   4.6121952   4.6520409   4.6738374   4.6958053   4.6737269   4.6958129
   4.6961494   4.6743223   4.6961153   4.6743834   4.6526519   4.6123106
   0.9141631   0.9034298   0.9035622   0.9141785   0.9222347   0.9175165
   0.9175755   0.9222472   0.9150545   0.8953999   0.8954257   0.9152523
   0.9150443   0.8953872   0.8954124   0.9151914   0.9222016   0.9175005
   0.9176388   0.9222977   0.9141001   0.9033539   0.9035779   0.9141551
   5.8654173   5.8709955   6.1655490   6.0740941   6.0744899   6.1660477
   6.1422789   6.1610611   6.1617451   6.1432550   5.8738602   5.8681375
   5.8412476   5.9789788   6.1334631   6.1526197   6.1533763   6.1340356
   6.1335913   6.1526966   6.1532447   6.1340368   5.9822901   5.8442484
   5.8653525   5.8709523   6.1423243   6.1611031   6.1616398   6.1432049
   6.1657793   6.0742747   6.0742395   6.1657383   5.8740760   5.8684015
   8.3376421   8.3394855   8.3380277   8.3398572   8.3934059   8.3475357
   8.3393877   8.3374118   8.3472415   8.3933278   8.3398191   8.3377590
 TTTTTTTTTTTTTTTTTTTTTTTTTTTTTT MOQGAD      TELAPSE       99.28 TCPU     2143.67
 TTTTTTTTTTTTTTTTTTTTTTTTTTTTTT SHELLXN     TELAPSE      127.88 TCPU     3056.33
 TTTTTTTTTTTTTTTTTTTTTTTTTTTTTT MONMO3      TELAPSE      128.54 TCPU     3077.61
 NUMERICALLY INTEGRATED DENSITY    396.0000888676
 TTTTTTTTTTTTTTTTTTTTTTTTTTTTTT NUMDFT      TELAPSE      130.27 TCPU     3132.69
 CYC   2 ETOT(AU) -2.578033099435E+03 DETOT -3.76E-01 tst  4.01E-03 PX  1.60E-01
 TTTTTTTTTTTTTTTTTTTTTTTTTTTTTT DIIS        TELAPSE      130.43 TCPU     3137.88
 DIIS TEST: 0.93440E+00 AT SCF   CYCLE   2 - DIIS ACTIVE - HISTORY:     2 CYCLES
 TTTTTTTTTTTTTTTTTTTTTTTTTTTTTT FDIK        TELAPSE      132.29 TCPU     3197.42
 INSULATING STATE
 TOP OF VALENCE BANDS -    BAND    198; K    1; EIG -2.1806384E-01 AU
 BOTTOM OF VIRTUAL BANDS - BAND    199; K    1; EIG -8.5959862E-02 AU
 DIRECT ENERGY BAND GAP:   3.5947 eV
 TTTTTTTTTTTTTTTTTTTTTTTTTTTTTT PDIG        TELAPSE      133.92 TCPU     3204.30
 CHARGE NORMALIZATION FACTOR   1.00000000
 TOTAL ATOMIC CHARGES:
   4.4510925   4.4215114   4.4614587   4.4943048   4.4615234   4.4944005
   4.4937635   4.4607262   4.4935846   4.4606196   4.4208944   4.4504223
   0.8984940   0.8728029   0.8727351   0.8987885   0.8907962   0.8961137
   0.8962081   0.8907778   0.8888569   0.8818640   0.8822975   0.8888538
   0.8888842   0.8818971   0.8822339   0.8887712   0.8907581   0.8961119
   0.8962531   0.8908373   0.8984975   0.8727980   0.8726910   0.8987208
   5.8804372   5.9069031   6.1586909   6.1865674   6.1860020   6.1583859
   6.1693275   6.1516504   6.1507828   6.1678869   5.9053435   5.8786420
   5.9545596   5.9148497   6.1774606   6.1454191   6.1446011   6.1769614
   6.1775448   6.1455462   6.1443671   6.1768941   5.9126007   5.9530984
   5.8807856   5.9072674   6.1693285   6.1515901   6.1509541   6.1679463
   6.1585913   6.1864675   6.1859838   6.1583826   5.9049874   5.8783261
   8.5294770   8.5251010   8.5295862   8.5252574   8.5309070   8.5061604
   8.5251155   8.5297814   8.5063896   8.5305156   8.5252748   8.5299562
 TTTTTTTTTTTTTTTTTTTTTTTTTTTTTT MOQGAD      TELAPSE      134.03 TCPU     3204.41
 TTTTTTTTTTTTTTTTTTTTTTTTTTTTTT SHELLXN     TELAPSE      162.67 TCPU     4118.36
 TTTTTTTTTTTTTTTTTTTTTTTTTTTTTT MONMO3      TELAPSE      163.33 TCPU     4139.32
 NUMERICALLY INTEGRATED DENSITY    396.0000841317
 TTTTTTTTTTTTTTTTTTTTTTTTTTTTTT NUMDFT      TELAPSE      165.10 TCPU     4195.92
 CYC   3 ETOT(AU) -2.578221360832E+03 DETOT -1.88E-01 tst  6.96E-04 PX  6.91E-02
 TTTTTTTTTTTTTTTTTTTTTTTTTTTTTT DIIS        TELAPSE      165.28 TCPU     4201.74
 DIIS TEST: 0.48054E-01 AT SCF   CYCLE   3 - DIIS ACTIVE - HISTORY:     3 CYCLES
 TTTTTTTTTTTTTTTTTTTTTTTTTTTTTT FDIK        TELAPSE      167.15 TCPU     4261.54
 INSULATING STATE
 TOP OF VALENCE BANDS -    BAND    198; K    1; EIG -2.2531537E-01 AU
 BOTTOM OF VIRTUAL BANDS - BAND    199; K    1; EIG -9.4866471E-02 AU
 DIRECT ENERGY BAND GAP:   3.5497 eV
 TTTTTTTTTTTTTTTTTTTTTTTTTTTTTT PDIG        TELAPSE      168.78 TCPU     4268.42
 CHARGE NORMALIZATION FACTOR   1.00000000
 TOTAL ATOMIC CHARGES:
   4.4447763   4.4403607   4.4746045   4.4902580   4.4746460   4.4903408
   4.4907348   4.4751648   4.4905605   4.4750981   4.4409247   4.4448712
   0.8740017   0.8697683   0.8699952   0.8739591   0.8802865   0.8758724
   0.8759236   0.8802944   0.8786105   0.8626754   0.8625534   0.8789716
   0.8786374   0.8627065   0.8624945   0.8788866   0.8802799   0.8758738
   0.8759729   0.8803124   0.8739852   0.8697238   0.8699791   0.8739043
   5.9400407   5.9313313   6.1908963   6.1269107   6.1275231   6.1913518
   6.1708535   6.1813712   6.1828185   6.1732641   5.9353360   5.9438420
   5.8953959   6.0420724   6.1515696   6.1841496   6.1854366   6.1523580
   6.1514008   6.1840340   6.1854316   6.1525274   6.0460189   5.8985386
   5.9400306   5.9313575   6.1707235   6.1812586   6.1829532   6.1734472
   6.1907585   6.1267780   6.1275962   6.1913651   5.9353661   5.9439423
   8.4875804   8.4951021   8.4878841   8.4953911   8.5330349   8.4915318
   8.4953643   8.4874330   8.4914286   8.5337223   8.4957318   8.4877374
 TTTTTTTTTTTTTTTTTTTTTTTTTTTTTT MOQGAD      TELAPSE      168.89 TCPU     4268.53
 TTTTTTTTTTTTTTTTTTTTTTTTTTTTTT SHELLXN     TELAPSE      197.56 TCPU     5183.66
 TTTTTTTTTTTTTTTTTTTTTTTTTTTTTT MONMO3      TELAPSE      198.22 TCPU     5204.63
 NUMERICALLY INTEGRATED DENSITY    396.0000848748
 TTTTTTTTTTTTTTTTTTTTTTTTTTTTTT NUMDFT      TELAPSE      199.99 TCPU     5261.13
 CYC   4 ETOT(AU) -2.578229114698E+03 DETOT -7.75E-03 tst  2.24E-04 PX  3.17E-02
 TTTTTTTTTTTTTTTTTTTTTTTTTTTTTT DIIS        TELAPSE      200.22 TCPU     5267.88
 DIIS TEST: 0.20627E-01 AT SCF   CYCLE   4 - DIIS ACTIVE - HISTORY:     4 CYCLES
 TTTTTTTTTTTTTTTTTTTTTTTTTTTTTT FDIK        TELAPSE      202.06 TCPU     5326.42
 INSULATING STATE
 TOP OF VALENCE BANDS -    BAND    198; K    1; EIG -2.2572685E-01 AU
 BOTTOM OF VIRTUAL BANDS - BAND    199; K    1; EIG -9.4481228E-02 AU
 DIRECT ENERGY BAND GAP:   3.5714 eV
 TTTTTTTTTTTTTTTTTTTTTTTTTTTTTT PDIG        TELAPSE      203.68 TCPU     5333.30
 CHARGE NORMALIZATION FACTOR   1.00000000
 TOTAL ATOMIC CHARGES:
   4.4469270   4.4397103   4.4729070   4.4981426   4.4729439   4.4982312
   4.4978396   4.4725250   4.4976695   4.4724561   4.4394206   4.4465160
   0.8789405   0.8644360   0.8644264   0.8791773   0.8797081   0.8781762
   0.8783313   0.8797590   0.8736727   0.8641712   0.8645439   0.8737329
   0.8736806   0.8641900   0.8644988   0.8736617   0.8796754   0.8781744
   0.8783805   0.8798099   0.8789187   0.8644040   0.8644026   0.8791271
   5.9181938   5.9378473   6.1805736   6.1531749   6.1527365   6.1804851
   6.1766036   6.1767480   6.1757462   6.1749502   5.9362785   5.9165219
   5.9515577   5.9834831   6.1798227   6.1640239   6.1633667   6.1793907
   6.1799313   6.1641145   6.1631367   6.1793194   5.9819105   5.9504902
   5.9184067   5.9380847   6.1765712   6.1766876   6.1758609   6.1750191
   6.1805587   6.1531379   6.1526836   6.1803964   5.9360877   5.9163876
   8.4962165   8.4953116   8.4963905   8.4955151   8.5201864   8.4897025
   8.4952100   8.4964307   8.4897524   8.5196203   8.4954557   8.4966311
 TTTTTTTTTTTTTTTTTTTTTTTTTTTTTT MOQGAD      TELAPSE      203.80 TCPU     5333.41
 TTTTTTTTTTTTTTTTTTTTTTTTTTTTTT SHELLXN     TELAPSE      232.47 TCPU     6248.44
 TTTTTTTTTTTTTTTTTTTTTTTTTTTTTT MONMO3      TELAPSE      233.13 TCPU     6269.64
 NUMERICALLY INTEGRATED DENSITY    396.0000844538
 TTTTTTTTTTTTTTTTTTTTTTTTTTTTTT NUMDFT      TELAPSE      234.85 TCPU     6324.43
 CYC   5 ETOT(AU) -2.578233681220E+03 DETOT -4.57E-03 tst  9.48E-05 PX  1.51E-02
 TTTTTTTTTTTTTTTTTTTTTTTTTTTTTT DIIS        TELAPSE      235.08 TCPU     6331.25
 DIIS TEST: 0.21218E-02 AT SCF   CYCLE   5 - DIIS ACTIVE - HISTORY:     5 CYCLES
 TTTTTTTTTTTTTTTTTTTTTTTTTTTTTT FDIK        TELAPSE      236.89 TCPU     6388.71
 INSULATING STATE
 TOP OF VALENCE BANDS -    BAND    198; K    1; EIG -2.2506663E-01 AU
 BOTTOM OF VIRTUAL BANDS - BAND    199; K    1; EIG -9.4363502E-02 AU
 DIRECT ENERGY BAND GAP:   3.5566 eV
 TTTTTTTTTTTTTTTTTTTTTTTTTTTTTT PDIG        TELAPSE      238.51 TCPU     6395.59
 CHARGE NORMALIZATION FACTOR   1.00000000
 TOTAL ATOMIC CHARGES:
   4.4459886   4.4400841   4.4741455   4.4978532   4.4741827   4.4979394
   4.4980460   4.4742973   4.4978785   4.4742310   4.4403065   4.4458476
   0.8802896   0.8655277   0.8656664   0.8803651   0.8810246   0.8804429
   0.8804898   0.8810256   0.8779897   0.8659067   0.8659747   0.8782320
   0.8780127   0.8659343   0.8659172   0.8781511   0.8810008   0.8804393
   0.8805410   0.8810653   0.8802745   0.8654929   0.8656460   0.8803099
   5.9160345   5.9263697   6.1797908   6.1542587   6.1544458   6.1799653
   6.1742394   6.1717518   6.1726165   6.1756292   5.9287568   5.9181401
   5.9265918   5.9885174   6.1689663   6.1698665   6.1704636   6.1693540
   6.1688982   6.1698502   6.1703652   6.1694316   5.9904166   5.9282038
   5.9161743   5.9265417   6.1741835   6.1716762   6.1727500   6.1757318
   6.1796853   6.1541548   6.1544617   6.1799569   5.9286276   5.9180770
   8.4999014   8.5007780   8.5001323   8.5010162   8.5254057   8.4916184
   8.5009569   8.4998840   8.4916530   8.5258097   8.5012393   8.5001403
 TTTTTTTTTTTTTTTTTTTTTTTTTTTTTT MOQGAD      TELAPSE      238.62 TCPU     6395.70
 TTTTTTTTTTTTTTTTTTTTTTTTTTTTTT SHELLXN     TELAPSE      267.26 TCPU     7309.65
 TTTTTTTTTTTTTTTTTTTTTTTTTTTTTT MONMO3      TELAPSE      267.92 TCPU     7330.87
 NUMERICALLY INTEGRATED DENSITY    396.0000843090
 TTTTTTTTTTTTTTTTTTTTTTTTTTTTTT NUMDFT      TELAPSE      269.62 TCPU     7385.10
 CYC   6 ETOT(AU) -2.578234150243E+03 DETOT -4.69E-04 tst  9.21E-06 PX  5.98E-03
 TTTTTTTTTTTTTTTTTTTTTTTTTTTTTT DIIS        TELAPSE      269.87 TCPU     7391.85
 DIIS TEST: 0.25425E-03 AT SCF   CYCLE   6 - DIIS ACTIVE - HISTORY:     6 CYCLES
 TTTTTTTTTTTTTTTTTTTTTTTTTTTTTT FDIK        TELAPSE      271.73 TCPU     7451.13
 INSULATING STATE
 TOP OF VALENCE BANDS -    BAND    198; K    1; EIG -2.2482928E-01 AU
 BOTTOM OF VIRTUAL BANDS - BAND    199; K    1; EIG -9.4026622E-02 AU
 DIRECT ENERGY BAND GAP:   3.5593 eV
 TTTTTTTTTTTTTTTTTTTTTTTTTTTTTT PDIG        TELAPSE      273.36 TCPU     7458.00
 CHARGE NORMALIZATION FACTOR   1.00000000
 TOTAL ATOMIC CHARGES:
   4.4477765   4.4396901   4.4737618   4.4974891   4.4738032   4.4975760
   4.4972355   4.4734551   4.4970671   4.4733850   4.4394473   4.4473967
   0.8804384   0.8665806   0.8665943   0.8806327   0.8814698   0.8803916
   0.8805353   0.8815095   0.8779001   0.8660120   0.8663168   0.8779968
   0.8779156   0.8660348   0.8662665   0.8779209   0.8814434   0.8803924
   0.8805825   0.8815516   0.8804221   0.8665499   0.8665689   0.8805788
   5.9181761   5.9285788   6.1816445   6.1510631   6.1508020   6.1816495
   6.1734118   6.1749700   6.1742366   6.1722177   5.9277102   5.9172283
   5.9328134   5.9886399   6.1706608   6.1684777   6.1680949   6.1703937
   6.1706974   6.1685299   6.1679137   6.1703793   5.9878557   5.9323466
   5.9183510   5.9287752   6.1733486   6.1748884   6.1743728   6.1723282
   6.1815823   6.1509912   6.1507893   6.1815974   5.9275568   5.9171296
   8.4987298   8.4994460   8.4989254   8.4996647   8.5251809   8.4925767
   8.4994297   8.4989279   8.4926000   8.5247845   8.4996957   8.4991474
 TTTTTTTTTTTTTTTTTTTTTTTTTTTTTT MOQGAD      TELAPSE      273.47 TCPU     7458.11
 TTTTTTTTTTTTTTTTTTTTTTTTTTTTTT SHELLXN     TELAPSE      302.18 TCPU     8374.14
 TTTTTTTTTTTTTTTTTTTTTTTTTTTTTT MONMO3      TELAPSE      302.83 TCPU     8395.11
 NUMERICALLY INTEGRATED DENSITY    396.0000843913
 TTTTTTTTTTTTTTTTTTTTTTTTTTTTTT NUMDFT      TELAPSE      304.60 TCPU     8451.59
 CYC   7 ETOT(AU) -2.578234200485E+03 DETOT -5.02E-05 tst  6.87E-07 PX  1.35E-03
 TTTTTTTTTTTTTTTTTTTTTTTTTTTTTT DIIS        TELAPSE      304.89 TCPU     8458.66
 DIIS TEST: 0.51405E-04 AT SCF   CYCLE   7 - DIIS ACTIVE - HISTORY:     7 CYCLES
 TTTTTTTTTTTTTTTTTTTTTTTTTTTTTT FDIK        TELAPSE      306.76 TCPU     8518.10
 INSULATING STATE
 TOP OF VALENCE BANDS -    BAND    198; K    1; EIG -2.2500608E-01 AU
 BOTTOM OF VIRTUAL BANDS - BAND    199; K    1; EIG -9.4117339E-02 AU
 DIRECT ENERGY BAND GAP:   3.5617 eV
 TTTTTTTTTTTTTTTTTTTTTTTTTTTTTT PDIG        TELAPSE      308.39 TCPU     8524.99
 CHARGE NORMALIZATION FACTOR   1.00000000
 TOTAL ATOMIC CHARGES:
   4.4474518   4.4396396   4.4737719   4.4975977   4.4738113   4.4976845
   4.4976328   4.4737600   4.4974642   4.4736914   4.4396996   4.4472277
   0.8805125   0.8661507   0.8662444   0.8806340   0.8812432   0.8804254
   0.8805051   0.8812564   0.8777476   0.8660686   0.8662223   0.8779357
   0.8777665   0.8660947   0.8661682   0.8778571   0.8812176   0.8804235
   0.8805548   0.8812980   0.8804968   0.8661182   0.8662215   0.8805794
   5.9169272   5.9285233   6.1801653   6.1524413   6.1524499   6.1802697
   6.1738040   6.1733560   6.1736539   6.1742728   5.9297429   5.9179251
   5.9318585   5.9882144   6.1704792   6.1681520   6.1683893   6.1706344
   6.1704675   6.1681672   6.1682489   6.1706648   5.9891270   5.9327046
   5.9170856   5.9287101   6.1737484   6.1732804   6.1737853   6.1743737
   6.1800845   6.1523547   6.1524491   6.1802378   5.9295995   5.9178442
   8.4986041   8.4994239   8.4988179   8.4996522   8.5247584   8.4917990
   8.4995206   8.4986575   8.4918357   8.5248727   8.4997947   8.4988958
 TTTTTTTTTTTTTTTTTTTTTTTTTTTTTT MOQGAD      TELAPSE      308.51 TCPU     8525.10
 TTTTTTTTTTTTTTTTTTTTTTTTTTTTTT SHELLXN     TELAPSE      337.07 TCPU     9436.65
 TTTTTTTTTTTTTTTTTTTTTTTTTTTTTT MONMO3      TELAPSE      337.73 TCPU     9457.63
 NUMERICALLY INTEGRATED DENSITY    396.0000844044
 TTTTTTTTTTTTTTTTTTTTTTTTTTTTTT NUMDFT      TELAPSE      339.50 TCPU     9514.10
 CYC   8 ETOT(AU) -2.578234212995E+03 DETOT -1.25E-05 tst  9.87E-08 PX  4.87E-04
 TTTTTTTTTTTTTTTTTTTTTTTTTTTTTT DIIS        TELAPSE      339.79 TCPU     9520.87
 DIIS TEST: 0.23087E-05 AT SCF   CYCLE   8 - DIIS ACTIVE - HISTORY:     8 CYCLES
 TTTTTTTTTTTTTTTTTTTTTTTTTTTTTT FDIK        TELAPSE      341.64 TCPU     9579.56
 INSULATING STATE
 TOP OF VALENCE BANDS -    BAND    198; K    1; EIG -2.2500953E-01 AU
 BOTTOM OF VIRTUAL BANDS - BAND    199; K    1; EIG -9.4138846E-02 AU
 DIRECT ENERGY BAND GAP:   3.5612 eV
 TTTTTTTTTTTTTTTTTTTTTTTTTTTTTT PDIG        TELAPSE      343.27 TCPU     9586.45
 CHARGE NORMALIZATION FACTOR   1.00000000
 TOTAL ATOMIC CHARGES:
   4.4472295   4.4398271   4.4739219   4.4977341   4.4739612   4.4978208
   4.4976685   4.4738062   4.4975001   4.4737379   4.4397817   4.4469491
   0.8804542   0.8661540   0.8662186   0.8806016   0.8812438   0.8803884
   0.8804910   0.8812669   0.8777087   0.8660007   0.8662098   0.8778649
   0.8777271   0.8660259   0.8661563   0.8777870   0.8812179   0.8803868
   0.8805403   0.8813088   0.8804381   0.8661216   0.8661955   0.8805473
   5.9173203   5.9287997   6.1802716   6.1524632   6.1523751   6.1803379
   6.1741188   6.1734478   6.1733765   6.1739945   5.9292653   5.9176146
   5.9319825   5.9884114   6.1706282   6.1683543   6.1683611   6.1706217
   6.1706237   6.1683775   6.1682143   6.1706446   5.9887044   5.9323494
   5.9174824   5.9289894   6.1740632   6.1733718   6.1735081   6.1740953
   6.1801949   6.1523804   6.1523714   6.1803022   5.9291192   5.9175296
   8.4987268   8.4994997   8.4989372   8.4997261   8.5247123   8.4916896
   8.4995574   8.4988323   8.4917195   8.5246427   8.4998293   8.4990677
 TTTTTTTTTTTTTTTTTTTTTTTTTTTTTT MOQGAD      TELAPSE      343.38 TCPU     9586.56
 TTTTTTTTTTTTTTTTTTTTTTTTTTTTTT SHELLXN     TELAPSE      372.04 TCPU    10500.81
 TTTTTTTTTTTTTTTTTTTTTTTTTTTTTT MONMO3      TELAPSE      372.70 TCPU    10522.03
 NUMERICALLY INTEGRATED DENSITY    396.0000844009
 TTTTTTTTTTTTTTTTTTTTTTTTTTTTTT NUMDFT      TELAPSE      374.40 TCPU    10576.31
 CYC   9 ETOT(AU) -2.578234213047E+03 DETOT -5.15E-08 tst  8.18E-09 PX  1.25E-04
 TTTTTTTTTTTTTTTTTTTTTTTTTTTTTT DIIS        TELAPSE      374.73 TCPU    10583.15
 DIIS TEST: 0.71443E-06 AT SCF   CYCLE   9 - DIIS ACTIVE - HISTORY:     9 CYCLES
 TTTTTTTTTTTTTTTTTTTTTTTTTTTTTT FDIK        TELAPSE      376.54 TCPU    10640.61
 INSULATING STATE
 TOP OF VALENCE BANDS -    BAND    198; K    1; EIG -2.2499781E-01 AU
 BOTTOM OF VIRTUAL BANDS - BAND    199; K    1; EIG -9.4134067E-02 AU
 DIRECT ENERGY BAND GAP:   3.5610 eV
 TTTTTTTTTTTTTTTTTTTTTTTTTTTTTT PDIG        TELAPSE      378.16 TCPU    10647.48
 CHARGE NORMALIZATION FACTOR   1.00000000
 TOTAL ATOMIC CHARGES:
   4.4472313   4.4398145   4.4738830   4.4976940   4.4739222   4.4977807
   4.4976728   4.4738132   4.4975044   4.4737449   4.4398158   4.4469755
   0.8804456   0.8661695   0.8662470   0.8805816   0.8812720   0.8803769
   0.8804699   0.8812910   0.8776939   0.8660076   0.8661923   0.8778637
   0.8777122   0.8660329   0.8661390   0.8777858   0.8812462   0.8803754
   0.8805192   0.8813328   0.8804296   0.8661371   0.8662239   0.8805272
   5.9171435   5.9285767   6.1803834   6.1523266   6.1522823   6.1804683
   6.1738709   6.1735047   6.1735935   6.1740033   5.9293694   5.9177445
   5.9319912   5.9881919   6.1706117   6.1682897   6.1684005   6.1706793
   6.1706073   6.1683121   6.1682536   6.1707023   5.9887540   5.9325671
   5.9173052   5.9287656   6.1738145   6.1734285   6.1737254   6.1741049
   6.1803063   6.1522433   6.1522789   6.1804327   5.9292240   5.9176600
   8.4987421   8.4994709   8.4989527   8.4996975   8.5247145   8.4917868
   8.4995456   8.4988251   8.4918196   8.5247247   8.4998179   8.4990604
 TTTTTTTTTTTTTTTTTTTTTTTTTTTTTT MOQGAD      TELAPSE      378.27 TCPU    10647.60
 TTTTTTTTTTTTTTTTTTTTTTTTTTTTTT SHELLXN     TELAPSE      406.94 TCPU    11562.30
 +++ ENERGIES IN A.U. +++
 ::: EXT EL-POLE                                  -3.1112463527207E+03
 ::: EXT EL-SPHEROPOLE                             3.5843749862104E+01
 ::: BIELET ZONE E-E                               4.8667722746677E+03
 ::: TOTAL E-E                                     1.7913696718090E+03
 ::: TOTAL E-N + N-E                              -7.2271704913945E+03
 ::: TOTAL N-N                                     5.6507499374702E+02
 ::: KINETIC ENERGY                                2.5599659083874E+03
 ::: PSEUDO TOTAL   ENERGY                        -2.3107599174510E+03
 ::: VIRIAL COEFFICIENT                            1.0511640358844E+00
 TTTTTTTTTTTTTTTTTTTTTTTTTTTTTT MONMO3      TELAPSE      407.60 TCPU    11583.52
 NUMERICALLY INTEGRATED DENSITY    396.0000844002
 EXCHANGE ENERGY: -0.252047623056E+03  CORRELATION ENERGY: -0.154266727483E+02
 TTTTTTTTTTTTTTTTTTTTTTTTTTTTTT NUMDFT      TELAPSE      409.30 TCPU    11637.77
 CYC  10 ETOT(AU) -2.578234213256E+03 DETOT -2.09E-07 tst  1.54E-09 PX  1.25E-04

 == SCF ENDED - CONVERGENCE ON ENERGY      E(AU) -2.5782342132557E+03 CYCLES  10


 ENERGY EXPRESSION=HARTREE+FOCK EXCH*0.00000+(HSESOL     EXCH)*1.00000+PBESOL     CORR


 TOTAL ENERGY(DFT)(AU)( 10) -2.5782342132557E+03 DE-2.1E-07 tester 1.5E-09
 TTTTTTTTTTTTTTTTTTTTTTTTTTTTTT EDFT        TELAPSE      409.30 TCPU    11637.78
 
 INFORMATION **** DFTD3 ENERGY **** CALCULATE DFTD3 ENERGY

           DFT-D V3(BJ)
 DF                                         hsesol3c  
 parameters
 s6       :    1.0000
 s8       :    0.0000
 a1       :    0.5196
 a2       :    4.9385
 k1 k3    :   16.0000   -4.0000
 Cutoff   :   50.2022
 CN-Cutoff:   21.1671
 ABC-Cutoff:   21.1671
 
 Edisp /kcal,au:   -63.6311 -0.10140266

 E6    /kcal :   -68.5342
 E8    /kcal :     0.0000
 E6(ABC) "   :   4.903029
 
 INFORMATION **** DFTD3 ENERGY **** NORMAL TERMINATION OF DFTD3 MODULE

 GCP ENERGY CALCULATION
  level        hsesol3c            basis:hsesol3c
  Nbf            948
  Atoms           84

  Parameters: 
  sigma     1.0000
  eta       1.4281
  alpha     0.2936
  beta      1.9467

  dmp_scal      4.0000
  dmp_exp       6.0000
 cutoffs: 
   distance [bohr] 60.0
   noise    [a.u.] 2.2E-16
 SR-damping   T
 ** gCP correction **
  Egcp:        0.1699904494 / (a.u.) ||     106.6706 / (kcal/mol)
 INFORMATION **** GCP **** NORMAL TERMINATION OF GCP MODULE

 *******************************************************************************

 DFT-D3-GCP DISPERSION AND COUNTERPOISE CORRECTION

 D3 DISPERSION ENERGY (AU)      -1.0140266070412E-01
 GCP ENERGY (AU)                 1.6999044941388E-01
 TOTAL ENERGY + DISP + GCP (AU) -2.5781656254670E+03

 *******************************************************************************

 EIGENVECTORS IN FORTRAN UNIT  8
 TTTTTTTTTTTTTTTTTTTTTTTTTTTTTT END         TELAPSE      413.02 TCPU    11647.28
 EEEEEEEEEE TERMINATION  DATE 19 02 2026 TIME 19:55:48.7
