 Default number of threads is:           32

         
 *******************************************************************************
 *                                                                             *
 *                               CRYSTAL23                                     *
 *                      public : 1.0.1 - October 2022                          *
 *                       HTTP://WWW.CRYSTAL.UNITO.IT                           *
 *                                                                             *
 *                              MAIN AUTHORS                                   *
 *                                                                             *
 *  R. DOVESI(1,11), V.R. SAUNDERS(2), C. ROETTI(1,11), R. ORLANDO(1,11),      *
 *  C.M. ZICOVICH-WILSON(1,3), F. PASCALE(4), B. CIVALLERI(1,11),              *
 *  K. DOLL(5), N.M. HARRISON(6), I.J. BUSH(7), Ph. D'ARCO(8),                 *
 *  M. LLUNELL(9), M. CAUSA'(10), Y. NOEL(8), L. MASCHIO(1,11), A. ERBA(1,11)  *
 *  M. RE'RAT(14), S. CASASSA(1,11), B.G. SEARLE(2), J.K. DESMARAIS(1)         *
 *                                                                             *
 *        CONTRIBUTIONS TO THE CODE HAVE ALSO BEEN GIVEN BY                    *
 *                                                                             *
 *  M. FERRABONE(1,11), M. DE LA PIERRE(1,11), M. FERRERO(1,11),               *
 *  J. BAIMA(1,11), E. ALBANESE(1,11), M.F. PEINTINGER(12), R. BAST(13),       *
 *  B. KIRTMAN(15), V. LACIVITA(1,11), R. DEMICHELIS(1,16)                     *
 *  G. BRANDEBURG(17), S. SALUSTRO(1,11), G. SANSONE(1,11)                     *
 *  M.T. RUGGIERO(18), L.E. DAGA(1), L. DONA'(1), A. COSSARD(1)                *
 *                                                                             *
 * (1) THEORETICAL CHEMISTRY GROUP - UNIVERSITA' DI TORINO - TORINO (ITALY)    *
 * (2) SCIENTIFIC COMPUTING DEPARTMENT - STFC DARESBURY (UK)                   *
 * (3) UNIVERSIDAD AUTONOMA DEL ESTADO DE MORELOS - CUERNAVACA (MEXICO)        *
 * (4) UNIVERSITE' DE LORRAINE - NANCY (FRANCE)                                *
 * (5) UNIVERSITAET STUTTGART- STUTTGART (GERMANY)                             *
 * (6) IMPERIAL COLLEGE - LONDON (UK)                                          *
 * (7) SCIENTIFIC COMPUTING DEPARTMENT - STFC RAL (UK)                         *
 * (8) UPMC - SORBONNE UNIVERSITES - PARIS (FRANCE)                            *
 * (9) UNIVERSIDAD DE BARCELONA - BARCELONA (SPAIN)                            *
 *(10) UNIVERSITA' DI NAPOLI "FEDERICO II" - NAPOLI (ITALY)                    *
 *(11) NIS - NANOSTRUCTURED INTERFACES AND SURFACES - TORINO (ITALY)           *
 *(12) MPI FUER CHEMISCHE ENERGIEKONVERSION - MUELHEIM AN DER RUHR (GERMANY)   *
 *(13) UNIVERSITY OF TROMSO - TROMSO (NORWAY)                                  *
 *(14) UNIVERSITE' DE PAU ET DES PAYS DE L'ADOUR - PAU (FRANCE)                *
 *(15) UNIVERSITY OF CALIFORNIA SANTA BARBARA - SANTA BARBARA (USA)            *
 *(16) CURTIN UNIVERSITY - PERTH (AUSTRALIA)                                   *
 *(17) UNIVERSITY COLLEGE LONDON - LONDON (UK)                                 *
 *(18) UNIVERSITY OF VERMONT - BURLINGTON (USA)                                *
 *                                                                             *
 *******************************************************************************
 EEEEEEEEEE STARTING  DATE 19 02 2026 TIME 18:56:36.8
 cof-1_z38_L030_incl                                                             

 CRYSTAL CALCULATION
 (INPUT ACCORDING TO THE INTERNATIONAL TABLES FOR X-RAY CRYSTALLOGRAPHY)
 CRYSTAL FAMILY                       :  TRICLINIC   
 CRYSTAL CLASS  (GROTH - 1921)        :  TRICLINIC PEDIAL                     

 SPACE GROUP (NONCENTROSYMMETRIC)     :  P 1             

 LATTICE PARAMETERS  (ANGSTROMS AND DEGREES) - CONVENTIONAL CELL
        A           B           C        ALPHA        BETA       GAMMA
    15.02361    15.02392     4.84149    57.54445    89.99996   119.99596


 NUMBER OF IRREDUCIBLE ATOMS IN THE CONVENTIONAL CELL:   42

 INPUT COORDINATES

 ATOM AT. N.              COORDINATES
   1   5     5.559010000000E-01  1.117473900000E-01  5.012546800000E-01
   2   5     7.149566500000E-01  2.708070400000E-01  5.012547000000E-01
   3   5     5.562013800000E-01  2.713992000000E-01  4.986117700000E-01
   4   5     1.694757000000E-01  4.980623800000E-01  5.012547000000E-01
   5   5     3.285836800000E-01  4.980416100000E-01  5.012546900000E-01
   6   5     3.288686100000E-01  6.577901800000E-01  4.986117700000E-01
   7   1     8.458956800000E-01  1.946225400000E-01  4.957753700000E-01
   8   1     3.958317000000E-02  5.769391200000E-01  4.949374800000E-01
   9   1     8.459349200000E-01  4.799878400000E-01  4.948085300000E-01
  10   1     3.969598000000E-02  2.915929400000E-01  4.948406900000E-01
  11   1     6.329110500000E-01 -1.925040000000E-02  5.042199900000E-01
  12   1     2.507117800000E-01  7.869895900000E-01  5.050579200000E-01
  13   1     3.476371700000E-01 -1.942749000000E-02  5.051869500000E-01
  14   1     5.360831300000E-01  7.868773100000E-01  5.051545700000E-01
  15   1     6.339247900000E-01  4.797466900000E-01  4.957754200000E-01
  16   1     2.519104800000E-01  2.914950200000E-01  4.949374300000E-01
  17   1     3.488040800000E-01  1.947386800000E-01  4.948084300000E-01
  18   1     5.372506600000E-01  5.768659000000E-01  4.948407900000E-01
  19   6     8.344265600000E-01  3.310045100000E-01  4.985150700000E-01
  20   6     8.893263000000E-01  2.784484000000E-01  4.959043100000E-01
  21   6    -3.748690000000E-03  4.929000600000E-01  4.956787800000E-01
  22   6     8.892372800000E-01  4.392509000000E-01  4.963556300000E-01
  23   6    -3.587860000000E-03  3.322099800000E-01  4.946150700000E-01
  24   6     5.081735000000E-02  4.395869100000E-01  4.963878300000E-01
  25   6     4.962338700000E-01 -7.454400000000E-03  5.014803200000E-01
  26   6     5.490713600000E-01 -6.266885000000E-02  5.040910300000E-01
  27   6     3.346661700000E-01  8.303863500000E-01  5.043166500000E-01
  28   6     3.882331000000E-01 -6.251790000000E-02  5.036398200000E-01
  29   6     4.954617500000E-01  8.301015200000E-01  5.053802400000E-01
  30   6     3.878771500000E-01  7.758787400000E-01  5.036075500000E-01
  31   6     4.965811200000E-01  3.309353700000E-01  4.985150600000E-01
  32   6     5.500474100000E-01  4.392885300000E-01  4.959043700000E-01
  33   6     3.356865700000E-01  3.318868100000E-01  4.956787200000E-01
  34   6     3.890724400000E-01  2.782487200000E-01  4.963555500000E-01
  35   6     4.967287600000E-01  4.930580000000E-01  4.946151400000E-01
  36   6     3.887414400000E-01  4.395095100000E-01  4.963878300000E-01
  37   8     5.031800500000E-01  1.652456700000E-01  4.993208300000E-01
  38   8     6.614823300000E-01  1.639677600000E-01  5.048967800000E-01
  39   8     6.624497300000E-01  3.248524500000E-01  4.964845400000E-01
  40   8     2.227678800000E-01  6.045261400000E-01  4.993208600000E-01
  41   8     2.221446000000E-01  4.442850400000E-01  5.048967800000E-01
  42   8     3.820341500000E-01  6.051644100000E-01  4.964845200000E-01

 *******************************************************************************

 << INFORMATION >>: FROM NOW ON, ALL COORDINATES REFER TO THE PRIMITIVE CELL

 *******************************************************************************

 LATTICE PARAMETERS  (ANGSTROMS AND DEGREES) - PRIMITIVE CELL
       A          B          C        ALPHA      BETA     GAMMA        VOLUME
   15.02361   15.02392    4.84149    57.54445  89.99996 119.99596    742.833305

 COORDINATES OF THE EQUIVALENT ATOMS (FRACTIONAL UNITS)

 N. ATOM EQUIV AT. N.          X                  Y                  Z

   1   1   1    5 B    -4.44099000000E-01  1.11747390000E-01 -4.98745320000E-01

   2   2   1    5 B    -2.85043350000E-01  2.70807040000E-01 -4.98745300000E-01

   3   3   1    5 B    -4.43798620000E-01  2.71399200000E-01  4.98611770000E-01

   4   4   1    5 B     1.69475700000E-01  4.98062380000E-01 -4.98745300000E-01

   5   5   1    5 B     3.28583680000E-01  4.98041610000E-01 -4.98745310000E-01

   6   6   1    5 B     3.28868610000E-01 -3.42209820000E-01  4.98611770000E-01

   7   7   1    1 H    -1.54104320000E-01  1.94622540000E-01  4.95775370000E-01

   8   8   1    1 H     3.95831700000E-02 -4.23060880000E-01  4.94937480000E-01

   9   9   1    1 H    -1.54065080000E-01  4.79987840000E-01  4.94808530000E-01

  10  10   1    1 H     3.96959800000E-02  2.91592940000E-01  4.94840690000E-01

  11  11   1    1 H    -3.67088950000E-01 -1.92504000000E-02 -4.95780010000E-01

  12  12   1    1 H     2.50711780000E-01 -2.13010410000E-01 -4.94942080000E-01

  13  13   1    1 H     3.47637170000E-01 -1.94274900000E-02 -4.94813050000E-01

  14  14   1    1 H    -4.63916870000E-01 -2.13122690000E-01 -4.94845430000E-01

  15  15   1    1 H    -3.66075210000E-01  4.79746690000E-01  4.95775420000E-01

  16  16   1    1 H     2.51910480000E-01  2.91495020000E-01  4.94937430000E-01

  17  17   1    1 H     3.48804080000E-01  1.94738680000E-01  4.94808430000E-01

  18  18   1    1 H    -4.62749340000E-01 -4.23134100000E-01  4.94840790000E-01

  19  19   1    6 C    -1.65573440000E-01  3.31004510000E-01  4.98515070000E-01

  20  20   1    6 C    -1.10673700000E-01  2.78448400000E-01  4.95904310000E-01

  21  21   1    6 C    -3.74869000000E-03  4.92900060000E-01  4.95678780000E-01

  22  22   1    6 C    -1.10762720000E-01  4.39250900000E-01  4.96355630000E-01

  23  23   1    6 C    -3.58786000000E-03  3.32209980000E-01  4.94615070000E-01

  24  24   1    6 C     5.08173500000E-02  4.39586910000E-01  4.96387830000E-01

  25  25   1    6 C     4.96233870000E-01 -7.45440000000E-03 -4.98519680000E-01

  26  26   1    6 C    -4.50928640000E-01 -6.26688500000E-02 -4.95908970000E-01

  27  27   1    6 C     3.34666170000E-01 -1.69613650000E-01 -4.95683350000E-01

  28  28   1    6 C     3.88233100000E-01 -6.25179000000E-02 -4.96360180000E-01

  29  29   1    6 C     4.95461750000E-01 -1.69898480000E-01 -4.94619760000E-01

  30  30   1    6 C     3.87877150000E-01 -2.24121260000E-01 -4.96392450000E-01

  31  31   1    6 C     4.96581120000E-01  3.30935370000E-01  4.98515060000E-01

  32  32   1    6 C    -4.49952590000E-01  4.39288530000E-01  4.95904370000E-01

  33  33   1    6 C     3.35686570000E-01  3.31886810000E-01  4.95678720000E-01

  34  34   1    6 C     3.89072440000E-01  2.78248720000E-01  4.96355550000E-01

  35  35   1    6 C     4.96728760000E-01  4.93058000000E-01  4.94615140000E-01

  36  36   1    6 C     3.88741440000E-01  4.39509510000E-01  4.96387830000E-01

  37  37   1    8 O    -4.96819950000E-01  1.65245670000E-01  4.99320830000E-01

  38  38   1    8 O    -3.38517670000E-01  1.63967760000E-01 -4.95103220000E-01

  39  39   1    8 O    -3.37550270000E-01  3.24852450000E-01  4.96484540000E-01

  40  40   1    8 O     2.22767880000E-01 -3.95473860000E-01  4.99320860000E-01

  41  41   1    8 O     2.22144600000E-01  4.44285040000E-01 -4.95103220000E-01

  42  42   1    8 O     3.82034150000E-01 -3.94835590000E-01  4.96484520000E-01

 NUMBER OF SYMMETRY OPERATORS         :    1
 *******************************************************************************
 * GEOMETRY EDITING - INPUT COORDINATES ARE GIVEN IN ANGSTROM         
 *******************************************************************************

 GCALCO - MAX INDICES DIRECT LATTICE VECTOR     9    11    31
 NO.OF VECTORS CREATED 6999 STARS 3500 RMAX   203.14778 BOHR

 GEOMETRY FOR WAVE FUNCTION - DIMENSIONALITY OF THE SYSTEM    3
 (NON PERIODIC DIRECTION: LATTICE PARAMETER FORMALLY SET TO 500)
 *******************************************************************************
 LATTICE PARAMETERS (ANGSTROMS AND DEGREES) - BOHR = 0.5291772083 ANGSTROM
 PRIMITIVE CELL - CENTRING CODE 1/0 VOLUME=   742.833305 - DENSITY  0.872 g/cm^3
         A              B              C           ALPHA      BETA       GAMMA 
    15.02361100    15.02391600     4.84148700    57.544453  89.999956 119.995964
 *******************************************************************************
 ATOMS IN THE ASYMMETRIC UNIT   42 - ATOMS IN THE UNIT CELL:   42
     ATOM                 X/A                 Y/B                 Z/C    
 *******************************************************************************
      1 T   5 B    -4.440990000000E-01  1.117473900000E-01 -4.987453200000E-01
      2 T   5 B    -2.850433500000E-01  2.708070400000E-01 -4.987453000000E-01
      3 T   5 B    -4.437986200000E-01  2.713992000000E-01  4.986117700000E-01
      4 T   5 B     1.694757000000E-01  4.980623800000E-01 -4.987453000000E-01
      5 T   5 B     3.285836800000E-01  4.980416100000E-01 -4.987453100000E-01
      6 T   5 B     3.288686100000E-01 -3.422098200000E-01  4.986117700000E-01
      7 T   1 H    -1.541043200000E-01  1.946225400000E-01  4.957753700000E-01
      8 T   1 H     3.958317000000E-02 -4.230608800000E-01  4.949374800000E-01
      9 T   1 H    -1.540650800000E-01  4.799878400000E-01  4.948085300000E-01
     10 T   1 H     3.969598000000E-02  2.915929400000E-01  4.948406900000E-01
     11 T   1 H    -3.670889500000E-01 -1.925040000000E-02 -4.957800100000E-01
     12 T   1 H     2.507117800000E-01 -2.130104100000E-01 -4.949420800000E-01
     13 T   1 H     3.476371700000E-01 -1.942749000000E-02 -4.948130500000E-01
     14 T   1 H    -4.639168700000E-01 -2.131226900000E-01 -4.948454300000E-01
     15 T   1 H    -3.660752100000E-01  4.797466900000E-01  4.957754200000E-01
     16 T   1 H     2.519104800000E-01  2.914950200000E-01  4.949374300000E-01
     17 T   1 H     3.488040800000E-01  1.947386800000E-01  4.948084300000E-01
     18 T   1 H    -4.627493400000E-01 -4.231341000000E-01  4.948407900000E-01
     19 T   6 C    -1.655734400000E-01  3.310045100000E-01  4.985150700000E-01
     20 T   6 C    -1.106737000000E-01  2.784484000000E-01  4.959043100000E-01
     21 T   6 C    -3.748690000000E-03  4.929000600000E-01  4.956787800000E-01
     22 T   6 C    -1.107627200000E-01  4.392509000000E-01  4.963556300000E-01
     23 T   6 C    -3.587860000000E-03  3.322099800000E-01  4.946150700000E-01
     24 T   6 C     5.081735000000E-02  4.395869100000E-01  4.963878300000E-01
     25 T   6 C     4.962338700000E-01 -7.454400000000E-03 -4.985196800000E-01
     26 T   6 C    -4.509286400000E-01 -6.266885000000E-02 -4.959089700000E-01
     27 T   6 C     3.346661700000E-01 -1.696136500000E-01 -4.956833500000E-01
     28 T   6 C     3.882331000000E-01 -6.251790000000E-02 -4.963601800000E-01
     29 T   6 C     4.954617500000E-01 -1.698984800000E-01 -4.946197600000E-01
     30 T   6 C     3.878771500000E-01 -2.241212600000E-01 -4.963924500000E-01
     31 T   6 C     4.965811200000E-01  3.309353700000E-01  4.985150600000E-01
     32 T   6 C    -4.499525900000E-01  4.392885300000E-01  4.959043700000E-01
     33 T   6 C     3.356865700000E-01  3.318868100000E-01  4.956787200000E-01
     34 T   6 C     3.890724400000E-01  2.782487200000E-01  4.963555500000E-01
     35 T   6 C     4.967287600000E-01  4.930580000000E-01  4.946151400000E-01
     36 T   6 C     3.887414400000E-01  4.395095100000E-01  4.963878300000E-01
     37 T   8 O    -4.968199500000E-01  1.652456700000E-01  4.993208300000E-01
     38 T   8 O    -3.385176700000E-01  1.639677600000E-01 -4.951032200000E-01
     39 T   8 O    -3.375502700000E-01  3.248524500000E-01  4.964845400000E-01
     40 T   8 O     2.227678800000E-01 -3.954738600000E-01  4.993208600000E-01
     41 T   8 O     2.221446000000E-01  4.442850400000E-01 -4.951032200000E-01
     42 T   8 O     3.820341500000E-01 -3.948355900000E-01  4.964845200000E-01

 T = ATOM BELONGING TO THE ASYMMETRIC UNIT

 ****    1 SYMMOPS - TRANSLATORS IN FRACTIONAL UNITS
 **** MATRICES AND TRANSLATORS IN THE CRYSTALLOGRAPHIC REFERENCE FRAME
   V INV                    ROTATION MATRICES                   TRANSLATORS
   1   1  1.00 -0.00  0.00  0.00  1.00  0.00  0.00  0.00  1.00  0.00  0.00  0.00

 DIRECT LATTICE VECTORS CARTESIAN COMPONENTS (ANGSTROM)
          X                    Y                    Z
   0.130113578931E+02  -0.751088897922E+01   0.000000000000E+00
   0.000000000000E+00   0.150239160000E+02   0.000000000000E+00
   0.149980881406E+01   0.259816027732E+01   0.380001750862E+01


 CARTESIAN COORDINATES - PRIMITIVE CELL
 *******************************************************************************
 *      ATOM          X(ANGSTROM)         Y(ANGSTROM)         Z(ANGSTROM)
 *******************************************************************************
    1     5 B    -6.526353655854E+00  3.718641406438E+00 -1.895240948342E+00
    2     5 B    -4.456823638795E+00  4.913690950324E+00 -1.895240872342E+00
    3     5 B     6.484948729173E+00 -1.402775014701E+00 -1.905284052616E+00
    4     5 B     1.457086389967E+00  4.914113965546E+00 -1.895240872342E+00
    5     5 B     3.527297246390E+00  3.718759519342E+00 -1.895240910342E+00
    6     5 B     3.527040697884E+00  6.109801808785E+00 -1.905284052616E+00
    7     1 H    -2.761347004725E+00  2.771396726893E+00 -1.916062422277E+00
    8     1 H     1.257342386323E+00 -5.367409019030E+00  1.880771089672E+00
    9     1 H    -1.262477700138E+00 -5.369861431840E+00  1.880281077414E+00
   10     1 H    -2.411437829454E-01  2.770230885093E+00 -1.919614222642E+00
   11     1 H    -4.020092121811E+00  3.777992305428E+00  1.916044790196E+00
   12     1 H     4.019591017611E+00 -3.771097426838E+00  1.919228938867E+00
   13     1 H     5.280915476156E+00 -1.590384500660E+00  1.919719255126E+00
   14     1 H    -5.278553151649E+00  1.594963251581E+00  1.919596210559E+00
   15     1 H    -4.019567228377E+00 -3.778587765094E+00  1.883955276343E+00
   16     1 H     2.520200118155E+00  1.175091539983E+00 -1.919246608948E+00
   17     1 H     3.780723949965E+00 -1.006659819717E+00 -1.919736811207E+00
   18     1 H    -5.278830699119E+00 -1.595796573015E+00  1.880403665979E+00
   19     6 C    -2.906466803555E+00  4.913649454809E+00 -1.905651514309E+00
   20     6 C    -2.196062279039E+00  3.704921847828E+00 -1.915572448020E+00
   21     6 C    -8.051609580921E-01  6.123137731430E+00 -1.916429465968E+00
   22     6 C    -6.967348423476E-01 -6.303109401230E+00  1.886160084502E+00
   23     6 C    -8.046637030358E-01  3.704971802134E+00 -1.920471582592E+00
   24     6 C    -9.411924340569E-02  4.914168201204E+00 -1.913735063554E+00
   25     6 C     7.208801085239E+00 -2.536225537447E+00  1.905633996228E+00
   26     6 C    -5.111153749388E+00  3.755052704671E+00  1.915554739938E+00
   27     6 C     5.110839869314E+00 -3.751606190803E+00  1.916412099888E+00
   28     6 C     5.806803251177E+00 -2.546702415854E+00  1.913840134038E+00
   29     6 C    -5.806754003084E+00  2.550049153980E+00  1.920453760510E+00
   30     6 C     5.802123459504E+00 -4.972028063512E+00  1.913717507473E+00
   31     6 C     5.709063142126E+00 -6.075871196720E-02 -1.905651552309E+00
   32     6 C    -5.110732438342E+00 -3.756099040633E+00  1.884445288601E+00
   33     6 C     3.611352601302E+00  1.154627479162E+00 -1.916429693969E+00
   34     6 C     4.306990377904E+00 -5.044350920696E-02 -1.913857728119E+00
   35     6 C     5.705135004615E+00  2.363716537974E+00 -1.920471316591E+00
   36     6 C     4.302732032270E+00  2.374895026713E+00 -1.913735063554E+00
   37     8 O     5.796132683015E+00 -2.597537157837E+00 -1.902589612201E+00
   38     8 O    -5.147134730718E+00  3.719648970445E+00 -1.881400904574E+00
   39     8 O    -2.147546666676E+00 -3.719950788483E+00  5.686667453378E+00
   40     8 O     2.147589626571E+00  6.108320479119E+00 -1.902589498200E+00
   41     8 O     2.147842721386E+00  3.720040173708E+00 -1.881400904574E+00
   42     8 O     4.215606098101E+00  4.914309255960E+00 -1.913367639861E+00

 *******************************************************************************
 STARTING BASIS SET HANDLING 
 *******************************************************************************

 Loading internal basis set: SOLDEF2MSVP         

 Please cite in your publication:
 L. Dona', J. G. Brandenburg and B. Civalleri, J. Chem. Phys., 151, 121101 (2019
 )                                                                              
                                                                                
                    

 *******************************************************************************
 LOCAL ATOMIC FUNCTIONS BASIS SET
 *******************************************************************************
   ATOM   X(AU)   Y(AU)   Z(AU)  N. TYPE  EXPONENT  S COEF   P COEF   D/F/G COEF
 *******************************************************************************
   1 B  -12.333   7.027  -3.581
                                  1 S  
                                         2.410E+03 1.755E-03 0.000E+00 0.000E+00
                                         3.619E+02 1.344E-02 0.000E+00 0.000E+00
                                         8.231E+01 6.637E-02 0.000E+00 0.000E+00
                                         2.311E+01 2.303E-01 0.000E+00 0.000E+00
                                         7.252E+00 5.150E-01 0.000E+00 0.000E+00
                                  2 S  
                                         2.367E+00 1.000E+00 0.000E+00 0.000E+00
                                  3 S  
                                         5.533E-01 1.000E+00 0.000E+00 0.000E+00
                                  4 S  
                                         1.716E-01 1.000E+00 0.000E+00 0.000E+00
                           5-     7 P  
                                         6.002E+00 0.000E+00-3.555E-02 0.000E+00
                                         1.240E+00 0.000E+00-1.983E-01 0.000E+00
                                         3.367E-01 0.000E+00-5.048E-01 0.000E+00
                           8-    10 P  
                                         1.256E-01 0.000E+00 1.000E+00 0.000E+00
                          11-    15 D  
                                         8.880E-01 0.000E+00 0.000E+00 1.000E+00
   2 B   -8.422   9.286  -3.581
   3 B   12.255  -2.651  -3.600
   4 B    2.753   9.286  -3.581
   5 B    6.666   7.027  -3.581
   6 B    6.665  11.546  -3.600
   7 H   -5.218   5.237  -3.621
                                 91 S  
                                         1.874E+01 1.968E-02 0.000E+00 0.000E+00
                                         2.826E+00 1.380E-01 0.000E+00 0.000E+00
                                         6.401E-01 4.783E-01 0.000E+00 0.000E+00
                                 92 S  
                                         1.756E-01 1.000E+00 0.000E+00 0.000E+00
   8 H    2.376 -10.143   3.554
   9 H   -2.386 -10.148   3.553
  10 H   -0.456   5.235  -3.628
  11 H   -7.597   7.139   3.621
  12 H    7.596  -7.126   3.627
  13 H    9.979  -3.005   3.628
  14 H   -9.975   3.014   3.628
  15 H   -7.596  -7.140   3.560
  16 H    4.762   2.221  -3.627
  17 H    7.145  -1.902  -3.628
  18 H   -9.976  -3.016   3.553
  19 C   -5.492   9.285  -3.601
                                115 S  
                                         3.624E+03 1.634E-03 0.000E+00 0.000E+00
                                         5.440E+02 1.252E-02 0.000E+00 0.000E+00
                                         1.237E+02 6.211E-02 0.000E+00 0.000E+00
                                         3.476E+01 2.182E-01 0.000E+00 0.000E+00
                                         1.093E+01 4.980E-01 0.000E+00 0.000E+00
                                116 S  
                                         3.574E+00 1.000E+00 0.000E+00 0.000E+00
                                117 S  
                                         7.742E-01 1.000E+00 0.000E+00 0.000E+00
                                118 S  
                                         2.330E-01 1.000E+00 0.000E+00 0.000E+00
                         119-   121 P  
                                         9.443E+00 0.000E+00 3.790E-02 0.000E+00
                                         2.002E+00 0.000E+00 2.082E-01 0.000E+00
                                         5.463E-01 0.000E+00 5.047E-01 0.000E+00
                         122-   124 P  
                                         1.820E-01 0.000E+00 1.000E+00 0.000E+00
                         125-   129 D  
                                         8.880E-01 0.000E+00 0.000E+00 1.000E+00
  20 C   -4.150   7.001  -3.620
  21 C   -1.522  11.571  -3.622
  22 C   -1.317 -11.911   3.564
  23 C   -1.521   7.001  -3.629
  24 C   -0.178   9.286  -3.616
  25 C   13.623  -4.793   3.601
  26 C   -9.659   7.096   3.620
  27 C    9.658  -7.090   3.621
  28 C   10.973  -4.813   3.617
  29 C  -10.973   4.819   3.629
  30 C   10.964  -9.396   3.616
  31 C   10.789  -0.115  -3.601
  32 C   -9.658  -7.098   3.561
  33 C    6.824   2.182  -3.622
  34 C    8.139  -0.095  -3.617
  35 C   10.781   4.467  -3.629
  36 C    8.131   4.488  -3.616
  37 O   10.953  -4.909  -3.595
                                385 S  
                                         6.773E+03 1.727E-03 0.000E+00 0.000E+00
                                         1.017E+03 1.325E-02 0.000E+00 0.000E+00
                                         2.313E+02 6.603E-02 0.000E+00 0.000E+00
                                         6.501E+01 2.353E-01 0.000E+00 0.000E+00
                                         2.050E+01 5.498E-01 0.000E+00 0.000E+00
                                386 S  
                                         6.716E+00 1.000E+00 0.000E+00 0.000E+00
                                387 S  
                                         1.147E+00 1.000E+00 0.000E+00 0.000E+00
                                388 S  
                                         3.342E-01 1.000E+00 0.000E+00 0.000E+00
                         389-   391 P  
                                         1.769E+01 0.000E+00 4.359E-02 0.000E+00
                                         3.854E+00 0.000E+00 2.318E-01 0.000E+00
                                         1.047E+00 0.000E+00 5.146E-01 0.000E+00
                         392-   394 P  
                                         2.759E-01 0.000E+00 1.000E+00 0.000E+00
                         395-   399 D  
                                         8.000E-01 0.000E+00 0.000E+00 1.000E+00
  38 O   -9.727   7.029  -3.555
  39 O   -4.058  -7.030  10.746
  40 O    4.058  11.543  -3.595
  41 O    4.059   7.030  -3.555
  42 O    7.966   9.287  -3.616

 *******************************************************************************
 FINISHED BASIS SET HANDLING 
 *******************************************************************************

 INFORMATION **** SET_MPP **** PCRYSTAL CALCULATION
 INFORMATION **** READM2 **** NEW DEFAULT: FOCK/KS MATRIX MIXING SET TO 30 %
 INFORMATION **** READM2 **** NEW DEFAULT: FULL DIRECT SCF MODE
 INFORMATION **** READM2 **** NEW DEFAULT: COULOMB BIPOLAR BUFFER SET TO 32 Mb
 INFORMATION **** READM2 **** NEW DEFAULT: EXCHANGE BIPOLAR BUFFER SET TO 32 Mb

 *******************************************************************************
 NEW DEFAULT: DFT INTEGRATION GRID INCREASED TO XLGRID
 NEW DEFAULT: DIIS ACCELERATOR ACTIVE
 USE KEYWORD NODIIS TO TURN IT OFF
 *******************************************************************************

 WARNING **** RDDFTP **** HSEsol-HJS ACTIVE
 RANGE SEPARATION - OMEGA:   0.110000000000000     
 WARNING **** RDDFTP **** HSEsol-3c has to be combined with sol-def2-mSVP basis set
 *******************************************************************************
 N. OF ATOMS PER CELL        42  COULOMB OVERLAP TOL         (T1) 10**   -6
 NUMBER OF SHELLS           234  COULOMB PENETRATION TOL     (T2) 10**   -6
 NUMBER OF AO               474  EXCHANGE OVERLAP TOL        (T3) 10**   -6
 N. OF ELECTRONS PER CELL   198  EXCHANGE PSEUDO OVP (F(G))  (T4) 10**   -6
 CORE ELECTRONS PER CELL     60  EXCHANGE PSEUDO OVP (P(G))  (T5) 10**  -12
 N. OF SYMMETRY OPERATORS     1  POLE ORDER IN MONO ZONE                  4
 *******************************************************************************
 TYPE OF CALCULATION :  RESTRICTED CLOSED SHELL
 KOHN-SHAM HAMILTONIAN

 (EXCHANGE)[CORRELATION] FUNCTIONAL:(HSEsol GGA)[PBEsol]

 RANGE-SEPARATED HYBRID FUNCTIONAL 
 OMEGA (SHORT-RANGE)[LONG-RANGE]:(    0.1100)[    0.0000]

 HYBRID EXCHANGE - PERCENTAGE OF FOCK EXCHANGE    25.0000

 CAPPA:IS1  2;IS2  2;IS3  8; K PTS MONK NET  20; SYMMOPS:K SPACE   2;G SPACE   1

 *******************************************************************************
 MAX NUMBER OF SCF CYCLES      50  CONVERGENCE ON DELTAP        10**-16
 WEIGHT OF F(I) IN F(I+1)      30% CONVERGENCE ON ENERGY        10**- 6
 SHRINK. FACT.(MONKH.)    2  2  8  NUMBER OF K POINTS IN THE IBZ     20
 SHRINKING FACTOR(GILAT NET)    8  NUMBER OF K POINTS(GILAT NET)   1028
 *******************************************************************************
 *** K POINTS COORDINATES (OBLIQUE COORDINATES IN UNITS OF IS =  2)
   1-R(  0  0  0)   2-R(  1  0  0)   3-R(  0  1  0)   4-R(  1  1  0)
   5-C(  0  0  1)   6-C(  1  0  1)   7-C(  0  1  1)   8-C(  1  1  1)
   9-C(  0  0  2)  10-C(  1  0  2)  11-C(  0  1  2)  12-C(  1  1  2)
  13-C(  0  0  3)  14-C(  1  0  3)  15-C(  0  1  3)  16-C(  1  1  3)
  17-R(  0  0  4)  18-R(  1  0  4)  19-R(  0  1  4)  20-R(  1  1  4)

 DIRECT LATTICE VECTORS COMPON. (A.U.)     RECIP. LATTICE VECTORS COMPON. (A.U.) 
        X            Y            Z              X            Y            Z
   24.5879030  -14.1935232    0.0000000      0.2555397    0.0000000   -0.1008576
    0.0000000   28.3910867    0.0000000      0.1277517    0.2213084   -0.2017353
    2.8342279    4.9098114    7.1809924      0.0000000    0.0000000    0.8749745

 DISK SPACE FOR EIGENVECTORS (FTN 10)     7189632 REALS

 SYMMETRY ADAPTION OF THE BLOCH FUNCTIONS DISABLED
 TTTTTTTTTTTTTTTTTTTTTTTTTTTTTT gordsh1     TELAPSE        0.04 TCPU        0.04

 MATRIX SIZE: P(G)  336630, F(G)   69642, P(G) IRR  169632, F(G) IRR   70302
 MAX G-VECTOR INDEX FOR 1- AND 2-ELECTRON INTEGRALS  79

 TTTTTTTTTTTTTTTTTTTTTTTTTTTTTT INPUT       TELAPSE        0.33 TCPU        0.33

 NEIGHBORS OF THE NON-EQUIVALENT ATOMS

 N = NUMBER OF NEIGHBORS AT DISTANCE R
    ATOM  N     R/ANG      R/AU   NEIGHBORS (ATOM LABELS AND CELL INDICES)
   1 B    1     1.3791     2.6061   37 O   -1 0 0
   1 B    1     1.3793     2.6065   38 O    0 0 0
   1 B    1     1.5503     2.9297   25 C   -1 0-1
   1 B    1     2.3895     4.5155    3 B   -1 0 0
   1 B    1     2.3898     4.5160    2 B    0 0 0
   1 B    1     2.5632     4.8437   26 C    0 0-1

   2 B    1     1.3793     2.6065   39 O    0 1-2
   2 B    1     1.3793     2.6065   38 O    0 0 0
   2 B    1     1.5504     2.9298   19 C    0 0 0
   2 B    1     2.3895     4.5156    3 B   -1 0 0
   2 B    1     2.3898     4.5160    1 B    0 0 0
   2 B    1     2.5634     4.8440   22 C    0 1-1

   3 B    1     1.3791     2.6061   37 O    0 0 0
   3 B    1     1.3793     2.6064   39 O    1 1-2
   3 B    1     1.5502     2.9294   31 C    0 0 0
   3 B    1     2.3895     4.5155    1 B    1 0 0
   3 B    1     2.3895     4.5156    2 B    1 0 0
   3 B    1     2.5629     4.8433   32 C    1 1-1

   4 B    1     1.3795     2.6068   40 O    0 0 0
   4 B    1     1.3795     2.6070   41 O    0 0 0
   4 B    1     1.5513     2.9316   24 C    0 0 0
   4 B    1     2.3905     4.5174    6 B    0 0 0
   4 B    1     2.3905     4.5175    5 B    0 0 0
   4 B    1     2.5648     4.8468   23 C    0 0 0

   5 B    1     1.3795     2.6069   41 O    0 0 0
   5 B    1     1.3797     2.6072   42 O    0 0 0
   5 B    1     1.5516     2.9322   36 C    0 0 0
   5 B    1     2.3905     4.5175    4 B    0 0 0
   5 B    1     2.3911     4.5185    6 B    0 0 0
   5 B    1     2.5651     4.8473   35 C    0 0 0

   6 B    1     1.3795     2.6068   40 O    0 0 0
   6 B    1     1.3796     2.6071   42 O    0 0 0
   6 B    1     1.5516     2.9322   30 C    0 1-1
   6 B    1     2.3905     4.5174    4 B    0 0 0
   6 B    1     2.3911     4.5185    5 B    0 0 0
   6 B    1     2.5651     4.8473   29 C    1 1-1

   7 H    1     1.0913     2.0623   20 C    0 0 0
   7 H    1     2.1472     4.0576   19 C    0 0 0
   7 H    1     2.1680     4.0969   23 C    0 0 0
   7 H    1     2.5202     4.7625   10 H    0 0 0
   7 H    1     2.5676     4.8520   38 O    0 0 0
   7 H    1     2.7321     5.1630    2 B    0 0 0

   8 H    1     1.0914     2.0625   21 C    0-1 1
   8 H    1     2.1493     4.0616   24 C    0-1 1
   8 H    1     2.1666     4.0942   22 C    0 0 0
   8 H    1     2.5198     4.7618    9 H    0 0 0
   8 H    1     2.5720     4.8604   40 O    0-1 1
   8 H    1     2.7362     5.1707    4 B    0-1 1

   9 H    1     1.0914     2.0624   22 C    0 0 0
   9 H    1     2.1471     4.0575   19 C    0-1 1
   9 H    1     2.1680     4.0970   21 C    0-1 1
   9 H    1     2.5198     4.7618    8 H    0 0 0
   9 H    1     2.5665     4.8500   39 O    0 0-1
   9 H    1     2.7315     5.1618    2 B    0-1 1

  10 H    1     1.0915     2.0626   23 C    0 0 0
  10 H    1     2.1490     4.0610   24 C    0 0 0
  10 H    1     2.1669     4.0948   20 C    0 0 0
  10 H    1     2.5202     4.7625    7 H    0 0 0
  10 H    1     2.5712     4.8588   41 O    0 0 0
  10 H    1     2.7351     5.1686    4 B    0 0 0

  11 H    1     1.0913     2.0623   26 C    0 0 0
  11 H    1     2.1469     4.0571   25 C   -1 0 0
  11 H    1     2.1680     4.0968   29 C    0 0 0
  11 H    1     2.5198     4.7617   14 H    0 0 0
  11 H    1     2.5670     4.8510   38 O    0 0 1
  11 H    1     2.7310     5.1609    1 B    0 0 1

  12 H    1     1.0914     2.0625   27 C    0 0 0
  12 H    1     2.1493     4.0617   30 C    0 0 0
  12 H    1     2.1664     4.0939   28 C    0 0 0
  12 H    1     2.5192     4.7606   13 H    0 0 0
  12 H    1     2.5735     4.8632   40 O    0-1 1
  12 H    1     2.7371     5.1723    6 B    0-1 1

  13 H    1     1.0914     2.0624   28 C    0 0 0
  13 H    1     2.1475     4.0581   25 C    0 0 0
  13 H    1     2.1679     4.0967   27 C    0 0 0
  13 H    1     2.5192     4.7606   12 H    0 0 0
  13 H    1     2.5675     4.8519   37 O    0 0 1
  13 H    1     2.7328     5.1643    1 B    1 0 1

  14 H    1     1.0914     2.0625   29 C    0 0 0
  14 H    1     2.1491     4.0612   30 C   -1 0 0
  14 H    1     2.1666     4.0942   26 C    0 0 0
  14 H    1     2.5198     4.7617   11 H    0 0 0
  14 H    1     2.5723     4.8609   42 O   -1-1 1
  14 H    1     2.7355     5.1693    6 B   -1-1 1

  15 H    1     1.0914     2.0624   32 C    0 0 0
  15 H    1     2.1475     4.0582   31 C   -1-1 1
  15 H    1     2.1678     4.0966   35 C   -1-1 1
  15 H    1     2.5200     4.7621   18 H    0 0 0
  15 H    1     2.5667     4.8503   39 O    0 0-1
  15 H    1     2.7315     5.1618    3 B   -1-1 1

  16 H    1     1.0913     2.0623   33 C    0 0 0
  16 H    1     2.1487     4.0605   36 C    0 0 0
  16 H    1     2.1667     4.0945   34 C    0 0 0
  16 H    1     2.5197     4.7616   17 H    0 0 0
  16 H    1     2.5723     4.8610   41 O    0 0 0
  16 H    1     2.7359     5.1701    5 B    0 0 0

  17 H    1     1.0915     2.0626   34 C    0 0 0
  17 H    1     2.1479     4.0589   31 C    0 0 0
  17 H    1     2.1679     4.0968   33 C    0 0 0
  17 H    1     2.5197     4.7616   16 H    0 0 0
  17 H    1     2.5677     4.8522   37 O    0 0 0
  17 H    1     2.7331     5.1648    3 B    0 0 0

  18 H    1     1.0914     2.0624   35 C   -1-1 1
  18 H    1     2.1486     4.0602   36 C   -1-1 1
  18 H    1     2.1668     4.0947   32 C    0 0 0
  18 H    1     2.5200     4.7621   15 H    0 0 0
  18 H    1     2.5717     4.8598   42 O   -1-1 1
  18 H    1     2.7349     5.1682    5 B   -1-1 1

  19 C    1     1.4020     2.6495   22 C    0 1-1
  19 C    1     1.4021     2.6495   20 C    0 0 0
  19 C    1     1.5504     2.9298    2 B    0 0 0
  19 C    1     2.1471     4.0575    9 H    0 1-1
  19 C    1     2.1472     4.0576    7 H    0 0 0
  19 C    1     2.4246     4.5817   21 C    0 0 0

  20 C    1     1.0913     2.0623    7 H    0 0 0
  20 C    1     1.3914     2.6294   23 C    0 0 0
  20 C    1     1.4021     2.6495   19 C    0 0 0
  20 C    1     2.1669     4.0948   10 H    0 0 0
  20 C    1     2.4177     4.5688   22 C    0 1-1
  20 C    1     2.4250     4.5825   24 C    0 0 0

  21 C    1     1.0914     2.0625    8 H    0 1-1
  21 C    1     1.3914     2.6293   22 C    0 1-1
  21 C    1     1.4026     2.6505   24 C    0 0 0
  21 C    1     2.1680     4.0970    9 H    0 1-1
  21 C    1     2.4182     4.5697   23 C    0 0 0
  21 C    1     2.4246     4.5817   19 C    0 0 0

  22 C    1     1.0914     2.0624    9 H    0 0 0
  22 C    1     1.3914     2.6293   21 C    0-1 1
  22 C    1     1.4020     2.6495   19 C    0-1 1
  22 C    1     2.1666     4.0942    8 H    0 0 0
  22 C    1     2.4177     4.5688   20 C    0-1 1
  22 C    1     2.4250     4.5826   24 C    0-1 1

  23 C    1     1.0915     2.0626   10 H    0 0 0
  23 C    1     1.3914     2.6294   20 C    0 0 0
  23 C    1     1.4025     2.6504   24 C    0 0 0
  23 C    1     2.1680     4.0969    7 H    0 0 0
  23 C    1     2.4182     4.5697   21 C    0 0 0
  23 C    1     2.4246     4.5818   19 C    0 0 0

  24 C    1     1.4025     2.6504   23 C    0 0 0
  24 C    1     1.4026     2.6505   21 C    0 0 0
  24 C    1     1.5513     2.9316    4 B    0 0 0
  24 C    1     2.1490     4.0610   10 H    0 0 0
  24 C    1     2.1493     4.0616    8 H    0 1-1
  24 C    1     2.4250     4.5825   20 C    0 0 0

  25 C    1     1.4020     2.6494   26 C    1 0 0
  25 C    1     1.4021     2.6495   28 C    0 0 0
  25 C    1     1.5503     2.9297    1 B    1 0 1
  25 C    1     2.1469     4.0571   11 H    1 0 0
  25 C    1     2.1475     4.0581   13 H    0 0 0
  25 C    1     2.4246     4.5818   27 C    0 0 0

  26 C    1     1.0913     2.0623   11 H    0 0 0
  26 C    1     1.3914     2.6293   29 C    0 0 0
  26 C    1     1.4020     2.6494   25 C   -1 0 0
  26 C    1     2.1666     4.0942   14 H    0 0 0
  26 C    1     2.4175     4.5684   28 C   -1 0 0
  26 C    1     2.4251     4.5828   30 C   -1 0 0

  27 C    1     1.0914     2.0625   12 H    0 0 0
  27 C    1     1.3915     2.6295   28 C    0 0 0
  27 C    1     1.4026     2.6505   30 C    0 0 0
  27 C    1     2.1679     4.0967   13 H    0 0 0
  27 C    1     2.4179     4.5691   29 C    1 0 0
  27 C    1     2.4246     4.5818   25 C    0 0 0

  28 C    1     1.0914     2.0624   13 H    0 0 0
  28 C    1     1.3915     2.6295   27 C    0 0 0
  28 C    1     1.4021     2.6495   25 C    0 0 0
  28 C    1     2.1664     4.0939   12 H    0 0 0
  28 C    1     2.4175     4.5684   26 C    1 0 0
  28 C    1     2.4253     4.5832   30 C    0 0 0

  29 C    1     1.0914     2.0625   14 H    0 0 0
  29 C    1     1.3914     2.6293   26 C    0 0 0
  29 C    1     1.4025     2.6504   30 C   -1 0 0
  29 C    1     2.1680     4.0968   11 H    0 0 0
  29 C    1     2.4179     4.5691   27 C   -1 0 0
  29 C    1     2.4247     4.5819   25 C   -1 0 0

  30 C    1     1.4025     2.6504   29 C    1 0 0
  30 C    1     1.4026     2.6505   27 C    0 0 0
  30 C    1     1.5516     2.9322    6 B    0-1 1
  30 C    1     2.1491     4.0612   14 H    1 0 0
  30 C    1     2.1493     4.0617   12 H    0 0 0
  30 C    1     2.4251     4.5828   26 C    1 0 0

  31 C    1     1.4021     2.6496   32 C    1 1-1
  31 C    1     1.4021     2.6497   34 C    0 0 0
  31 C    1     1.5502     2.9294    3 B    0 0 0
  31 C    1     2.1475     4.0582   15 H    1 1-1
  31 C    1     2.1479     4.0589   17 H    0 0 0
  31 C    1     2.4244     4.5814   33 C    0 0 0

  32 C    1     1.0914     2.0624   15 H    0 0 0
  32 C    1     1.3914     2.6293   35 C   -1-1 1
  32 C    1     1.4021     2.6496   31 C   -1-1 1
  32 C    1     2.1668     4.0947   18 H    0 0 0
  32 C    1     2.4179     4.5692   34 C   -1-1 1
  32 C    1     2.4251     4.5827   36 C   -1-1 1

  33 C    1     1.0913     2.0623   16 H    0 0 0
  33 C    1     1.3914     2.6294   34 C    0 0 0
  33 C    1     1.4025     2.6504   36 C    0 0 0
  33 C    1     2.1679     4.0968   17 H    0 0 0
  33 C    1     2.4178     4.5690   35 C    0 0 0
  33 C    1     2.4244     4.5814   31 C    0 0 0

  34 C    1     1.0915     2.0626   17 H    0 0 0
  34 C    1     1.3914     2.6294   33 C    0 0 0
  34 C    1     1.4021     2.6497   31 C    0 0 0
  34 C    1     2.1667     4.0945   16 H    0 0 0
  34 C    1     2.4179     4.5692   32 C    1 1-1
  34 C    1     2.4253     4.5832   36 C    0 0 0

  35 C    1     1.0914     2.0624   18 H    1 1-1
  35 C    1     1.3914     2.6293   32 C    1 1-1
  35 C    1     1.4025     2.6503   36 C    0 0 0
  35 C    1     2.1678     4.0966   15 H    1 1-1
  35 C    1     2.4178     4.5690   33 C    0 0 0
  35 C    1     2.4245     4.5817   31 C    0 0 0

  36 C    1     1.4025     2.6503   35 C    0 0 0
  36 C    1     1.4025     2.6504   33 C    0 0 0
  36 C    1     1.5516     2.9322    5 B    0 0 0
  36 C    1     2.1486     4.0602   18 H    1 1-1
  36 C    1     2.1487     4.0605   16 H    0 0 0
  36 C    1     2.4251     4.5827   32 C    1 1-1

  37 O    1     1.3791     2.6061    1 B    1 0 0
  37 O    1     1.3791     2.6061    3 B    0 0 0
  37 O    1     2.3880     4.5126   38 O    1 0 0
  37 O    1     2.3882     4.5130   39 O    1 1-2
  37 O    1     2.5383     4.7966   31 C    0 0 0
  37 O    1     2.5384     4.7968   25 C    0 0-1

  38 O    1     1.3793     2.6065    1 B    0 0 0
  38 O    1     1.3793     2.6065    2 B    0 0 0
  38 O    1     2.3880     4.5126   37 O   -1 0 0
  38 O    1     2.3882     4.5131   39 O    0 1-2
  38 O    1     2.5391     4.7981   19 C    0 0 0
  38 O    1     2.5395     4.7990   25 C   -1 0-1

  39 O    1     1.3793     2.6064    3 B   -1-1 2
  39 O    1     1.3793     2.6065    2 B    0-1 2
  39 O    1     2.3882     4.5130   37 O   -1-1 2
  39 O    1     2.3882     4.5131   38 O    0-1 2
  39 O    1     2.5390     4.7980   19 C    0-1 2
  39 O    1     2.5391     4.7982   31 C   -1-1 2

  40 O    1     1.3795     2.6068    6 B    0 0 0
  40 O    1     1.3795     2.6068    4 B    0 0 0
  40 O    1     2.3880     4.5126   42 O    0 0 0
  40 O    1     2.3884     4.5134   41 O    0 0 0
  40 O    1     2.5400     4.7998   24 C    0 0 0
  40 O    1     2.5403     4.8005   30 C    0 1-1

  41 O    1     1.3795     2.6069    5 B    0 0 0
  41 O    1     1.3795     2.6070    4 B    0 0 0
  41 O    1     2.3881     4.5128   42 O    0 0 0
  41 O    1     2.3884     4.5134   40 O    0 0 0
  41 O    1     2.5404     4.8006   24 C    0 0 0
  41 O    1     2.5405     4.8008   36 C    0 0 0

  42 O    1     1.3796     2.6071    6 B    0 0 0
  42 O    1     1.3797     2.6072    5 B    0 0 0
  42 O    1     2.3880     4.5126   40 O    0 0 0
  42 O    1     2.3881     4.5128   41 O    0 0 0
  42 O    1     2.5409     4.8016   36 C    0 0 0
  42 O    1     2.5410     4.8019   30 C    0 1-1


 SYMMETRY ALLOWED INTERNAL DEGREE(S) OF FREEDOM: 123
 TTTTTTTTTTTTTTTTTTTTTTTTTTTTTT SYMM        TELAPSE        0.34 TCPU        0.34
 TTTTTTTTTTTTTTTTTTTTTTTTTTTTTT INT_SCREEN  TELAPSE        0.37 TCPU        0.37

 DFT PARAMETERS

     ATOM       ELECTRONS   NET CHARGE   R(ANGSTROM)
   1   5  B       5.0000      0.0000     0.89000000
   7   1  H       1.0000      0.0000     1.11000000
  19   6  C       6.0000      0.0000     0.77000000
  37   8  O       8.0000      0.0000     0.74000000

 SIZE OF GRID=    1297066
 TTTTTTTTTTTTTTTTTTTTTTTTTTTTTT MAKE_GRID2  TELAPSE        9.79 TCPU        9.78
 BECKE WEIGHT FUNCTION
 RADSAFE =     2.00
 TOLERANCES - DENSITY:10**- 6; POTENTIAL:10**- 9; GRID WGT:10**-14

 RADIAL INTEGRATION  - INTERVALS (POINTS,UPPER LIMIT):            1( 75,  4.0*R)

 ANGULAR INTEGRATION - INTERVALS (ACCURACY LEVEL [N. POINTS] UPPER LIMIT):
  1(  4[  86]   0.2)  2(  8[ 194]   0.5)  3( 12[ 350]   0.9)  4( 16[ 974]   3.5)
  5( 12[ 350]9999.0)
 TTTTTTTTTTTTTTTTTTTTTTTTTTTTTT INT_CALC    TELAPSE        9.88 TCPU        9.87
 EEEEEEEEEE INT_CALC TERMINATION  DATE 19 02 2026 TIME 18:56:46.7

 *******************************************************************************
 cof-1_z38_L030_incl                                                             
 CRYSTAL - SCF - TYPE OF CALCULATION :  RESTRICTED CLOSED SHELL
 *******************************************************************************

 CAPPA:IS1  2;IS2  2;IS3  8; K PTS MONK NET  20; SYMMOPS:K SPACE   2;G SPACE   1

 TTTTTTTTTTTTTTTTTTTTTTTTTTTTTT SDIK        TELAPSE       10.48 TCPU       16.85

 AAAAAAAAAAAAAAAAAAAAAAAAAAAAAAAAAAAAAAAAAAAAAAAAAAAAAAAAAAAAAAAAAAAAAAAAAAAAAAA
         ATOMIC WAVEFUNCTION(S)


 NUCLEAR CHARGE  5.0  SYMMETRY SPECIES            S    P
 N. ELECTRONS    5.0  NUMBER OF PRIMITIVE GTOS    8    4
                      NUMBER OF CONTRACTED GTOS   4    2
                      NUMBER OF CLOSED SHELLS     2    0
                      OPEN SHELL OCCUPATION       0    1

  ZNUC  SCFIT    TOTAL HF ENERGY   KINETIC ENERGY   VIRIAL THEOREM ACCURACY
   5.0    11    -2.451164084E+01  2.462155050E+01 -1.995536038E+00  1.5E-06

 NUCLEAR CHARGE  1.0  SYMMETRY SPECIES            S
 N. ELECTRONS    1.0  NUMBER OF PRIMITIVE GTOS    4
                      NUMBER OF CONTRACTED GTOS   2
                      NUMBER OF CLOSED SHELLS     0
                      OPEN SHELL OCCUPATION       1

  ZNUC  SCFIT    TOTAL HF ENERGY   KINETIC ENERGY   VIRIAL THEOREM ACCURACY
   1.0     1    -4.977266687E-01  5.190767460E-01 -1.958869132E+00  0.0E+00

 NUCLEAR CHARGE  6.0  SYMMETRY SPECIES            S    P
 N. ELECTRONS    6.0  NUMBER OF PRIMITIVE GTOS    8    4
                      NUMBER OF CONTRACTED GTOS   4    2
                      NUMBER OF CLOSED SHELLS     2    0
                      OPEN SHELL OCCUPATION       0    2

  ZNUC  SCFIT    TOTAL HF ENERGY   KINETIC ENERGY   VIRIAL THEOREM ACCURACY
   6.0     9    -3.766704647E+01  3.775180683E+01 -1.997754800E+00  1.1E-06

 NUCLEAR CHARGE  8.0  SYMMETRY SPECIES            S    P
 N. ELECTRONS    8.0  NUMBER OF PRIMITIVE GTOS    8    4
                      NUMBER OF CONTRACTED GTOS   4    2
                      NUMBER OF CLOSED SHELLS     2    0
                      OPEN SHELL OCCUPATION       0    4

  ZNUC  SCFIT    TOTAL HF ENERGY   KINETIC ENERGY   VIRIAL THEOREM ACCURACY
   8.0    12    -7.477373220E+01  7.477365593E+01 -2.000001020E+00  3.8E-06

 AAAAAAAAAAAAAAAAAAAAAAAAAAAAAAAAAAAAAAAAAAAAAAAAAAAAAAAAAAAAAAAAAAAAAAAAAAAAAAA

 CHARGE NORMALIZATION FACTOR   1.00000000
 TOTAL ATOMIC CHARGES:
   5.0000000   5.0000000   5.0000000   5.0000000   5.0000000   5.0000000
   1.0000000   1.0000000   1.0000000   1.0000000   1.0000000   1.0000000
   1.0000000   1.0000000   1.0000000   1.0000000   1.0000000   1.0000000
   6.0000000   6.0000000   6.0000000   6.0000000   6.0000000   6.0000000
   6.0000000   6.0000000   6.0000000   6.0000000   6.0000000   6.0000000
   6.0000000   6.0000000   6.0000000   6.0000000   6.0000000   6.0000000
   8.0000000   8.0000000   8.0000000   8.0000000   8.0000000   8.0000000
 TTTTTTTTTTTTTTTTTTTTTTTTTTTTTT MOQGAD      TELAPSE       10.53 TCPU       18.22
 TTTTTTTTTTTTTTTTTTTTTTTTTTTTTT SHELLXN     TELAPSE       18.78 TCPU      280.42
 TTTTTTTTTTTTTTTTTTTTTTTTTTTTTT MONMO3      TELAPSE       18.93 TCPU      285.29
 NUMERICALLY INTEGRATED DENSITY    197.9999731183
 TTTTTTTTTTTTTTTTTTTTTTTTTTTTTT NUMDFT      TELAPSE       19.53 TCPU      304.33
 CYC   0 ETOT(AU) -1.295959841118E+03 DETOT -1.30E+03 tst  0.00E+00 PX  1.00E+00
 TTTTTTTTTTTTTTTTTTTTTTTTTTTTTT DIIS        TELAPSE       19.56 TCPU      305.50
 TTTTTTTTTTTTTTTTTTTTTTTTTTTTTT FDIK        TELAPSE       20.04 TCPU      320.89
 INSULATING STATE
 TOP OF VALENCE BANDS -    BAND     99; K   17; EIG -3.1075859E-01 AU
 TOP OF VALENCE BANDS -    BAND     99; K    1; EIG -3.1325122E-01 AU
 BOTTOM OF VIRTUAL BANDS - BAND    100; K    1; EIG -1.6028258E-01 AU
 INDIRECT ENERGY BAND GAP:   4.0947 eV
 TTTTTTTTTTTTTTTTTTTTTTTTTTTTTT PDIG        TELAPSE       20.35 TCPU      327.05
 CHARGE NORMALIZATION FACTOR   1.00000000
 TOTAL ATOMIC CHARGES:
   4.1482059   4.1606934   4.1611030   4.1604997   4.1602570   4.1478504
   0.7853803   0.7855105   0.7849416   0.7850076   0.7858476   0.7860450
   0.7858513   0.7860160   0.7849148   0.7850583   0.7853321   0.7855021
   6.0441547   6.2666679   6.2666160   6.2651477   6.2651165   6.0435491
   6.0485627   6.2655514   6.2657110   6.2654472   6.2657238   6.0474645
   6.0445796   6.2648767   6.2654827   6.2662740   6.2668895   6.0430951
   8.6956000   8.6957763   8.6953263   8.6962164   8.6957420   8.6964127
 TTTTTTTTTTTTTTTTTTTTTTTTTTTTTT MOQGAD      TELAPSE       20.40 TCPU      327.10
 TTTTTTTTTTTTTTTTTTTTTTTTTTTTTT SHELLXN     TELAPSE       29.10 TCPU      604.45
 TTTTTTTTTTTTTTTTTTTTTTTTTTTTTT MONMO3      TELAPSE       29.25 TCPU      609.36
 NUMERICALLY INTEGRATED DENSITY    197.9999764209
 TTTTTTTTTTTTTTTTTTTTTTTTTTTTTT NUMDFT      TELAPSE       29.85 TCPU      628.67
 CYC   1 ETOT(AU) -1.288822564446E+03 DETOT  7.14E+00 tst  0.00E+00 PX  1.00E+00
 TTTTTTTTTTTTTTTTTTTTTTTTTTTTTT DIIS        TELAPSE       29.90 TCPU      630.07
 DIIS TEST: 0.10943E+01 AT SCF   CYCLE   1 - MIX   30 %
 TTTTTTTTTTTTTTTTTTTTTTTTTTTTTT FDIK        TELAPSE       30.38 TCPU      645.45
 INSULATING STATE
 TOP OF VALENCE BANDS -    BAND     99; K   17; EIG -2.2009663E-01 AU
 TOP OF VALENCE BANDS -    BAND     99; K    1; EIG -2.2676795E-01 AU
 BOTTOM OF VIRTUAL BANDS - BAND    100; K    1; EIG -8.2685187E-02 AU
 INDIRECT ENERGY BAND GAP:   3.7392 eV
 TTTTTTTTTTTTTTTTTTTTTTTTTTTTTT PDIG        TELAPSE       30.68 TCPU      651.61
 CHARGE NORMALIZATION FACTOR   1.00000000
 TOTAL ATOMIC CHARGES:
   4.6756532   4.7006110   4.7002088   4.7002233   4.7005046   4.6745942
   0.9085275   0.9086664   0.9165867   0.9168613   0.9063627   0.9061199
   0.9062634   0.9061018   0.9166077   0.9168775   0.9084236   0.9084767
   5.8678103   6.1229694   6.1233809   6.1447400   6.1459274   5.8701278
   5.8874893   6.1392959   6.1411670   6.1405545   6.1400357   5.8899026
   5.8674381   6.1444774   6.1462496   6.1233443   6.1233499   5.8705092
   8.3327043   8.3329399   8.3513708   8.3324888   8.3514649   8.3325920
 TTTTTTTTTTTTTTTTTTTTTTTTTTTTTT MOQGAD      TELAPSE       30.73 TCPU      651.66
 TTTTTTTTTTTTTTTTTTTTTTTTTTTTTT SHELLXN     TELAPSE       39.44 TCPU      929.34
 TTTTTTTTTTTTTTTTTTTTTTTTTTTTTT MONMO3      TELAPSE       39.59 TCPU      934.28
 NUMERICALLY INTEGRATED DENSITY    197.9999723260
 TTTTTTTTTTTTTTTTTTTTTTTTTTTTTT NUMDFT      TELAPSE       40.20 TCPU      953.78
 CYC   2 ETOT(AU) -1.289016838507E+03 DETOT -1.94E-01 tst  3.87E-03 PX  1.59E-01
 TTTTTTTTTTTTTTTTTTTTTTTTTTTTTT DIIS        TELAPSE       40.25 TCPU      955.32
 DIIS TEST: 0.45333E+00 AT SCF   CYCLE   2 - DIIS ACTIVE - HISTORY:     2 CYCLES
 TTTTTTTTTTTTTTTTTTTTTTTTTTTTTT FDIK        TELAPSE       40.73 TCPU      970.73
 INSULATING STATE
 TOP OF VALENCE BANDS -    BAND     99; K   17; EIG -2.3320789E-01 AU
 TOP OF VALENCE BANDS -    BAND     99; K    1; EIG -2.3754411E-01 AU
 BOTTOM OF VIRTUAL BANDS - BAND    100; K    1; EIG -7.8591987E-02 AU
 INDIRECT ENERGY BAND GAP:   4.2073 eV
 TTTTTTTTTTTTTTTTTTTTTTTTTTTTTT PDIG        TELAPSE       41.04 TCPU      976.89
 CHARGE NORMALIZATION FACTOR   1.00000000
 TOTAL ATOMIC CHARGES:
   4.4750491   4.4959624   4.4958651   4.4951849   4.4951520   4.4742184
   0.8866923   0.8869154   0.8929406   0.8931690   0.8863658   0.8864829
   0.8864661   0.8862876   0.8928987   0.8932597   0.8866332   0.8867689
   5.8909298   6.1625248   6.1625188   6.1589733   6.1580080   5.8903250
   5.9083447   6.1611679   6.1609072   6.1610938   6.1611417   5.9081897
   5.8914425   6.1590233   6.1579862   6.1623822   6.1627684   5.8899457
   8.5168218   8.5171269   8.5136258   8.5173534   8.5134052   8.5176819
 TTTTTTTTTTTTTTTTTTTTTTTTTTTTTT MOQGAD      TELAPSE       41.09 TCPU      976.93
 TTTTTTTTTTTTTTTTTTTTTTTTTTTTTT SHELLXN     TELAPSE       49.69 TCPU     1251.25
 TTTTTTTTTTTTTTTTTTTTTTTTTTTTTT MONMO3      TELAPSE       49.84 TCPU     1256.16
 NUMERICALLY INTEGRATED DENSITY    197.9999724680
 TTTTTTTTTTTTTTTTTTTTTTTTTTTTTT NUMDFT      TELAPSE       50.45 TCPU     1275.50
 CYC   3 ETOT(AU) -1.289110752025E+03 DETOT -9.39E-02 tst  6.93E-04 PX  6.54E-02
 TTTTTTTTTTTTTTTTTTTTTTTTTTTTTT DIIS        TELAPSE       50.50 TCPU     1277.33
 DIIS TEST: 0.13738E-01 AT SCF   CYCLE   3 - DIIS ACTIVE - HISTORY:     3 CYCLES
 TTTTTTTTTTTTTTTTTTTTTTTTTTTTTT FDIK        TELAPSE       50.98 TCPU     1292.69
 INSULATING STATE
 TOP OF VALENCE BANDS -    BAND     99; K   17; EIG -2.4322118E-01 AU
 TOP OF VALENCE BANDS -    BAND     99; K    1; EIG -2.4947359E-01 AU
 BOTTOM OF VIRTUAL BANDS - BAND    100; K    1; EIG -8.7092606E-02 AU
 INDIRECT ENERGY BAND GAP:   4.2485 eV
 TTTTTTTTTTTTTTTTTTTTTTTTTTTTTT PDIG        TELAPSE       51.29 TCPU     1298.85
 CHARGE NORMALIZATION FACTOR   1.00000000
 TOTAL ATOMIC CHARGES:
   4.4821104   4.4999103   4.4996919   4.4994919   4.4995741   4.4816395
   0.8703532   0.8705906   0.8752001   0.8753184   0.8676169   0.8674374
   0.8675104   0.8674359   0.8752725   0.8753139   0.8703065   0.8704286
   5.9377596   6.1598759   6.1599592   6.1730805   6.1749192   5.9403577
   5.9565868   6.1698226   6.1717773   6.1710507   6.1706791   5.9584142
   5.9375890   6.1725934   6.1754267   6.1600258   6.1599978   5.9405654
   8.4777713   8.4778717   8.4913797   8.4776801   8.4919007   8.4777127
 TTTTTTTTTTTTTTTTTTTTTTTTTTTTTT MOQGAD      TELAPSE       51.34 TCPU     1298.89
 TTTTTTTTTTTTTTTTTTTTTTTTTTTTTT SHELLXN     TELAPSE       59.76 TCPU     1567.32
 TTTTTTTTTTTTTTTTTTTTTTTTTTTTTT MONMO3      TELAPSE       59.91 TCPU     1572.09
 NUMERICALLY INTEGRATED DENSITY    197.9999727044
 TTTTTTTTTTTTTTTTTTTTTTTTTTTTTT NUMDFT      TELAPSE       60.49 TCPU     1590.71
 CYC   4 ETOT(AU) -1.289113654425E+03 DETOT -2.90E-03 tst  3.11E-05 PX  1.35E-02
 TTTTTTTTTTTTTTTTTTTTTTTTTTTTTT DIIS        TELAPSE       60.55 TCPU     1592.55
 DIIS TEST: 0.41884E-02 AT SCF   CYCLE   4 - DIIS ACTIVE - HISTORY:     4 CYCLES
 TTTTTTTTTTTTTTTTTTTTTTTTTTTTTT FDIK        TELAPSE       61.02 TCPU     1607.65
 INSULATING STATE
 TOP OF VALENCE BANDS -    BAND     99; K   17; EIG -2.4149597E-01 AU
 TOP OF VALENCE BANDS -    BAND     99; K    1; EIG -2.4708592E-01 AU
 BOTTOM OF VIRTUAL BANDS - BAND    100; K    1; EIG -8.6599207E-02 AU
 INDIRECT ENERGY BAND GAP:   4.2150 eV
 TTTTTTTTTTTTTTTTTTTTTTTTTTTTTT PDIG        TELAPSE       61.32 TCPU     1613.81
 CHARGE NORMALIZATION FACTOR   1.00000000
 TOTAL ATOMIC CHARGES:
   4.4816602   4.5030279   4.5028401   4.5023828   4.5024295   4.4807852
   0.8728042   0.8729954   0.8787338   0.8790323   0.8712935   0.8713546
   0.8713333   0.8712036   0.8787145   0.8791141   0.8727334   0.8728462
   5.9218875   6.1636897   6.1637111   6.1709570   6.1699717   5.9208743
   5.9385801   6.1700769   6.1700845   6.1702146   6.1701131   5.9381715
   5.9221181   6.1709413   6.1700022   6.1635935   6.1639872   5.9207187
   8.4908970   8.4912000   8.4952349   8.4912199   8.4949552   8.4915155
 TTTTTTTTTTTTTTTTTTTTTTTTTTTTTT MOQGAD      TELAPSE       61.37 TCPU     1613.86
 TTTTTTTTTTTTTTTTTTTTTTTTTTTTTT SHELLXN     TELAPSE       69.47 TCPU     1872.16
 TTTTTTTTTTTTTTTTTTTTTTTTTTTTTT MONMO3      TELAPSE       69.62 TCPU     1876.94
 NUMERICALLY INTEGRATED DENSITY    197.9999727459
 TTTTTTTTTTTTTTTTTTTTTTTTTTTTTT NUMDFT      TELAPSE       70.20 TCPU     1895.59
 CYC   5 ETOT(AU) -1.289114611107E+03 DETOT -9.57E-04 tst  6.04E-06 PX  6.65E-03
 TTTTTTTTTTTTTTTTTTTTTTTTTTTTTT DIIS        TELAPSE       70.27 TCPU     1897.72
 DIIS TEST: 0.75403E-04 AT SCF   CYCLE   5 - DIIS ACTIVE - HISTORY:     5 CYCLES
 TTTTTTTTTTTTTTTTTTTTTTTTTTTTTT FDIK        TELAPSE       70.75 TCPU     1913.00
 INSULATING STATE
 TOP OF VALENCE BANDS -    BAND     99; K   17; EIG -2.4121329E-01 AU
 TOP OF VALENCE BANDS -    BAND     99; K    1; EIG -2.4682158E-01 AU
 BOTTOM OF VIRTUAL BANDS - BAND    100; K    1; EIG -8.6096227E-02 AU
 INDIRECT ENERGY BAND GAP:   4.2210 eV
 TTTTTTTTTTTTTTTTTTTTTTTTTTTTTT PDIG        TELAPSE       71.05 TCPU     1919.16
 CHARGE NORMALIZATION FACTOR   1.00000000
 TOTAL ATOMIC CHARGES:
   4.4824934   4.5021169   4.5019305   4.5016611   4.5017269   4.4819690
   0.8738401   0.8740788   0.8797831   0.8798501   0.8724367   0.8722470
   0.8723531   0.8722240   0.8798388   0.8798554   0.8737773   0.8739242
   5.9189776   6.1627389   6.1629445   6.1689816   6.1713702   5.9226498
   5.9376535   6.1680624   6.1701092   6.1692116   6.1691035   5.9402129
   5.9190787   6.1685518   6.1718255   6.1629345   6.1629144   5.9226220
   8.4895789   8.4896496   8.4974101   8.4896066   8.4980748   8.4896312
 TTTTTTTTTTTTTTTTTTTTTTTTTTTTTT MOQGAD      TELAPSE       71.10 TCPU     1919.20
 TTTTTTTTTTTTTTTTTTTTTTTTTTTTTT SHELLXN     TELAPSE       79.20 TCPU     2177.45
 TTTTTTTTTTTTTTTTTTTTTTTTTTTTTT MONMO3      TELAPSE       79.35 TCPU     2182.24
 NUMERICALLY INTEGRATED DENSITY    197.9999727170
 TTTTTTTTTTTTTTTTTTTTTTTTTTTTTT NUMDFT      TELAPSE       79.94 TCPU     2200.91
 CYC   6 ETOT(AU) -1.289114624200E+03 DETOT -1.31E-05 tst  3.28E-07 PX  9.86E-04
 TTTTTTTTTTTTTTTTTTTTTTTTTTTTTT DIIS        TELAPSE       80.01 TCPU     2203.14
 DIIS TEST: 0.39527E-04 AT SCF   CYCLE   6 - DIIS ACTIVE - HISTORY:     6 CYCLES
 TTTTTTTTTTTTTTTTTTTTTTTTTTTTTT FDIK        TELAPSE       80.49 TCPU     2218.38
 INSULATING STATE
 TOP OF VALENCE BANDS -    BAND     99; K   17; EIG -2.4123763E-01 AU
 TOP OF VALENCE BANDS -    BAND     99; K    1; EIG -2.4683008E-01 AU
 BOTTOM OF VIRTUAL BANDS - BAND    100; K    1; EIG -8.6119178E-02 AU
 INDIRECT ENERGY BAND GAP:   4.2210 eV
 TTTTTTTTTTTTTTTTTTTTTTTTTTTTTT PDIG        TELAPSE       80.79 TCPU     2224.54
 CHARGE NORMALIZATION FACTOR   1.00000000
 TOTAL ATOMIC CHARGES:
   4.4822349   4.5025285   4.5023478   4.5019140   4.5019613   4.4814695
   0.8738229   0.8740413   0.8796298   0.8798890   0.8722646   0.8722716
   0.8722707   0.8721582   0.8796363   0.8799431   0.8737615   0.8738840
   5.9213445   6.1628537   6.1628376   6.1701890   6.1697207   5.9210124
   5.9388032   6.1689754   6.1693825   6.1693841   6.1691265   5.9388072
   5.9214609   6.1700307   6.1699004   6.1628006   6.1630653   5.9209683
   8.4899695   8.4902260   8.4962756   8.4902114   8.4961797   8.4904460
 TTTTTTTTTTTTTTTTTTTTTTTTTTTTTT MOQGAD      TELAPSE       80.84 TCPU     2224.59
 TTTTTTTTTTTTTTTTTTTTTTTTTTTTTT SHELLXN     TELAPSE       88.95 TCPU     2483.36
 TTTTTTTTTTTTTTTTTTTTTTTTTTTTTT MONMO3      TELAPSE       89.10 TCPU     2488.13
 NUMERICALLY INTEGRATED DENSITY    197.9999727164
 TTTTTTTTTTTTTTTTTTTTTTTTTTTTTT NUMDFT      TELAPSE       89.68 TCPU     2506.74
 CYC   7 ETOT(AU) -1.289114632983E+03 DETOT -8.78E-06 tst  2.22E-07 PX  7.23E-04
 TTTTTTTTTTTTTTTTTTTTTTTTTTTTTT DIIS        TELAPSE       89.76 TCPU     2509.15
 DIIS TEST: 0.28637E-05 AT SCF   CYCLE   7 - DIIS ACTIVE - HISTORY:     7 CYCLES
 TTTTTTTTTTTTTTTTTTTTTTTTTTTTTT FDIK        TELAPSE       90.23 TCPU     2524.31
 INSULATING STATE
 TOP OF VALENCE BANDS -    BAND     99; K   17; EIG -2.4124490E-01 AU
 TOP OF VALENCE BANDS -    BAND     99; K    1; EIG -2.4684299E-01 AU
 BOTTOM OF VIRTUAL BANDS - BAND    100; K    1; EIG -8.6147119E-02 AU
 INDIRECT ENERGY BAND GAP:   4.2204 eV
 TTTTTTTTTTTTTTTTTTTTTTTTTTTTTT PDIG        TELAPSE       90.54 TCPU     2530.47
 CHARGE NORMALIZATION FACTOR   1.00000000
 TOTAL ATOMIC CHARGES:
   4.4821590   4.5026296   4.5024449   4.5020663   4.5021178   4.4814451
   0.8737852   0.8739985   0.8796281   0.8798218   0.8722394   0.8721958
   0.8722320   0.8720953   0.8796371   0.8798739   0.8737194   0.8738456
   5.9207125   6.1627661   6.1628652   6.1697253   6.1701736   5.9216900
   5.9382765   6.1688057   6.1696606   6.1693461   6.1692759   5.9391313
   5.9208931   6.1695514   6.1703677   6.1627855   6.1630205   5.9215826
   8.4901326   8.4903440   8.4960014   8.4903287   8.4961129   8.4905162
 TTTTTTTTTTTTTTTTTTTTTTTTTTTTTT MOQGAD      TELAPSE       90.58 TCPU     2530.52
 TTTTTTTTTTTTTTTTTTTTTTTTTTTTTT SHELLXN     TELAPSE       98.68 TCPU     2788.62
 TTTTTTTTTTTTTTTTTTTTTTTTTTTTTT MONMO3      TELAPSE       98.83 TCPU     2793.39
 NUMERICALLY INTEGRATED DENSITY    197.9999727174
 TTTTTTTTTTTTTTTTTTTTTTTTTTTTTT NUMDFT      TELAPSE       99.42 TCPU     2812.01
 CYC   8 ETOT(AU) -1.289114633350E+03 DETOT -3.68E-07 tst  2.11E-08 PX  1.68E-04
 TTTTTTTTTTTTTTTTTTTTTTTTTTTTTT DIIS        TELAPSE       99.50 TCPU     2814.58
 DIIS TEST: 0.42606E-06 AT SCF   CYCLE   8 - DIIS ACTIVE - HISTORY:     8 CYCLES
 TTTTTTTTTTTTTTTTTTTTTTTTTTTTTT FDIK        TELAPSE       99.97 TCPU     2829.74
 INSULATING STATE
 TOP OF VALENCE BANDS -    BAND     99; K   17; EIG -2.4124569E-01 AU
 TOP OF VALENCE BANDS -    BAND     99; K    1; EIG -2.4684694E-01 AU
 BOTTOM OF VIRTUAL BANDS - BAND    100; K    1; EIG -8.6150713E-02 AU
 INDIRECT ENERGY BAND GAP:   4.2204 eV
 TTTTTTTTTTTTTTTTTTTTTTTTTTTTTT PDIG        TELAPSE      100.27 TCPU     2835.90
 CHARGE NORMALIZATION FACTOR   1.00000000
 TOTAL ATOMIC CHARGES:
   4.4822300   4.5026075   4.5024220   4.5020302   4.5020830   4.4815070
   0.8737699   0.8739879   0.8796151   0.8798280   0.8722337   0.8721967
   0.8722224   0.8721001   0.8796296   0.8798747   0.8737057   0.8738333
   5.9208187   6.1627965   6.1628549   6.1698773   6.1700986   5.9214624
   5.9384183   6.1688289   6.1696126   6.1693871   6.1692084   5.9390456
   5.9209609   6.1696755   6.1703213   6.1628076   6.1630174   5.9213935
   8.4900381   8.4902513   8.4962544   8.4902380   8.4963299   8.4904261
 TTTTTTTTTTTTTTTTTTTTTTTTTTTTTT MOQGAD      TELAPSE      100.34 TCPU     2835.95
 TTTTTTTTTTTTTTTTTTTTTTTTTTTTTT SHELLXN     TELAPSE      108.45 TCPU     3094.41
 +++ ENERGIES IN A.U. +++
 ::: EXT EL-POLE                                  -1.3550251033445E+03
 ::: EXT EL-SPHEROPOLE                             1.5079156931535E+01
 ::: BIELET ZONE E-E                               2.1745673846796E+03
 ::: TOTAL E-E                                     8.3462143826659E+02
 ::: TOTAL E-N + N-E                              -3.4971904577381E+03
 ::: TOTAL N-N                                     2.2725128690463E+02
 ::: KINETIC ENERGY                                1.2799161461739E+03
 ::: PSEUDO TOTAL   ENERGY                        -1.1554015863930E+03
 ::: VIRIAL COEFFICIENT                            1.0511286712677E+00
 TTTTTTTTTTTTTTTTTTTTTTTTTTTTTT MONMO3      TELAPSE      108.60 TCPU     3099.18
 NUMERICALLY INTEGRATED DENSITY    197.9999727165
 EXCHANGE ENERGY: -0.126021447823E+03  CORRELATION ENERGY: -0.769159922843E+01
 TTTTTTTTTTTTTTTTTTTTTTTTTTTTTT NUMDFT      TELAPSE      109.19 TCPU     3117.86
 CYC   9 ETOT(AU) -1.289114633445E+03 DETOT -9.45E-08 tst  1.27E-09 PX  1.68E-04

 == SCF ENDED - CONVERGENCE ON ENERGY      E(AU) -1.2891146334448E+03 CYCLES   9


 ENERGY EXPRESSION=HARTREE+FOCK EXCH*0.00000+(HSESOL     EXCH)*1.00000+PBESOL     CORR


 TOTAL ENERGY(DFT)(AU)(  9) -1.2891146334448E+03 DE-9.4E-08 tester 1.3E-09
 TTTTTTTTTTTTTTTTTTTTTTTTTTTTTT EDFT        TELAPSE      109.19 TCPU     3117.87
 
 INFORMATION **** DFTD3 ENERGY **** CALCULATE DFTD3 ENERGY

           DFT-D V3(BJ)
 DF                                         hsesol3c  
 parameters
 s6       :    1.0000
 s8       :    0.0000
 a1       :    0.5196
 a2       :    4.9385
 k1 k3    :   16.0000   -4.0000
 Cutoff   :   50.2022
 CN-Cutoff:   21.1671
 ABC-Cutoff:   21.1671
 
 Edisp /kcal,au:   -26.4632 -0.04217175

 E6    /kcal :   -28.1324
 E8    /kcal :     0.0000
 E6(ABC) "   :   1.669192
 
 INFORMATION **** DFTD3 ENERGY **** NORMAL TERMINATION OF DFTD3 MODULE

 GCP ENERGY CALCULATION
  level        hsesol3c            basis:hsesol3c
  Nbf            474
  Atoms           42

  Parameters: 
  sigma     1.0000
  eta       1.4281
  alpha     0.2936
  beta      1.9467

  dmp_scal      4.0000
  dmp_exp       6.0000
 cutoffs: 
   distance [bohr] 60.0
   noise    [a.u.] 2.2E-16
 SR-damping   T
 ** gCP correction **
  Egcp:        0.0830395045 / (a.u.) ||      52.1081 / (kcal/mol)
 INFORMATION **** GCP **** NORMAL TERMINATION OF GCP MODULE

 *******************************************************************************

 DFT-D3-GCP DISPERSION AND COUNTERPOISE CORRECTION

 D3 DISPERSION ENERGY (AU)      -4.2171745335576E-02
 GCP ENERGY (AU)                 8.3039504476015E-02
 TOTAL ENERGY + DISP + GCP (AU) -1.2890737656856E+03

 *******************************************************************************

 EIGENVECTORS IN FORTRAN UNIT 10
 TTTTTTTTTTTTTTTTTTTTTTTTTTTTTT END         TELAPSE      110.49 TCPU     3125.15
 EEEEEEEEEE TERMINATION  DATE 19 02 2026 TIME 18:58:27.3
