 Default number of threads is:           32

         
 *******************************************************************************
 *                                                                             *
 *                               CRYSTAL23                                     *
 *                      public : 1.0.1 - October 2022                          *
 *                       HTTP://WWW.CRYSTAL.UNITO.IT                           *
 *                                                                             *
 *                              MAIN AUTHORS                                   *
 *                                                                             *
 *  R. DOVESI(1,11), V.R. SAUNDERS(2), C. ROETTI(1,11), R. ORLANDO(1,11),      *
 *  C.M. ZICOVICH-WILSON(1,3), F. PASCALE(4), B. CIVALLERI(1,11),              *
 *  K. DOLL(5), N.M. HARRISON(6), I.J. BUSH(7), Ph. D'ARCO(8),                 *
 *  M. LLUNELL(9), M. CAUSA'(10), Y. NOEL(8), L. MASCHIO(1,11), A. ERBA(1,11)  *
 *  M. RE'RAT(14), S. CASASSA(1,11), B.G. SEARLE(2), J.K. DESMARAIS(1)         *
 *                                                                             *
 *        CONTRIBUTIONS TO THE CODE HAVE ALSO BEEN GIVEN BY                    *
 *                                                                             *
 *  M. FERRABONE(1,11), M. DE LA PIERRE(1,11), M. FERRERO(1,11),               *
 *  J. BAIMA(1,11), E. ALBANESE(1,11), M.F. PEINTINGER(12), R. BAST(13),       *
 *  B. KIRTMAN(15), V. LACIVITA(1,11), R. DEMICHELIS(1,16)                     *
 *  G. BRANDEBURG(17), S. SALUSTRO(1,11), G. SANSONE(1,11)                     *
 *  M.T. RUGGIERO(18), L.E. DAGA(1), L. DONA'(1), A. COSSARD(1)                *
 *                                                                             *
 * (1) THEORETICAL CHEMISTRY GROUP - UNIVERSITA' DI TORINO - TORINO (ITALY)    *
 * (2) SCIENTIFIC COMPUTING DEPARTMENT - STFC DARESBURY (UK)                   *
 * (3) UNIVERSIDAD AUTONOMA DEL ESTADO DE MORELOS - CUERNAVACA (MEXICO)        *
 * (4) UNIVERSITE' DE LORRAINE - NANCY (FRANCE)                                *
 * (5) UNIVERSITAET STUTTGART- STUTTGART (GERMANY)                             *
 * (6) IMPERIAL COLLEGE - LONDON (UK)                                          *
 * (7) SCIENTIFIC COMPUTING DEPARTMENT - STFC RAL (UK)                         *
 * (8) UPMC - SORBONNE UNIVERSITES - PARIS (FRANCE)                            *
 * (9) UNIVERSIDAD DE BARCELONA - BARCELONA (SPAIN)                            *
 *(10) UNIVERSITA' DI NAPOLI "FEDERICO II" - NAPOLI (ITALY)                    *
 *(11) NIS - NANOSTRUCTURED INTERFACES AND SURFACES - TORINO (ITALY)           *
 *(12) MPI FUER CHEMISCHE ENERGIEKONVERSION - MUELHEIM AN DER RUHR (GERMANY)   *
 *(13) UNIVERSITY OF TROMSO - TROMSO (NORWAY)                                  *
 *(14) UNIVERSITE' DE PAU ET DES PAYS DE L'ADOUR - PAU (FRANCE)                *
 *(15) UNIVERSITY OF CALIFORNIA SANTA BARBARA - SANTA BARBARA (USA)            *
 *(16) CURTIN UNIVERSITY - PERTH (AUSTRALIA)                                   *
 *(17) UNIVERSITY COLLEGE LONDON - LONDON (UK)                                 *
 *(18) UNIVERSITY OF VERMONT - BURLINGTON (USA)                                *
 *                                                                             *
 *******************************************************************************
 EEEEEEEEEE STARTING  DATE 02 12 2025 TIME 08:05:49.5
 COF-5_z44_inc_L010                                                              

 CRYSTAL CALCULATION
 (INPUT ACCORDING TO THE INTERNATIONAL TABLES FOR X-RAY CRYSTALLOGRAPHY)
 CRYSTAL FAMILY                       :  TRICLINIC   
 CRYSTAL CLASS  (GROTH - 1921)        :  TRICLINIC PEDIAL                     

 SPACE GROUP (NONCENTROSYMMETRIC)     :  P 1             

 LATTICE PARAMETERS  (ANGSTROMS AND DEGREES) - CONVENTIONAL CELL
        A           B           C        ALPHA        BETA       GAMMA
    15.02070    15.04439     4.51221    78.94388    89.99930   120.05310


 NUMBER OF IRREDUCIBLE ATOMS IN THE CONVENTIONAL CELL:   42

 INPUT COORDINATES

 ATOM AT. N.              COORDINATES
   1   5     5.963312300000E-01  1.896271100000E-01  5.006633600000E-01
   2   5     7.551102500000E-01  3.486530600000E-01  5.006733500000E-01
   3   5     5.959336200000E-01  3.484502700000E-01  4.992433500000E-01
   4   5     2.093200500000E-01  5.755428000000E-01  5.054584500000E-01
   5   5     3.677388700000E-01  5.747314300000E-01  5.095024300000E-01
   6   5     3.682412200000E-01  7.345280800000E-01  5.035366700000E-01
   7   1     8.849860700000E-01  2.708012600000E-01  5.045618300000E-01
   8   1     7.988045000000E-02  6.535827300000E-01  4.929712700000E-01
   9   1     8.855034900000E-01  5.562938700000E-01  4.928329700000E-01
  10   1     7.944207000000E-02  3.680481500000E-01  5.041304000000E-01
  11   1     5.749768200000E-01  8.645055400000E-01  5.042524700000E-01
  12   1     3.892088400000E-01  6.065340000000E-02  4.946035300000E-01
  13   1     2.908182100000E-01  8.668412000000E-01  4.959104000000E-01
  14   1     6.731500900000E-01  5.833850000000E-02  5.023911000000E-01
  15   1     5.748225400000E-01  6.523362900000E-01  4.978079200000E-01
  16   1     3.871932200000E-01  2.700870200000E-01  5.060912100000E-01
  17   1     2.898432200000E-01  3.660365100000E-01  5.057263300000E-01
  18   1     6.725780000000E-01  5.564053600000E-01  4.987413800000E-01
  19   6     8.744123900000E-01  4.081013500000E-01  5.004233500000E-01
  20   6     9.288685700000E-01  3.547892400000E-01  5.021894800000E-01
  21   6     3.613190000000E-02  5.696165000000E-01  4.957964500000E-01
  22   6     9.291404400000E-01  5.160657000000E-01  4.961336200000E-01
  23   6     3.592400000000E-02  4.084036300000E-01  5.015457600000E-01
  24   6     9.050940000000E-02  5.162433900000E-01  4.993624400000E-01
  25   6     4.272671400000E-01  8.540294600000E-01  5.019048400000E-01
  26   6     5.351253700000E-01  9.084815400000E-01  5.022950300000E-01
  27   6     4.288691400000E-01  1.643182000000E-02  4.970185600000E-01
  28   6     3.747077400000E-01  9.093906900000E-01  4.981372500000E-01
  29   6     5.892640400000E-01  1.545845000000E-02  5.008575900000E-01
  30   6     5.366471300000E-01  7.057643000000E-02  4.992333100000E-01
  31   6     4.269409800000E-01  5.151219000000E-01  5.000045400000E-01
  32   6     5.348114100000E-01  5.684192400000E-01  4.994530400000E-01
  33   6     4.277996000000E-01  3.540424200000E-01  5.039766600000E-01
  34   6     3.739215500000E-01  4.071347000000E-01  5.033687100000E-01
  35   6     5.885889100000E-01  5.152826500000E-01  5.003914200000E-01
  36   6     5.357864600000E-01  4.074639700000E-01  5.016332900000E-01
  37   8     5.432541800000E-01  2.425216600000E-01  4.996332200000E-01
  38   8     7.022984600000E-01  2.425892500000E-01  5.026233200000E-01
  39   8     7.020809900000E-01  4.016801300000E-01  4.981035200000E-01
  40   8     2.622622400000E-01  6.816109300000E-01  5.027700000000E-01
  41   8     2.617340300000E-01  5.219742800000E-01  5.102578900000E-01
  42   8     4.209755300000E-01  6.811314600000E-01  5.052417800000E-01

 *******************************************************************************

 << INFORMATION >>: FROM NOW ON, ALL COORDINATES REFER TO THE PRIMITIVE CELL

 *******************************************************************************

 LATTICE PARAMETERS  (ANGSTROMS AND DEGREES) - PRIMITIVE CELL
       A          B          C        ALPHA      BETA     GAMMA        VOLUME
   15.02070   15.04439    4.51221    78.94388  89.99930 120.05310    860.639468

 COORDINATES OF THE EQUIVALENT ATOMS (FRACTIONAL UNITS)

 N. ATOM EQUIV AT. N.          X                  Y                  Z

   1   1   1    5 B    -4.03668770000E-01  1.89627110000E-01 -4.99336640000E-01

   2   2   1    5 B    -2.44889750000E-01  3.48653060000E-01 -4.99326650000E-01

   3   3   1    5 B    -4.04066380000E-01  3.48450270000E-01  4.99243350000E-01

   4   4   1    5 B     2.09320050000E-01 -4.24457200000E-01 -4.94541550000E-01

   5   5   1    5 B     3.67738870000E-01 -4.25268570000E-01 -4.90497570000E-01

   6   6   1    5 B     3.68241220000E-01 -2.65471920000E-01 -4.96463330000E-01

   7   7   1    1 H    -1.15013930000E-01  2.70801260000E-01 -4.95438170000E-01

   8   8   1    1 H     7.98804500000E-02 -3.46417270000E-01  4.92971270000E-01

   9   9   1    1 H    -1.14496510000E-01 -4.43706130000E-01  4.92832970000E-01

  10  10   1    1 H     7.94420700000E-02  3.68048150000E-01 -4.95869600000E-01

  11  11   1    1 H    -4.25023180000E-01 -1.35494460000E-01 -4.95747530000E-01

  12  12   1    1 H     3.89208840000E-01  6.06534000000E-02  4.94603530000E-01

  13  13   1    1 H     2.90818210000E-01 -1.33158800000E-01  4.95910400000E-01

  14  14   1    1 H    -3.26849910000E-01  5.83385000000E-02 -4.97608900000E-01

  15  15   1    1 H    -4.25177460000E-01 -3.47663710000E-01  4.97807920000E-01

  16  16   1    1 H     3.87193220000E-01  2.70087020000E-01 -4.93908790000E-01

  17  17   1    1 H     2.89843220000E-01  3.66036510000E-01 -4.94273670000E-01

  18  18   1    1 H    -3.27422000000E-01 -4.43594640000E-01  4.98741380000E-01

  19  19   1    6 C    -1.25587610000E-01  4.08101350000E-01 -4.99576650000E-01

  20  20   1    6 C    -7.11314300000E-02  3.54789240000E-01 -4.97810520000E-01

  21  21   1    6 C     3.61319000000E-02 -4.30383500000E-01  4.95796450000E-01

  22  22   1    6 C    -7.08595600000E-02 -4.83934300000E-01  4.96133620000E-01

  23  23   1    6 C     3.59240000000E-02  4.08403630000E-01 -4.98454240000E-01

  24  24   1    6 C     9.05094000000E-02 -4.83756610000E-01  4.99362440000E-01

  25  25   1    6 C     4.27267140000E-01 -1.45970540000E-01 -4.98095160000E-01

  26  26   1    6 C    -4.64874630000E-01 -9.15184600000E-02 -4.97704970000E-01

  27  27   1    6 C     4.28869140000E-01  1.64318200000E-02  4.97018560000E-01

  28  28   1    6 C     3.74707740000E-01 -9.06093100000E-02  4.98137250000E-01

  29  29   1    6 C    -4.10735960000E-01  1.54584500000E-02 -4.99142410000E-01

  30  30   1    6 C    -4.63352870000E-01  7.05764300000E-02  4.99233310000E-01

  31  31   1    6 C     4.26940980000E-01 -4.84878100000E-01 -4.99995460000E-01

  32  32   1    6 C    -4.65188590000E-01 -4.31580760000E-01  4.99453040000E-01

  33  33   1    6 C     4.27799600000E-01  3.54042420000E-01 -4.96023340000E-01

  34  34   1    6 C     3.73921550000E-01  4.07134700000E-01 -4.96631290000E-01

  35  35   1    6 C    -4.11411090000E-01 -4.84717350000E-01 -4.99608580000E-01

  36  36   1    6 C    -4.64213540000E-01  4.07463970000E-01 -4.98366710000E-01

  37  37   1    8 O    -4.56745820000E-01  2.42521660000E-01  4.99633220000E-01

  38  38   1    8 O    -2.97701540000E-01  2.42589250000E-01 -4.97376680000E-01

  39  39   1    8 O    -2.97919010000E-01  4.01680130000E-01  4.98103520000E-01

  40  40   1    8 O     2.62262240000E-01 -3.18389070000E-01 -4.97230000000E-01

  41  41   1    8 O     2.61734030000E-01 -4.78025720000E-01 -4.89742110000E-01

  42  42   1    8 O     4.20975530000E-01 -3.18868540000E-01 -4.94758220000E-01

 NUMBER OF SYMMETRY OPERATORS         :    1
 *******************************************************************************
 * GEOMETRY EDITING - INPUT COORDINATES ARE GIVEN IN ANGSTROM         
 *******************************************************************************

 GCALCO - MAX INDICES DIRECT LATTICE VECTOR    10    10    31
 NO.OF VECTORS CREATED 6999 STARS 3500 RMAX   213.28350 BOHR

 GEOMETRY FOR WAVE FUNCTION - DIMENSIONALITY OF THE SYSTEM    3
 (NON PERIODIC DIRECTION: LATTICE PARAMETER FORMALLY SET TO 500)
 *******************************************************************************
 LATTICE PARAMETERS (ANGSTROMS AND DEGREES) - BOHR = 0.5291772083 ANGSTROM
 PRIMITIVE CELL - CENTRING CODE 1/0 VOLUME=   860.639468 - DENSITY  0.753 g/cm^3
         A              B              C           ALPHA      BETA       GAMMA 
    15.02070100    15.04438700     4.51220600    78.943875  89.999304 120.053104
 *******************************************************************************
 ATOMS IN THE ASYMMETRIC UNIT   42 - ATOMS IN THE UNIT CELL:   42
     ATOM                 X/A                 Y/B                 Z/C    
 *******************************************************************************
      1 T   5 B    -4.036687700000E-01  1.896271100000E-01 -4.993366400000E-01
      2 T   5 B    -2.448897500000E-01  3.486530600000E-01 -4.993266500000E-01
      3 T   5 B    -4.040663800000E-01  3.484502700000E-01  4.992433500000E-01
      4 T   5 B     2.093200500000E-01 -4.244572000000E-01 -4.945415500000E-01
      5 T   5 B     3.677388700000E-01 -4.252685700000E-01 -4.904975700000E-01
      6 T   5 B     3.682412200000E-01 -2.654719200000E-01 -4.964633300000E-01
      7 T   1 H    -1.150139300000E-01  2.708012600000E-01 -4.954381700000E-01
      8 T   1 H     7.988045000000E-02 -3.464172700000E-01  4.929712700000E-01
      9 T   1 H    -1.144965100000E-01 -4.437061300000E-01  4.928329700000E-01
     10 T   1 H     7.944207000000E-02  3.680481500000E-01 -4.958696000000E-01
     11 T   1 H    -4.250231800000E-01 -1.354944600000E-01 -4.957475300000E-01
     12 T   1 H     3.892088400000E-01  6.065340000000E-02  4.946035300000E-01
     13 T   1 H     2.908182100000E-01 -1.331588000000E-01  4.959104000000E-01
     14 T   1 H    -3.268499100000E-01  5.833850000000E-02 -4.976089000000E-01
     15 T   1 H    -4.251774600000E-01 -3.476637100000E-01  4.978079200000E-01
     16 T   1 H     3.871932200000E-01  2.700870200000E-01 -4.939087900000E-01
     17 T   1 H     2.898432200000E-01  3.660365100000E-01 -4.942736700000E-01
     18 T   1 H    -3.274220000000E-01 -4.435946400000E-01  4.987413800000E-01
     19 T   6 C    -1.255876100000E-01  4.081013500000E-01 -4.995766500000E-01
     20 T   6 C    -7.113143000000E-02  3.547892400000E-01 -4.978105200000E-01
     21 T   6 C     3.613190000000E-02 -4.303835000000E-01  4.957964500000E-01
     22 T   6 C    -7.085956000000E-02 -4.839343000000E-01  4.961336200000E-01
     23 T   6 C     3.592400000000E-02  4.084036300000E-01 -4.984542400000E-01
     24 T   6 C     9.050940000000E-02 -4.837566100000E-01  4.993624400000E-01
     25 T   6 C     4.272671400000E-01 -1.459705400000E-01 -4.980951600000E-01
     26 T   6 C    -4.648746300000E-01 -9.151846000000E-02 -4.977049700000E-01
     27 T   6 C     4.288691400000E-01  1.643182000000E-02  4.970185600000E-01
     28 T   6 C     3.747077400000E-01 -9.060931000000E-02  4.981372500000E-01
     29 T   6 C    -4.107359600000E-01  1.545845000000E-02 -4.991424100000E-01
     30 T   6 C    -4.633528700000E-01  7.057643000000E-02  4.992333100000E-01
     31 T   6 C     4.269409800000E-01 -4.848781000000E-01 -4.999954600000E-01
     32 T   6 C    -4.651885900000E-01 -4.315807600000E-01  4.994530400000E-01
     33 T   6 C     4.277996000000E-01  3.540424200000E-01 -4.960233400000E-01
     34 T   6 C     3.739215500000E-01  4.071347000000E-01 -4.966312900000E-01
     35 T   6 C    -4.114110900000E-01 -4.847173500000E-01 -4.996085800000E-01
     36 T   6 C    -4.642135400000E-01  4.074639700000E-01 -4.983667100000E-01
     37 T   8 O    -4.567458200000E-01  2.425216600000E-01  4.996332200000E-01
     38 T   8 O    -2.977015400000E-01  2.425892500000E-01 -4.973766800000E-01
     39 T   8 O    -2.979190100000E-01  4.016801300000E-01  4.981035200000E-01
     40 T   8 O     2.622622400000E-01 -3.183890700000E-01 -4.972300000000E-01
     41 T   8 O     2.617340300000E-01 -4.780257200000E-01 -4.897421100000E-01
     42 T   8 O     4.209755300000E-01 -3.188685400000E-01 -4.947582200000E-01

 T = ATOM BELONGING TO THE ASYMMETRIC UNIT

 ****    1 SYMMOPS - TRANSLATORS IN FRACTIONAL UNITS
 **** MATRICES AND TRANSLATORS IN THE CRYSTALLOGRAPHIC REFERENCE FRAME
   V INV                    ROTATION MATRICES                   TRANSLATORS
   1   1  1.00  0.00  0.00  0.00  1.00  0.00  0.00 -0.00  1.00  0.00  0.00  0.00

 DIRECT LATTICE VECTORS CARTESIAN COMPONENTS (ANGSTROM)
          X                    Y                    Z
   0.130013421718E+02  -0.752240388864E+01   0.000000000000E+00
   0.000000000000E+00   0.150443870000E+02   0.000000000000E+00
   0.500718968768E+00   0.865307875883E+00   0.440005974740E+01


 CARTESIAN COORDINATES - PRIMITIVE CELL
 *******************************************************************************
 *      ATOM          X(ANGSTROM)         Y(ANGSTROM)         Z(ANGSTROM)
 *******************************************************************************
    1     5 B    -5.498263130278E+00  5.457303226394E+00 -2.197111050066E+00
    2     5 B    -3.433917759376E+00  6.655359888179E+00 -2.197067093469E+00
    3     5 B     7.497198551892E+00  3.260586585280E-01 -2.203359178908E+00
    4     5 B     2.473815258534E+00  6.656167962006E+00 -2.176012367572E+00
    5     5 B     4.535497441298E+00  5.455770337868E+00 -2.158218613954E+00
    6     5 B    -7.961581706663E+00  1.194196647590E+00  2.215591433007E+00
    7     1 H    -1.743410748021E+00  4.510513639293E+00 -2.179957549142E+00
    8     1 H     1.285393129232E+00 -5.385956558555E+00  2.169103041751E+00
    9     1 H    -1.241837487471E+00 -5.387545491496E+00  2.168494513488E+00
   10     1 H     7.845622201487E-01  4.510383596653E+00 -2.181855866919E+00
   11     1 H    -5.273383017338E+00  1.595098563124E+00  2.218740995774E+00
   12     1 H     4.807175705842E+00 -2.452616414979E+00 -2.223774664125E+00
   13     1 H     4.029338802082E+00 -3.761829378595E+00  2.182035389357E+00
   14     1 H    -4.498649733981E+00  2.905779104706E+00 -2.189508890838E+00
   15     1 H    -5.278615772839E+00 -1.601273706776E+00  2.190384590729E+00
   16     1 H     4.786722039817E+00  7.232867028179E-01 -2.173228185766E+00
   17     1 H     3.520858677057E+00  2.898778247852E+00 -2.174833679566E+00
   18     1 H    -4.007196187091E+00 -3.779044065116E+00  2.194491870501E+00
   19     6 C    -1.882954995154E+00  6.652067760599E+00 -2.198167108406E+00
   20     6 C    -1.174067230814E+00  5.441906611979E+00 -2.190396030884E+00
   21     6 C     7.180178823790E-01 -6.317638104459E+00  2.181534002549E+00
   22     6 C    -6.728458711239E-01 -6.318152333206E+00  2.183017570694E+00
   23     6 C     2.174747231481E-01  5.442631044990E+00 -2.193228437345E+00
   24     6 C     9.260649563923E-01  6.652511459202E+00 -2.202835175792E+00
   25     6 C    -7.194982611974E+00  2.546592809854E+00  2.208411283509E+00
   26     6 C    -5.792485482168E+00  2.554775440035E+00  2.210128142822E+00
   27     6 C     5.324022088108E+00 -3.414154028715E+00 -2.213148387833E+00
   28     6 C     5.121130312277E+00 -3.750822400227E+00  2.191833662405E+00
   29     6 C    -5.590048831015E+00  2.890372828369E+00 -2.196256426461E+00
   30     6 C    -6.274952589753E+00  4.113989196263E+00 -2.203403355508E+00
   31     6 C     5.300448557013E+00  4.105420718159E+00 -2.200009897429E+00
   32     6 C    -5.797990421858E+00 -2.561350867680E+00  2.197623217020E+00
   33     6 C     5.313600685258E+00  1.679056903573E+00 -2.182532332105E+00
   34     6 C     4.612809309563E+00  2.882564099515E+00 -2.185207348428E+00
   35     6 C    -5.098340878550E+00 -3.764482379018E+00  2.201752145086E+00
   36     6 C     6.716401432364E+00  1.668402863810E+00 -2.192843300115E+00
   37     8 O     6.812490342339E+00 -8.709589627950E-01 -2.201643727614E+00
   38     8 O    -4.119565524903E+00  5.458653822706E+00 -2.188487108963E+00
   39     8 O    -3.623937107612E+00 -6.329275655884E+00  2.191685248390E+00
   40     8 O     3.661507596903E+00 -6.327760038912E+00  2.212218039200E+00
   41     8 O     3.157670517746E+00  5.460136282370E+00 -2.154894544818E+00
   42     8 O    -7.275111117240E+00 -4.336101678742E-03  2.223094018883E+00

 *******************************************************************************
 STARTING BASIS SET HANDLING 
 *******************************************************************************

 Loading internal basis set: SOLDEF2MSVP         

 Please cite in your publication:
 L. Dona', J. G. Brandenburg and B. Civalleri, J. Chem. Phys., 151, 121101 (2019
 )                                                                              
                                                                                
                    

 *******************************************************************************
 LOCAL ATOMIC FUNCTIONS BASIS SET
 *******************************************************************************
   ATOM   X(AU)   Y(AU)   Z(AU)  N. TYPE  EXPONENT  S COEF   P COEF   D/F/G COEF
 *******************************************************************************
   1 B  -10.390  10.313  -4.152
                                  1 S  
                                         2.410E+03 1.755E-03 0.000E+00 0.000E+00
                                         3.619E+02 1.344E-02 0.000E+00 0.000E+00
                                         8.231E+01 6.637E-02 0.000E+00 0.000E+00
                                         2.311E+01 2.303E-01 0.000E+00 0.000E+00
                                         7.252E+00 5.150E-01 0.000E+00 0.000E+00
                                  2 S  
                                         2.367E+00 1.000E+00 0.000E+00 0.000E+00
                                  3 S  
                                         5.533E-01 1.000E+00 0.000E+00 0.000E+00
                                  4 S  
                                         1.716E-01 1.000E+00 0.000E+00 0.000E+00
                           5-     7 P  
                                         6.002E+00 0.000E+00-3.555E-02 0.000E+00
                                         1.240E+00 0.000E+00-1.983E-01 0.000E+00
                                         3.367E-01 0.000E+00-5.048E-01 0.000E+00
                           8-    10 P  
                                         1.256E-01 0.000E+00 1.000E+00 0.000E+00
                          11-    15 D  
                                         8.880E-01 0.000E+00 0.000E+00 1.000E+00
   2 B   -6.489  12.577  -4.152
   3 B   14.168   0.616  -4.164
   4 B    4.675  12.578  -4.112
   5 B    8.571  10.310  -4.078
   6 B  -15.045   2.257   4.187
   7 H   -3.295   8.524  -4.120
                                 91 S  
                                         1.874E+01 1.968E-02 0.000E+00 0.000E+00
                                         2.826E+00 1.380E-01 0.000E+00 0.000E+00
                                         6.401E-01 4.783E-01 0.000E+00 0.000E+00
                                 92 S  
                                         1.756E-01 1.000E+00 0.000E+00 0.000E+00
   8 H    2.429 -10.178   4.099
   9 H   -2.347 -10.181   4.098
  10 H    1.483   8.523  -4.123
  11 H   -9.965   3.014   4.193
  12 H    9.084  -4.635  -4.202
  13 H    7.614  -7.109   4.123
  14 H   -8.501   5.491  -4.138
  15 H   -9.975  -3.026   4.139
  16 H    9.046   1.367  -4.107
  17 H    6.653   5.478  -4.110
  18 H   -7.573  -7.141   4.147
  19 C   -3.558  12.571  -4.154
                                115 S  
                                         3.624E+03 1.634E-03 0.000E+00 0.000E+00
                                         5.440E+02 1.252E-02 0.000E+00 0.000E+00
                                         1.237E+02 6.211E-02 0.000E+00 0.000E+00
                                         3.476E+01 2.182E-01 0.000E+00 0.000E+00
                                         1.093E+01 4.980E-01 0.000E+00 0.000E+00
                                116 S  
                                         3.574E+00 1.000E+00 0.000E+00 0.000E+00
                                117 S  
                                         7.742E-01 1.000E+00 0.000E+00 0.000E+00
                                118 S  
                                         2.330E-01 1.000E+00 0.000E+00 0.000E+00
                         119-   121 P  
                                         9.443E+00 0.000E+00 3.790E-02 0.000E+00
                                         2.002E+00 0.000E+00 2.082E-01 0.000E+00
                                         5.463E-01 0.000E+00 5.047E-01 0.000E+00
                         122-   124 P  
                                         1.820E-01 0.000E+00 1.000E+00 0.000E+00
                         125-   129 D  
                                         8.880E-01 0.000E+00 0.000E+00 1.000E+00
  20 C   -2.219  10.284  -4.139
  21 C    1.357 -11.939   4.123
  22 C   -1.271 -11.940   4.125
  23 C    0.411  10.285  -4.145
  24 C    1.750  12.571  -4.163
  25 C  -13.597   4.812   4.173
  26 C  -10.946   4.828   4.177
  27 C   10.061  -6.452  -4.182
  28 C    9.678  -7.088   4.142
  29 C  -10.564   5.462  -4.150
  30 C  -11.858   7.774  -4.164
  31 C   10.016   7.758  -4.157
  32 C  -10.957  -4.840   4.153
  33 C   10.041   3.173  -4.124
  34 C    8.717   5.447  -4.129
  35 C   -9.634  -7.114   4.161
  36 C   12.692   3.153  -4.144
  37 O   12.874  -1.646  -4.161
                                385 S  
                                         6.773E+03 1.727E-03 0.000E+00 0.000E+00
                                         1.017E+03 1.325E-02 0.000E+00 0.000E+00
                                         2.313E+02 6.603E-02 0.000E+00 0.000E+00
                                         6.501E+01 2.353E-01 0.000E+00 0.000E+00
                                         2.050E+01 5.498E-01 0.000E+00 0.000E+00
                                386 S  
                                         6.716E+00 1.000E+00 0.000E+00 0.000E+00
                                387 S  
                                         1.147E+00 1.000E+00 0.000E+00 0.000E+00
                                388 S  
                                         3.342E-01 1.000E+00 0.000E+00 0.000E+00
                         389-   391 P  
                                         1.769E+01 0.000E+00 4.359E-02 0.000E+00
                                         3.854E+00 0.000E+00 2.318E-01 0.000E+00
                                         1.047E+00 0.000E+00 5.146E-01 0.000E+00
                         392-   394 P  
                                         2.759E-01 0.000E+00 1.000E+00 0.000E+00
                         395-   399 D  
                                         8.000E-01 0.000E+00 0.000E+00 1.000E+00
  38 O   -7.785  10.315  -4.136
  39 O   -6.848 -11.961   4.142
  40 O    6.919 -11.958   4.180
  41 O    5.967  10.318  -4.072
  42 O  -13.748  -0.008   4.201

 *******************************************************************************
 FINISHED BASIS SET HANDLING 
 *******************************************************************************

 INFORMATION **** SET_MPP **** PCRYSTAL CALCULATION
 INFORMATION **** READM2 **** NEW DEFAULT: FOCK/KS MATRIX MIXING SET TO 30 %
 INFORMATION **** READM2 **** NEW DEFAULT: FULL DIRECT SCF MODE
 INFORMATION **** READM2 **** NEW DEFAULT: COULOMB BIPOLAR BUFFER SET TO 32 Mb
 INFORMATION **** READM2 **** NEW DEFAULT: EXCHANGE BIPOLAR BUFFER SET TO 32 Mb

 *******************************************************************************
 NEW DEFAULT: DFT INTEGRATION GRID INCREASED TO XLGRID
 NEW DEFAULT: DIIS ACCELERATOR ACTIVE
 USE KEYWORD NODIIS TO TURN IT OFF
 *******************************************************************************

 WARNING **** RDDFTP **** HSEsol-HJS ACTIVE
 RANGE SEPARATION - OMEGA:   0.110000000000000     
 WARNING **** RDDFTP **** HSEsol-3c has to be combined with sol-def2-mSVP basis set
 *******************************************************************************
 N. OF ATOMS PER CELL        42  COULOMB OVERLAP TOL         (T1) 10**   -6
 NUMBER OF SHELLS           234  COULOMB PENETRATION TOL     (T2) 10**   -6
 NUMBER OF AO               474  EXCHANGE OVERLAP TOL        (T3) 10**   -6
 N. OF ELECTRONS PER CELL   198  EXCHANGE PSEUDO OVP (F(G))  (T4) 10**   -6
 CORE ELECTRONS PER CELL     60  EXCHANGE PSEUDO OVP (P(G))  (T5) 10**  -12
 N. OF SYMMETRY OPERATORS     1  POLE ORDER IN MONO ZONE                  4
 *******************************************************************************
 TYPE OF CALCULATION :  RESTRICTED CLOSED SHELL
 KOHN-SHAM HAMILTONIAN

 (EXCHANGE)[CORRELATION] FUNCTIONAL:(HSEsol GGA)[PBEsol]

 RANGE-SEPARATED HYBRID FUNCTIONAL 
 OMEGA (SHORT-RANGE)[LONG-RANGE]:(    0.1100)[    0.0000]

 HYBRID EXCHANGE - PERCENTAGE OF FOCK EXCHANGE    25.0000

 CAPPA:IS1  2;IS2  2;IS3  8; K PTS MONK NET  20; SYMMOPS:K SPACE   2;G SPACE   1

 *******************************************************************************
 MAX NUMBER OF SCF CYCLES      50  CONVERGENCE ON DELTAP        10**-16
 WEIGHT OF F(I) IN F(I+1)      30% CONVERGENCE ON ENERGY        10**- 6
 SHRINK. FACT.(MONKH.)    2  2  8  NUMBER OF K POINTS IN THE IBZ     20
 SHRINKING FACTOR(GILAT NET)    8  NUMBER OF K POINTS(GILAT NET)   1028
 *******************************************************************************
 *** K POINTS COORDINATES (OBLIQUE COORDINATES IN UNITS OF IS =  2)
   1-R(  0  0  0)   2-R(  1  0  0)   3-R(  0  1  0)   4-R(  1  1  0)
   5-C(  0  0  1)   6-C(  1  0  1)   7-C(  0  1  1)   8-C(  1  1  1)
   9-C(  0  0  2)  10-C(  1  0  2)  11-C(  0  1  2)  12-C(  1  1  2)
  13-C(  0  0  3)  14-C(  1  0  3)  15-C(  0  1  3)  16-C(  1  1  3)
  17-R(  0  0  4)  18-R(  1  0  4)  19-R(  0  1  4)  20-R(  1  1  4)

 DIRECT LATTICE VECTORS COMPON. (A.U.)     RECIP. LATTICE VECTORS COMPON. (A.U.) 
        X            Y            Z              X            Y            Z
   24.5689761  -14.2152832    0.0000000      0.2557366    0.0000000   -0.0291024
    0.0000000   28.4297713    0.0000000      0.1278719    0.2210072   -0.0580145
    0.9462217    1.6351949    8.3149079      0.0000000    0.0000000    0.7556530

 DISK SPACE FOR EIGENVECTORS (FTN 10)     7189632 REALS

 SYMMETRY ADAPTION OF THE BLOCH FUNCTIONS DISABLED
 TTTTTTTTTTTTTTTTTTTTTTTTTTTTTT gordsh1     TELAPSE        0.04 TCPU        0.04

 MATRIX SIZE: P(G)  302174, F(G)   63131, P(G) IRR  152584, F(G) IRR   63827
 MAX G-VECTOR INDEX FOR 1- AND 2-ELECTRON INTEGRALS  87

 TTTTTTTTTTTTTTTTTTTTTTTTTTTTTT INPUT       TELAPSE        0.30 TCPU        0.30

 NEIGHBORS OF THE NON-EQUIVALENT ATOMS

 N = NUMBER OF NEIGHBORS AT DISTANCE R
    ATOM  N     R/ANG      R/AU   NEIGHBORS (ATOM LABELS AND CELL INDICES)
   1 B    1     1.3787     2.6054   38 O    0 0 0
   1 B    1     1.3795     2.6068   37 O   -1 0 0
   1 B    1     1.5517     2.9323   30 C    0 0 0
   1 B    1     2.3868     4.5104    2 B    0 0 0
   1 B    1     2.3912     4.5187    3 B   -1 0 0
   1 B    1     2.5629     4.8432   27 C   -1 0 0

   2 B    1     1.3792     2.6064   38 O    0 0 0
   2 B    1     1.3798     2.6075   39 O    0 1-1
   2 B    1     1.5510     2.9309   19 C    0 0 0
   2 B    1     2.3868     4.5104    1 B    0 0 0
   2 B    1     2.3894     4.5154    3 B   -1 0 0
   2 B    1     2.5618     4.8412   22 C    0 1-1

   3 B    1     1.3790     2.6060   37 O    0 0 0
   3 B    1     1.3795     2.6069   39 O    1 1-1
   3 B    1     1.5529     2.9346   36 C    0 0 0
   3 B    1     2.3894     4.5154    2 B    1 0 0
   3 B    1     2.3912     4.5187    1 B    1 0 0
   3 B    1     2.5679     4.8526   35 C    1 1-1

   4 B    1     1.3779     2.6038   41 O    0 0 0
   4 B    1     1.3786     2.6051   40 O    0 1-1
   4 B    1     1.5480     2.9253   24 C    0 0 0
   4 B    1     2.3858     4.5084    5 B    0 0 0
   4 B    1     2.3859     4.5087    6 B    1 1-1
   4 B    1     2.5586     4.8350   21 C    0 1-1

   5 B    1     1.3778     2.6037   41 O    0 0 0
   5 B    1     1.3814     2.6105   42 O    1 1-1
   5 B    1     1.5525     2.9339   31 C    0 0 0
   5 B    1     2.3858     4.5084    4 B    0 0 0
   5 B    1     2.3952     4.5264    6 B    1 1-1
   5 B    1     2.5591     4.8361   32 C    1 1-1

   6 B    1     1.3783     2.6045   40 O   -1 0 0
   6 B    1     1.3812     2.6101   42 O    0 0 0
   6 B    1     1.5546     2.9377   25 C    0 0 0
   6 B    1     2.3859     4.5087    4 B   -1-1 1
   6 B    1     2.3952     4.5264    5 B   -1-1 1
   6 B    1     2.5605     4.8387   26 C    0 0 0

   7 H    1     1.0917     2.0630   20 C    0 0 0
   7 H    1     2.1462     4.0557   19 C    0 0 0
   7 H    1     2.1712     4.1030   23 C    0 0 0
   7 H    1     2.5280     4.7772   10 H    0 0 0
   7 H    1     2.5583     4.8346   38 O    0 0 0
   7 H    1     2.7310     5.1609    2 B    0 0 0

   8 H    1     1.0909     2.0615   21 C    0 0 0
   8 H    1     2.1455     4.0543   24 C    0-1 1
   8 H    1     2.1688     4.0985   22 C    0 0 0
   8 H    1     2.5272     4.7758    9 H    0 0 0
   8 H    1     2.5563     4.8307   40 O    0 0 0
   8 H    1     2.7245     5.1485    4 B    0-1 1

   9 H    1     1.0909     2.0614   22 C    0 0 0
   9 H    1     2.1443     4.0522   19 C    0-1 1
   9 H    1     2.1694     4.0996   21 C    0 0 0
   9 H    1     2.5272     4.7758    8 H    0 0 0
   9 H    1     2.5616     4.8407   39 O    0 0 0
   9 H    1     2.7249     5.1493    2 B    0-1 1

  10 H    1     1.0912     2.0621   23 C    0 0 0
  10 H    1     2.1469     4.0571   24 C    0 0 0
  10 H    1     2.1689     4.0986   20 C    0 0 0
  10 H    1     2.5280     4.7772    7 H    0 0 0
  10 H    1     2.5562     4.8306   41 O    0 0 0
  10 H    1     2.7309     5.1607    4 B    0 0 0

  11 H    1     1.0911     2.0619   26 C    0 0 0
  11 H    1     2.1443     4.0521   25 C    0 0 0
  11 H    1     2.1685     4.0978   29 C    0 0 1
  11 H    1     2.5223     4.7664   14 H    0 0 1
  11 H    1     2.5623     4.8420   42 O    0 0 0
  11 H    1     2.7179     5.1361    6 B    0 0 0

  12 H    1     1.0917     2.0630   27 C    0 0 0
  12 H    1     2.1441     4.0518   30 C    1 0 0
  12 H    1     2.1716     4.1038   28 C    0 0-1
  12 H    1     2.5226     4.7669   13 H    0 0-1
  12 H    1     2.5541     4.8265   37 O    0 0 0
  12 H    1     2.7237     5.1471    1 B    1 0 0

  13 H    1     1.0919     2.0634   28 C    0 0 0
  13 H    1     2.1523     4.0672   25 C    1 0 0
  13 H    1     2.1668     4.0946   27 C    0 0 1
  13 H    1     2.5226     4.7669   12 H    0 0 1
  13 H    1     2.5923     4.8988   40 O    0 0 0
  13 H    1     2.7583     5.2125    6 B    1 0 0

  14 H    1     1.0915     2.0627   29 C    0 0 0
  14 H    1     2.1483     4.0597   30 C    0 0 0
  14 H    1     2.1679     4.0968   26 C    0 0-1
  14 H    1     2.5223     4.7664   11 H    0 0-1
  14 H    1     2.5809     4.8771   38 O    0 0 0
  14 H    1     2.7404     5.1785    1 B    0 0 0

  15 H    1     1.0916     2.0628   32 C    0 0 0
  15 H    1     2.1436     4.0508   31 C   -1-1 1
  15 H    1     2.1707     4.1021   35 C    0 0 0
  15 H    1     2.5217     4.7654   18 H    0 0 0
  15 H    1     2.5568     4.8317   42 O    0 0 0
  15 H    1     2.7167     5.1338    5 B   -1-1 1

  16 H    1     1.0914     2.0625   33 C    0 0 0
  16 H    1     2.1488     4.0606   36 C    0 0 0
  16 H    1     2.1663     4.0937   34 C    0 0 0
  16 H    1     2.5170     4.7564   17 H    0 0 0
  16 H    1     2.5780     4.8717   37 O    0 0 0
  16 H    1     2.7396     5.1771    3 B    0 0 0

  17 H    1     1.0921     2.0638   34 C    0 0 0
  17 H    1     2.1502     4.0634   31 C    0 0 0
  17 H    1     2.1683     4.0976   33 C    0 0 0
  17 H    1     2.5170     4.7564   16 H    0 0 0
  17 H    1     2.5871     4.8888   41 O    0 0 0
  17 H    1     2.7510     5.1986    5 B    0 0 0

  18 H    1     1.0913     2.0622   35 C    0 0 0
  18 H    1     2.1495     4.0619   36 C   -1-1 1
  18 H    1     2.1656     4.0924   32 C    0 0 0
  18 H    1     2.5217     4.7654   15 H    0 0 0
  18 H    1     2.5789     4.8734   39 O    0 0 0
  18 H    1     2.7392     5.1763    3 B   -1-1 1

  19 C    1     1.4018     2.6489   22 C    0 1-1
  19 C    1     1.4025     2.6504   20 C    0 0 0
  19 C    1     1.5510     2.9309    2 B    0 0 0
  19 C    1     2.1443     4.0522    9 H    0 1-1
  19 C    1     2.1462     4.0557    7 H    0 0 0
  19 C    1     2.4236     4.5800   21 C    0 1-1

  20 C    1     1.0917     2.0630    7 H    0 0 0
  20 C    1     1.3915     2.6296   23 C    0 0 0
  20 C    1     1.4025     2.6504   19 C    0 0 0
  20 C    1     2.1689     4.0986   10 H    0 0 0
  20 C    1     2.4192     4.5716   22 C    0 1-1
  20 C    1     2.4241     4.5809   24 C    0 0 0

  21 C    1     1.0909     2.0615    8 H    0 0 0
  21 C    1     1.3909     2.6284   22 C    0 0 0
  21 C    1     1.4015     2.6484   24 C    0-1 1
  21 C    1     2.1694     4.0996    9 H    0 0 0
  21 C    1     2.4189     4.5711   23 C    0-1 1
  21 C    1     2.4236     4.5800   19 C    0-1 1

  22 C    1     1.0909     2.0614    9 H    0 0 0
  22 C    1     1.3909     2.6284   21 C    0 0 0
  22 C    1     1.4018     2.6489   19 C    0-1 1
  22 C    1     2.1688     4.0985    8 H    0 0 0
  22 C    1     2.4192     4.5716   20 C    0-1 1
  22 C    1     2.4226     4.5780   24 C    0-1 1

  23 C    1     1.0912     2.0621   10 H    0 0 0
  23 C    1     1.3915     2.6296   20 C    0 0 0
  23 C    1     1.4021     2.6497   24 C    0 0 0
  23 C    1     2.1712     4.1030    7 H    0 0 0
  23 C    1     2.4189     4.5711   21 C    0 1-1
  23 C    1     2.4238     4.5802   19 C    0 0 0

  24 C    1     1.4015     2.6484   21 C    0 1-1
  24 C    1     1.4021     2.6497   23 C    0 0 0
  24 C    1     1.5480     2.9253    4 B    0 0 0
  24 C    1     2.1455     4.0543    8 H    0 1-1
  24 C    1     2.1469     4.0571   10 H    0 0 0
  24 C    1     2.4226     4.5780   22 C    0 1-1

  25 C    1     1.4025     2.6504   26 C    0 0 0
  25 C    1     1.4037     2.6526   28 C   -1 0 0
  25 C    1     1.5546     2.9377    6 B    0 0 0
  25 C    1     2.1443     4.0521   11 H    0 0 0
  25 C    1     2.1523     4.0672   13 H   -1 0 0
  25 C    1     2.4271     4.5866   27 C   -1 0 1

  26 C    1     1.0911     2.0619   11 H    0 0 0
  26 C    1     1.3916     2.6298   29 C    0 0 1
  26 C    1     1.4025     2.6504   25 C    0 0 0
  26 C    1     2.1679     4.0968   14 H    0 0 1
  26 C    1     2.4165     4.5666   28 C   -1 0 0
  26 C    1     2.4246     4.5819   30 C    0 0 1

  27 C    1     1.0917     2.0630   12 H    0 0 0
  27 C    1     1.3928     2.6320   28 C    0 0-1
  27 C    1     1.4024     2.6502   30 C    1 0 0
  27 C    1     2.1668     4.0946   13 H    0 0-1
  27 C    1     2.4167     4.5668   29 C    1 0 0
  27 C    1     2.4271     4.5866   25 C    1 0-1

  28 C    1     1.0919     2.0634   13 H    0 0 0
  28 C    1     1.3928     2.6320   27 C    0 0 1
  28 C    1     1.4037     2.6526   25 C    1 0 0
  28 C    1     2.1716     4.1038   12 H    0 0 1
  28 C    1     2.4165     4.5666   26 C    1 0 0
  28 C    1     2.4277     4.5877   30 C    1 0 1

  29 C    1     1.0915     2.0627   14 H    0 0 0
  29 C    1     1.3916     2.6298   26 C    0 0-1
  29 C    1     1.4023     2.6499   30 C    0 0 0
  29 C    1     2.1685     4.0978   11 H    0 0-1
  29 C    1     2.4167     4.5668   27 C   -1 0 0
  29 C    1     2.4281     4.5885   25 C    0 0-1

  30 C    1     1.4023     2.6499   29 C    0 0 0
  30 C    1     1.4024     2.6502   27 C   -1 0 0
  30 C    1     1.5517     2.9323    1 B    0 0 0
  30 C    1     2.1441     4.0518   12 H   -1 0 0
  30 C    1     2.1483     4.0597   14 H    0 0 0
  30 C    1     2.4246     4.5819   26 C    0 0-1

  31 C    1     1.4022     2.6498   32 C    1 1-1
  31 C    1     1.4030     2.6513   34 C    0 0 0
  31 C    1     1.5525     2.9339    5 B    0 0 0
  31 C    1     2.1436     4.0508   15 H    1 1-1
  31 C    1     2.1502     4.0634   17 H    0 0 0
  31 C    1     2.4265     4.5853   33 C    0 0 0

  32 C    1     1.0916     2.0628   15 H    0 0 0
  32 C    1     1.3918     2.6301   35 C    0 0 0
  32 C    1     1.4022     2.6498   31 C   -1-1 1
  32 C    1     2.1656     4.0924   18 H    0 0 0
  32 C    1     2.4163     4.5661   34 C   -1-1 1
  32 C    1     2.4270     4.5863   36 C   -1-1 1

  33 C    1     1.0914     2.0625   16 H    0 0 0
  33 C    1     1.3927     2.6318   34 C    0 0 0
  33 C    1     1.4029     2.6511   36 C    0 0 0
  33 C    1     2.1683     4.0976   17 H    0 0 0
  33 C    1     2.4155     4.5646   35 C    1 1-1
  33 C    1     2.4265     4.5853   31 C    0 0 0

  34 C    1     1.0921     2.0638   17 H    0 0 0
  34 C    1     1.3927     2.6318   33 C    0 0 0
  34 C    1     1.4030     2.6513   31 C    0 0 0
  34 C    1     2.1663     4.0937   16 H    0 0 0
  34 C    1     2.4163     4.5661   32 C    1 1-1
  34 C    1     2.4289     4.5899   36 C    0 0 0

  35 C    1     1.0913     2.0622   18 H    0 0 0
  35 C    1     1.3918     2.6301   32 C    0 0 0
  35 C    1     1.4029     2.6511   36 C   -1-1 1
  35 C    1     2.1707     4.1021   15 H    0 0 0
  35 C    1     2.4155     4.5646   33 C   -1-1 1
  35 C    1     2.4269     4.5861   31 C   -1-1 1

  36 C    1     1.4029     2.6511   33 C    0 0 0
  36 C    1     1.4029     2.6511   35 C    1 1-1
  36 C    1     1.5529     2.9346    3 B    0 0 0
  36 C    1     2.1488     4.0606   16 H    0 0 0
  36 C    1     2.1495     4.0619   18 H    1 1-1
  36 C    1     2.4270     4.5863   32 C    1 1-1

  37 O    1     1.3790     2.6060    3 B    0 0 0
  37 O    1     1.3795     2.6068    1 B    1 0 0
  37 O    1     2.3868     4.5105   39 O    1 1-1
  37 O    1     2.3885     4.5136   38 O    1 0 0
  37 O    1     2.5389     4.7979   30 C    1 0 0
  37 O    1     2.5412     4.8022   36 C    0 0 0

  38 O    1     1.3787     2.6054    1 B    0 0 0
  38 O    1     1.3792     2.6064    2 B    0 0 0
  38 O    1     2.3885     4.5136   37 O   -1 0 0
  38 O    1     2.3912     4.5188   39 O    0 1-1
  38 O    1     2.5351     4.7907   19 C    0 0 0
  38 O    1     2.5405     4.8008   30 C    0 0 0

  39 O    1     1.3795     2.6069    3 B   -1-1 1
  39 O    1     1.3798     2.6075    2 B    0-1 1
  39 O    1     2.3868     4.5105   37 O   -1-1 1
  39 O    1     2.3912     4.5188   38 O    0-1 1
  39 O    1     2.5416     4.8030   19 C    0-1 1
  39 O    1     2.5427     4.8050   36 C   -1-1 1

  40 O    1     1.3783     2.6045    6 B    1 0 0
  40 O    1     1.3786     2.6051    4 B    0-1 1
  40 O    1     2.3876     4.5120   42 O    1 0 0
  40 O    1     2.3914     4.5191   41 O    0-1 1
  40 O    1     2.5354     4.7912   25 C    1 0 0
  40 O    1     2.5360     4.7924   24 C    0-1 1

  41 O    1     1.3778     2.6037    5 B    0 0 0
  41 O    1     1.3779     2.6038    4 B    0 0 0
  41 O    1     2.3870     4.5108   42 O    1 1-1
  41 O    1     2.3914     4.5191   40 O    0 1-1
  41 O    1     2.5306     4.7822   24 C    0 0 0
  41 O    1     2.5355     4.7914   31 C    0 0 0

  42 O    1     1.3812     2.6101    6 B    0 0 0
  42 O    1     1.3814     2.6105    5 B   -1-1 1
  42 O    1     2.3870     4.5108   41 O   -1-1 1
  42 O    1     2.3876     4.5120   40 O   -1 0 0
  42 O    1     2.5481     4.8153   31 C   -1-1 1
  42 O    1     2.5522     4.8230   25 C    0 0 0


 SYMMETRY ALLOWED INTERNAL DEGREE(S) OF FREEDOM: 123
 TTTTTTTTTTTTTTTTTTTTTTTTTTTTTT SYMM        TELAPSE        0.30 TCPU        0.30
 TTTTTTTTTTTTTTTTTTTTTTTTTTTTTT INT_SCREEN  TELAPSE        0.33 TCPU        0.33

 DFT PARAMETERS

     ATOM       ELECTRONS   NET CHARGE   R(ANGSTROM)
   1   5  B       5.0000      0.0000     0.89000000
   7   1  H       1.0000      0.0000     1.11000000
  19   6  C       6.0000      0.0000     0.77000000
  37   8  O       8.0000      0.0000     0.74000000

 SIZE OF GRID=    1331948
 TTTTTTTTTTTTTTTTTTTTTTTTTTTTTT MAKE_GRID2  TELAPSE        8.74 TCPU        8.73
 BECKE WEIGHT FUNCTION
 RADSAFE =     2.00
 TOLERANCES - DENSITY:10**- 6; POTENTIAL:10**- 9; GRID WGT:10**-14

 RADIAL INTEGRATION  - INTERVALS (POINTS,UPPER LIMIT):            1( 75,  4.0*R)

 ANGULAR INTEGRATION - INTERVALS (ACCURACY LEVEL [N. POINTS] UPPER LIMIT):
  1(  4[  86]   0.2)  2(  8[ 194]   0.5)  3( 12[ 350]   0.9)  4( 16[ 974]   3.5)
  5( 12[ 350]9999.0)
 TTTTTTTTTTTTTTTTTTTTTTTTTTTTTT INT_CALC    TELAPSE        8.83 TCPU        8.81
 EEEEEEEEEE INT_CALC TERMINATION  DATE 02 12 2025 TIME 08:05:58.3

 *******************************************************************************
 COF-5_z44_inc_L010                                                              
 CRYSTAL - SCF - TYPE OF CALCULATION :  RESTRICTED CLOSED SHELL
 *******************************************************************************

 CAPPA:IS1  2;IS2  2;IS3  8; K PTS MONK NET  20; SYMMOPS:K SPACE   2;G SPACE   1

 TTTTTTTTTTTTTTTTTTTTTTTTTTTTTT SDIK        TELAPSE        9.60 TCPU       16.97

 AAAAAAAAAAAAAAAAAAAAAAAAAAAAAAAAAAAAAAAAAAAAAAAAAAAAAAAAAAAAAAAAAAAAAAAAAAAAAAA
         ATOMIC WAVEFUNCTION(S)


 NUCLEAR CHARGE  5.0  SYMMETRY SPECIES            S    P
 N. ELECTRONS    5.0  NUMBER OF PRIMITIVE GTOS    8    4
                      NUMBER OF CONTRACTED GTOS   4    2
                      NUMBER OF CLOSED SHELLS     2    0
                      OPEN SHELL OCCUPATION       0    1

  ZNUC  SCFIT    TOTAL HF ENERGY   KINETIC ENERGY   VIRIAL THEOREM ACCURACY
   5.0    11    -2.451164084E+01  2.462155050E+01 -1.995536038E+00  1.5E-06

 NUCLEAR CHARGE  1.0  SYMMETRY SPECIES            S
 N. ELECTRONS    1.0  NUMBER OF PRIMITIVE GTOS    4
                      NUMBER OF CONTRACTED GTOS   2
                      NUMBER OF CLOSED SHELLS     0
                      OPEN SHELL OCCUPATION       1

  ZNUC  SCFIT    TOTAL HF ENERGY   KINETIC ENERGY   VIRIAL THEOREM ACCURACY
   1.0     1    -4.977266687E-01  5.190767460E-01 -1.958869132E+00  0.0E+00

 NUCLEAR CHARGE  6.0  SYMMETRY SPECIES            S    P
 N. ELECTRONS    6.0  NUMBER OF PRIMITIVE GTOS    8    4
                      NUMBER OF CONTRACTED GTOS   4    2
                      NUMBER OF CLOSED SHELLS     2    0
                      OPEN SHELL OCCUPATION       0    2

  ZNUC  SCFIT    TOTAL HF ENERGY   KINETIC ENERGY   VIRIAL THEOREM ACCURACY
   6.0     9    -3.766704647E+01  3.775180683E+01 -1.997754800E+00  1.1E-06

 NUCLEAR CHARGE  8.0  SYMMETRY SPECIES            S    P
 N. ELECTRONS    8.0  NUMBER OF PRIMITIVE GTOS    8    4
                      NUMBER OF CONTRACTED GTOS   4    2
                      NUMBER OF CLOSED SHELLS     2    0
                      OPEN SHELL OCCUPATION       0    4

  ZNUC  SCFIT    TOTAL HF ENERGY   KINETIC ENERGY   VIRIAL THEOREM ACCURACY
   8.0    12    -7.477373220E+01  7.477365593E+01 -2.000001020E+00  3.8E-06

 AAAAAAAAAAAAAAAAAAAAAAAAAAAAAAAAAAAAAAAAAAAAAAAAAAAAAAAAAAAAAAAAAAAAAAAAAAAAAAA

 CHARGE NORMALIZATION FACTOR   1.00000000
 TOTAL ATOMIC CHARGES:
   5.0000000   5.0000000   5.0000000   5.0000000   5.0000000   5.0000000
   1.0000000   1.0000000   1.0000000   1.0000000   1.0000000   1.0000000
   1.0000000   1.0000000   1.0000000   1.0000000   1.0000000   1.0000000
   6.0000000   6.0000000   6.0000000   6.0000000   6.0000000   6.0000000
   6.0000000   6.0000000   6.0000000   6.0000000   6.0000000   6.0000000
   6.0000000   6.0000000   6.0000000   6.0000000   6.0000000   6.0000000
   8.0000000   8.0000000   8.0000000   8.0000000   8.0000000   8.0000000
 TTTTTTTTTTTTTTTTTTTTTTTTTTTTTT MOQGAD      TELAPSE        9.64 TCPU       18.33
 TTTTTTTTTTTTTTTTTTTTTTTTTTTTTT SHELLXN     TELAPSE       15.47 TCPU      204.59
 TTTTTTTTTTTTTTTTTTTTTTTTTTTTTT MONMO3      TELAPSE       15.61 TCPU      209.09
 NUMERICALLY INTEGRATED DENSITY    197.9999453910
 TTTTTTTTTTTTTTTTTTTTTTTTTTTTTT NUMDFT      TELAPSE       16.12 TCPU      225.20
 CYC   0 ETOT(AU) -1.295945902948E+03 DETOT -1.30E+03 tst  0.00E+00 PX  1.00E+00
 TTTTTTTTTTTTTTTTTTTTTTTTTTTTTT DIIS        TELAPSE       16.15 TCPU      226.35
 TTTTTTTTTTTTTTTTTTTTTTTTTTTTTT FDIK        TELAPSE       16.67 TCPU      242.74
 INSULATING STATE
 TOP OF VALENCE BANDS -    BAND     99; K    1; EIG -3.1148560E-01 AU
 BOTTOM OF VIRTUAL BANDS - BAND    100; K   17; EIG -1.5962298E-01 AU
 INDIRECT ENERGY BAND GAP:   4.1324 eV
 BOTTOM OF VIRTUAL BANDS - BAND    100; K    1; EIG -1.5170573E-01 AU
 TTTTTTTTTTTTTTTTTTTTTTTTTTTTTT PDIG        TELAPSE       16.95 TCPU      248.87
 CHARGE NORMALIZATION FACTOR   1.00000000
 TOTAL ATOMIC CHARGES:
   4.1612300   4.1604003   4.1615153   4.1632879   4.1604671   4.1601938
   0.7852144   0.7851769   0.7853293   0.7853705   0.7851533   0.7850610
   0.7860163   0.7855917   0.7849265   0.7855132   0.7855356   0.7857775
   6.0446582   6.2652975   6.2653849   6.2663325   6.2650517   6.0468159
   6.0409179   6.2666054   6.2647908   6.2672329   6.2670579   6.0443234
   6.0437431   6.2654014   6.2662755   6.2658673   6.2674818   6.0413366
   8.6927779   8.6919848   8.6921967   8.6916070   8.6909917   8.6941067
 TTTTTTTTTTTTTTTTTTTTTTTTTTTTTT MOQGAD      TELAPSE       16.99 TCPU      248.92
 TTTTTTTTTTTTTTTTTTTTTTTTTTTTTT SHELLXN     TELAPSE       23.09 TCPU      443.08
 TTTTTTTTTTTTTTTTTTTTTTTTTTTTTT MONMO3      TELAPSE       23.23 TCPU      447.53
 NUMERICALLY INTEGRATED DENSITY    197.9999643470
 TTTTTTTTTTTTTTTTTTTTTTTTTTTTTT NUMDFT      TELAPSE       23.74 TCPU      463.75
 CYC   1 ETOT(AU) -1.288806572703E+03 DETOT  7.14E+00 tst  0.00E+00 PX  1.00E+00
 TTTTTTTTTTTTTTTTTTTTTTTTTTTTTT DIIS        TELAPSE       23.78 TCPU      465.20
 DIIS TEST: 0.11181E+01 AT SCF   CYCLE   1 - MIX   30 %
 TTTTTTTTTTTTTTTTTTTTTTTTTTTTTT FDIK        TELAPSE       24.29 TCPU      481.35
 INSULATING STATE
 TOP OF VALENCE BANDS -    BAND     99; K    1; EIG -2.1876009E-01 AU
 BOTTOM OF VIRTUAL BANDS - BAND    100; K   17; EIG -8.1861072E-02 AU
 INDIRECT ENERGY BAND GAP:   3.7252 eV
 BOTTOM OF VIRTUAL BANDS - BAND    100; K    1; EIG -7.1679940E-02 AU
 TTTTTTTTTTTTTTTTTTTTTTTTTTTTTT PDIG        TELAPSE       24.57 TCPU      487.48
 CHARGE NORMALIZATION FACTOR   1.00000000
 TOTAL ATOMIC CHARGES:
   4.7148492   4.7142668   4.7144667   4.7148634   4.7136376   4.7147861
   0.9156729   0.9160676   0.9168555   0.9167358   0.9155070   0.9150642
   0.9160442   0.9163105   0.9153048   0.9157793   0.9165789   0.9168055
   5.8636417   6.1266032   6.1246737   6.1290286   6.1311222   5.8595669
   5.8676980   6.1244196   6.1266731   6.1300427   6.1274153   5.8624726
   5.8654066   6.1213971   6.1242061   6.1310150   6.1285764   5.8660998
   8.3347209   8.3334372   8.3371960   8.3321777   8.3341949   8.3386189
 TTTTTTTTTTTTTTTTTTTTTTTTTTTTTT MOQGAD      TELAPSE       24.61 TCPU      487.52
 TTTTTTTTTTTTTTTTTTTTTTTTTTTTTT SHELLXN     TELAPSE       30.70 TCPU      681.41
 TTTTTTTTTTTTTTTTTTTTTTTTTTTTTT MONMO3      TELAPSE       30.84 TCPU      685.89
 NUMERICALLY INTEGRATED DENSITY    197.9999553466
 TTTTTTTTTTTTTTTTTTTTTTTTTTTTTT NUMDFT      TELAPSE       31.35 TCPU      702.03
 CYC   2 ETOT(AU) -1.289002083339E+03 DETOT -1.96E-01 tst  4.12E-03 PX  1.58E-01
 TTTTTTTTTTTTTTTTTTTTTTTTTTTTTT DIIS        TELAPSE       31.40 TCPU      703.71
 DIIS TEST: 0.47237E+00 AT SCF   CYCLE   2 - DIIS ACTIVE - HISTORY:     2 CYCLES
 TTTTTTTTTTTTTTTTTTTTTTTTTTTTTT FDIK        TELAPSE       31.90 TCPU      719.74
 INSULATING STATE
 TOP OF VALENCE BANDS -    BAND     99; K    1; EIG -2.3365193E-01 AU
 BOTTOM OF VIRTUAL BANDS - BAND    100; K   17; EIG -7.7461375E-02 AU
 INDIRECT ENERGY BAND GAP:   4.2502 eV
 BOTTOM OF VIRTUAL BANDS - BAND    100; K    1; EIG -6.6489352E-02 AU
 TTTTTTTTTTTTTTTTTTTTTTTTTTTTTT PDIG        TELAPSE       32.18 TCPU      725.88
 CHARGE NORMALIZATION FACTOR   1.00000000
 TOTAL ATOMIC CHARGES:
   4.5048885   4.5033515   4.5038699   4.5053655   4.5031665   4.5038762
   0.8906782   0.8904923   0.8911699   0.8913440   0.8899537   0.8897671
   0.8914615   0.8908170   0.8895113   0.8906603   0.8915522   0.8911886
   5.8872070   6.1584922   6.1596102   6.1586756   6.1589546   5.8895346
   5.8875762   6.1576435   6.1581830   6.1603357   6.1606653   5.8894688
   5.8885980   6.1583861   6.1589033   6.1598807   6.1602367   5.8873239
   8.5084014   8.5077909   8.5075640   8.5072252   8.5058009   8.5104282
 TTTTTTTTTTTTTTTTTTTTTTTTTTTTTT MOQGAD      TELAPSE       32.23 TCPU      725.92
 TTTTTTTTTTTTTTTTTTTTTTTTTTTTTT SHELLXN     TELAPSE       38.33 TCPU      920.46
 TTTTTTTTTTTTTTTTTTTTTTTTTTTTTT MONMO3      TELAPSE       38.47 TCPU      924.96
 NUMERICALLY INTEGRATED DENSITY    197.9999564778
 TTTTTTTTTTTTTTTTTTTTTTTTTTTTTT NUMDFT      TELAPSE       38.98 TCPU      941.15
 CYC   3 ETOT(AU) -1.289100626055E+03 DETOT -9.85E-02 tst  7.34E-04 PX  6.15E-02
 TTTTTTTTTTTTTTTTTTTTTTTTTTTTTT DIIS        TELAPSE       39.04 TCPU      943.06
 DIIS TEST: 0.11276E-01 AT SCF   CYCLE   3 - DIIS ACTIVE - HISTORY:     3 CYCLES
 TTTTTTTTTTTTTTTTTTTTTTTTTTTTTT FDIK        TELAPSE       39.55 TCPU      959.26
 INSULATING STATE
 TOP OF VALENCE BANDS -    BAND     99; K    1; EIG -2.4355157E-01 AU
 BOTTOM OF VIRTUAL BANDS - BAND    100; K   17; EIG -8.6579018E-02 AU
 INDIRECT ENERGY BAND GAP:   4.2714 eV
 BOTTOM OF VIRTUAL BANDS - BAND    100; K    1; EIG -7.6141340E-02 AU
 TTTTTTTTTTTTTTTTTTTTTTTTTTTTTT PDIG        TELAPSE       39.83 TCPU      965.40
 CHARGE NORMALIZATION FACTOR   1.00000000
 TOTAL ATOMIC CHARGES:
   4.5113463   4.5096927   4.5100035   4.5112275   4.5090743   4.5107883
   0.8734763   0.8739447   0.8740840   0.8741975   0.8729154   0.8727725
   0.8740803   0.8740697   0.8730253   0.8737622   0.8743518   0.8743716
   5.9410665   6.1619559   6.1596842   6.1641989   6.1643417   5.9376266
   5.9418018   6.1618038   6.1619222   6.1644110   6.1623318   5.9386805
   5.9406756   6.1588224   6.1606669   6.1646373   6.1638836   5.9404185
   8.4771763   8.4759304   8.4790181   8.4749981   8.4766048   8.4801591
 TTTTTTTTTTTTTTTTTTTTTTTTTTTTTT MOQGAD      TELAPSE       39.88 TCPU      965.44
 TTTTTTTTTTTTTTTTTTTTTTTTTTTTTT SHELLXN     TELAPSE       45.97 TCPU     1159.59
 TTTTTTTTTTTTTTTTTTTTTTTTTTTTTT MONMO3      TELAPSE       46.11 TCPU     1164.12
 NUMERICALLY INTEGRATED DENSITY    197.9999571428
 TTTTTTTTTTTTTTTTTTTTTTTTTTTTTT NUMDFT      TELAPSE       46.62 TCPU     1180.27
 CYC   4 ETOT(AU) -1.289102938725E+03 DETOT -2.31E-03 tst  2.63E-05 PX  1.21E-02
 TTTTTTTTTTTTTTTTTTTTTTTTTTTTTT DIIS        TELAPSE       46.67 TCPU     1182.16
 DIIS TEST: 0.39428E-02 AT SCF   CYCLE   4 - DIIS ACTIVE - HISTORY:     4 CYCLES
 TTTTTTTTTTTTTTTTTTTTTTTTTTTTTT FDIK        TELAPSE       47.17 TCPU     1197.99
 INSULATING STATE
 TOP OF VALENCE BANDS -    BAND     99; K    1; EIG -2.4164256E-01 AU
 BOTTOM OF VIRTUAL BANDS - BAND    100; K   17; EIG -8.5803823E-02 AU
 INDIRECT ENERGY BAND GAP:   4.2406 eV
 BOTTOM OF VIRTUAL BANDS - BAND    100; K    1; EIG -7.5212685E-02 AU
 TTTTTTTTTTTTTTTTTTTTTTTTTTTTTT PDIG        TELAPSE       47.45 TCPU     1204.13
 CHARGE NORMALIZATION FACTOR   1.00000000
 TOTAL ATOMIC CHARGES:
   4.5126537   4.5112463   4.5117087   4.5129490   4.5108798   4.5119122
   0.8771649   0.8770935   0.8777077   0.8777581   0.8765701   0.8762880
   0.8778431   0.8773784   0.8762776   0.8772505   0.8779573   0.8778040
   5.9172024   6.1627193   6.1632806   6.1643145   6.1651235   5.9185599
   5.9180182   6.1624529   6.1633833   6.1652959   6.1650391   5.9185821
   5.9189919   6.1615793   6.1625993   6.1655635   6.1651594   5.9178814
   8.4879536   8.4870603   8.4880322   8.4863580   8.4861245   8.4902821
 TTTTTTTTTTTTTTTTTTTTTTTTTTTTTT MOQGAD      TELAPSE       47.50 TCPU     1204.17
 TTTTTTTTTTTTTTTTTTTTTTTTTTTTTT SHELLXN     TELAPSE       53.57 TCPU     1397.79
 TTTTTTTTTTTTTTTTTTTTTTTTTTTTTT MONMO3      TELAPSE       53.71 TCPU     1402.27
 NUMERICALLY INTEGRATED DENSITY    197.9999571082
 TTTTTTTTTTTTTTTTTTTTTTTTTTTTTT NUMDFT      TELAPSE       54.22 TCPU     1418.53
 CYC   5 ETOT(AU) -1.289103834084E+03 DETOT -8.95E-04 tst  5.38E-06 PX  6.87E-03
 TTTTTTTTTTTTTTTTTTTTTTTTTTTTTT DIIS        TELAPSE       54.29 TCPU     1420.77
 DIIS TEST: 0.75520E-04 AT SCF   CYCLE   5 - DIIS ACTIVE - HISTORY:     5 CYCLES
 TTTTTTTTTTTTTTTTTTTTTTTTTTTTTT FDIK        TELAPSE       54.82 TCPU     1437.61
 INSULATING STATE
 TOP OF VALENCE BANDS -    BAND     99; K    1; EIG -2.4142676E-01 AU
 BOTTOM OF VIRTUAL BANDS - BAND    100; K   17; EIG -8.5182475E-02 AU
 INDIRECT ENERGY BAND GAP:   4.2516 eV
 BOTTOM OF VIRTUAL BANDS - BAND    100; K    1; EIG -7.4592061E-02 AU
 TTTTTTTTTTTTTTTTTTTTTTTTTTTTTT PDIG        TELAPSE       55.10 TCPU     1443.74
 CHARGE NORMALIZATION FACTOR   1.00000000
 TOTAL ATOMIC CHARGES:
   4.5124314   4.5109277   4.5112934   4.5125279   4.5104198   4.5117375
   0.8779375   0.8782742   0.8785997   0.8787710   0.8774405   0.8773117
   0.8786611   0.8785070   0.8773243   0.8781666   0.8789086   0.8788041
   5.9197082   6.1630468   6.1613097   6.1643677   6.1640670   5.9170531
   5.9199443   6.1623670   6.1622813   6.1650589   6.1635954   5.9180253
   5.9191234   6.1606151   6.1620101   6.1647259   6.1646442   5.9188729
   8.4868734   8.4859284   8.4879545   8.4850786   8.4856088   8.4896961
 TTTTTTTTTTTTTTTTTTTTTTTTTTTTTT MOQGAD      TELAPSE       55.15 TCPU     1443.79
 TTTTTTTTTTTTTTTTTTTTTTTTTTTTTT SHELLXN     TELAPSE       61.25 TCPU     1638.17
 TTTTTTTTTTTTTTTTTTTTTTTTTTTTTT MONMO3      TELAPSE       61.39 TCPU     1642.72
 NUMERICALLY INTEGRATED DENSITY    197.9999570699
 TTTTTTTTTTTTTTTTTTTTTTTTTTTTTT NUMDFT      TELAPSE       61.90 TCPU     1658.91
 CYC   6 ETOT(AU) -1.289103851298E+03 DETOT -1.72E-05 tst  2.09E-07 PX  8.80E-04
 TTTTTTTTTTTTTTTTTTTTTTTTTTTTTT DIIS        TELAPSE       61.97 TCPU     1661.30
 DIIS TEST: 0.94194E-05 AT SCF   CYCLE   6 - DIIS ACTIVE - HISTORY:     6 CYCLES
 TTTTTTTTTTTTTTTTTTTTTTTTTTTTTT FDIK        TELAPSE       62.48 TCPU     1677.56
 INSULATING STATE
 TOP OF VALENCE BANDS -    BAND     99; K    1; EIG -2.4142245E-01 AU
 BOTTOM OF VIRTUAL BANDS - BAND    100; K   17; EIG -8.5270130E-02 AU
 INDIRECT ENERGY BAND GAP:   4.2491 eV
 BOTTOM OF VIRTUAL BANDS - BAND    100; K    1; EIG -7.4679897E-02 AU
 TTTTTTTTTTTTTTTTTTTTTTTTTTTTTT PDIG        TELAPSE       62.76 TCPU     1683.69
 CHARGE NORMALIZATION FACTOR   1.00000000
 TOTAL ATOMIC CHARGES:
   4.5125662   4.5110750   4.5115298   4.5128185   4.5107183   4.5118342
   0.8780708   0.8780533   0.8786175   0.8786632   0.8774667   0.8771960
   0.8787373   0.8783289   0.8772235   0.8781710   0.8788656   0.8787377
   5.9179663   6.1618901   6.1622429   6.1634404   6.1644193   5.9192033
   5.9190544   6.1616164   6.1625580   6.1645267   6.1639270   5.9191430
   5.9197974   6.1605519   6.1617715   6.1648368   6.1641483   5.9185783
   8.4872462   8.4862398   8.4874770   8.4855341   8.4855901   8.4895671
 TTTTTTTTTTTTTTTTTTTTTTTTTTTTTT MOQGAD      TELAPSE       62.81 TCPU     1683.73
 TTTTTTTTTTTTTTTTTTTTTTTTTTTTTT SHELLXN     TELAPSE       68.89 TCPU     1877.69
 TTTTTTTTTTTTTTTTTTTTTTTTTTTTTT MONMO3      TELAPSE       69.03 TCPU     1882.13
 NUMERICALLY INTEGRATED DENSITY    197.9999570682
 TTTTTTTTTTTTTTTTTTTTTTTTTTTTTT NUMDFT      TELAPSE       69.54 TCPU     1898.32
 CYC   7 ETOT(AU) -1.289103852497E+03 DETOT -1.20E-06 tst  1.14E-07 PX  4.86E-04
 TTTTTTTTTTTTTTTTTTTTTTTTTTTTTT DIIS        TELAPSE       69.62 TCPU     1900.80
 DIIS TEST: 0.28183E-05 AT SCF   CYCLE   7 - DIIS ACTIVE - HISTORY:     7 CYCLES
 TTTTTTTTTTTTTTTTTTTTTTTTTTTTTT FDIK        TELAPSE       70.13 TCPU     1917.30
 INSULATING STATE
 TOP OF VALENCE BANDS -    BAND     99; K    1; EIG -2.4143193E-01 AU
 BOTTOM OF VIRTUAL BANDS - BAND    100; K   17; EIG -8.5291389E-02 AU
 INDIRECT ENERGY BAND GAP:   4.2488 eV
 BOTTOM OF VIRTUAL BANDS - BAND    100; K    1; EIG -7.4699415E-02 AU
 TTTTTTTTTTTTTTTTTTTTTTTTTTTTTT PDIG        TELAPSE       70.42 TCPU     1923.44
 CHARGE NORMALIZATION FACTOR   1.00000000
 TOTAL ATOMIC CHARGES:
   4.5126376   4.5111696   4.5115924   4.5128325   4.5107370   4.5119056
   0.8779702   0.8780765   0.8785483   0.8786575   0.8774001   0.8771871
   0.8786646   0.8783260   0.8771969   0.8781202   0.8788364   0.8786926
   5.9187417   6.1623184   6.1618719   6.1638633   6.1641350   5.9182355
   5.9192329   6.1619047   6.1623932   6.1646216   6.1639092   5.9187774
   5.9194189   6.1606227   6.1617763   6.1646398   6.1644561   5.9187658
   8.4871347   8.4862286   8.4876841   8.4854527   8.4855607   8.4897036
 TTTTTTTTTTTTTTTTTTTTTTTTTTTTTT MOQGAD      TELAPSE       70.46 TCPU     1923.48
 TTTTTTTTTTTTTTTTTTTTTTTTTTTTTT SHELLXN     TELAPSE       76.57 TCPU     2118.24
 TTTTTTTTTTTTTTTTTTTTTTTTTTTTTT MONMO3      TELAPSE       76.72 TCPU     2122.74
 NUMERICALLY INTEGRATED DENSITY    197.9999570667
 TTTTTTTTTTTTTTTTTTTTTTTTTTTTTT NUMDFT      TELAPSE       77.22 TCPU     2138.96
 CYC   8 ETOT(AU) -1.289103853146E+03 DETOT -6.50E-07 tst  2.45E-08 PX  2.35E-04
 TTTTTTTTTTTTTTTTTTTTTTTTTTTTTT DIIS        TELAPSE       77.31 TCPU     2141.75
 DIIS TEST: 0.12188E-06 AT SCF   CYCLE   8 - DIIS ACTIVE - HISTORY:     8 CYCLES
 TTTTTTTTTTTTTTTTTTTTTTTTTTTTTT FDIK        TELAPSE       77.81 TCPU     2157.59
 INSULATING STATE
 TOP OF VALENCE BANDS -    BAND     99; K    1; EIG -2.4143707E-01 AU
 BOTTOM OF VIRTUAL BANDS - BAND    100; K   17; EIG -8.5284946E-02 AU
 INDIRECT ENERGY BAND GAP:   4.2491 eV
 BOTTOM OF VIRTUAL BANDS - BAND    100; K    1; EIG -7.4692753E-02 AU
 TTTTTTTTTTTTTTTTTTTTTTTTTTTTTT PDIG        TELAPSE       78.09 TCPU     2163.72
 CHARGE NORMALIZATION FACTOR   1.00000000
 TOTAL ATOMIC CHARGES:
   4.5126196   4.5111423   4.5115578   4.5128202   4.5107210   4.5119113
   0.8779524   0.8780742   0.8785465   0.8786406   0.8773915   0.8771777
   0.8786401   0.8783340   0.8771964   0.8781023   0.8788147   0.8786988
   5.9185805   6.1623624   6.1618964   6.1638158   6.1642917   5.9183114
   5.9193474   6.1619372   6.1624535   6.1647700   6.1638167   5.9186119
   5.9194878   6.1606025   6.1618755   6.1648189   6.1643585   5.9186161
   8.4871438   8.4861731   8.4876894   8.4854122   8.4856219   8.4896640
 TTTTTTTTTTTTTTTTTTTTTTTTTTTTTT MOQGAD      TELAPSE       78.13 TCPU     2163.77
 TTTTTTTTTTTTTTTTTTTTTTTTTTTTTT SHELLXN     TELAPSE       84.23 TCPU     2358.10
 +++ ENERGIES IN A.U. +++
 ::: EXT EL-POLE                                  -1.1287071737995E+03
 ::: EXT EL-SPHEROPOLE                             1.2981244389890E+01
 ::: BIELET ZONE E-E                               2.0310525242323E+03
 ::: TOTAL E-E                                     9.1532659482268E+02
 ::: TOTAL E-N + N-E                              -3.6625891520072E+03
 ::: TOTAL N-N                                     3.1194848640765E+02
 ::: KINETIC ENERGY                                1.2799237195530E+03
 ::: PSEUDO TOTAL   ENERGY                        -1.1553903512238E+03
 ::: VIRIAL COEFFICIENT                            1.0511364713995E+00
 TTTTTTTTTTTTTTTTTTTTTTTTTTTTTT MONMO3      TELAPSE       84.37 TCPU     2362.54
 NUMERICALLY INTEGRATED DENSITY    197.9999570666
 EXCHANGE ENERGY: -0.126024680321E+03  CORRELATION ENERGY: -0.768882166783E+01
 TTTTTTTTTTTTTTTTTTTTTTTTTTTTTT NUMDFT      TELAPSE       84.87 TCPU     2378.71
 CYC   9 ETOT(AU) -1.289103853212E+03 DETOT -6.61E-08 tst  9.57E-10 PX  2.35E-04

 == SCF ENDED - CONVERGENCE ON ENERGY      E(AU) -1.2891038532123E+03 CYCLES   9


 ENERGY EXPRESSION=HARTREE+FOCK EXCH*0.00000+(HSESOL     EXCH)*1.00000+PBESOL     CORR


 TOTAL ENERGY(DFT)(AU)(  9) -1.2891038532123E+03 DE-6.6E-08 tester 9.6E-10
 TTTTTTTTTTTTTTTTTTTTTTTTTTTTTT EDFT        TELAPSE       84.87 TCPU     2378.72
 
 INFORMATION **** DFTD3 ENERGY **** CALCULATE DFTD3 ENERGY

           DFT-D V3(BJ)
 DF                                         hsesol3c  
 parameters
 s6       :    1.0000
 s8       :    0.0000
 a1       :    0.5196
 a2       :    4.9385
 k1 k3    :   16.0000   -4.0000
 Cutoff   :   50.2022
 CN-Cutoff:   21.1671
 ABC-Cutoff:   21.1671
 
 Edisp /kcal,au:   -23.3242 -0.03716952

 E6    /kcal :   -24.7647
 E8    /kcal :     0.0000
 E6(ABC) "   :   1.440521
 
 INFORMATION **** DFTD3 ENERGY **** NORMAL TERMINATION OF DFTD3 MODULE

 GCP ENERGY CALCULATION
  level        hsesol3c            basis:hsesol3c
  Nbf            474
  Atoms           42

  Parameters: 
  sigma     1.0000
  eta       1.4281
  alpha     0.2936
  beta      1.9467

  dmp_scal      4.0000
  dmp_exp       6.0000
 cutoffs: 
   distance [bohr] 60.0
   noise    [a.u.] 2.2E-16
 SR-damping   T
 ** gCP correction **
  Egcp:        0.0829454718 / (a.u.) ||      52.0491 / (kcal/mol)
 INFORMATION **** GCP **** NORMAL TERMINATION OF GCP MODULE

 *******************************************************************************

 DFT-D3-GCP DISPERSION AND COUNTERPOISE CORRECTION

 D3 DISPERSION ENERGY (AU)      -3.7169518765539E-02
 GCP ENERGY (AU)                 8.2945471760921E-02
 TOTAL ENERGY + DISP + GCP (AU) -1.2890580772593E+03

 *******************************************************************************

 EIGENVECTORS IN FORTRAN UNIT 10
 TTTTTTTTTTTTTTTTTTTTTTTTTTTTTT END         TELAPSE       85.88 TCPU     2385.70
 EEEEEEEEEE TERMINATION  DATE 02 12 2025 TIME 08:07:15.4
