 Default number of threads is:           32

         
 *******************************************************************************
 *                                                                             *
 *                               CRYSTAL23                                     *
 *                      public : 1.0.1 - October 2022                          *
 *                       HTTP://WWW.CRYSTAL.UNITO.IT                           *
 *                                                                             *
 *                              MAIN AUTHORS                                   *
 *                                                                             *
 *  R. DOVESI(1,11), V.R. SAUNDERS(2), C. ROETTI(1,11), R. ORLANDO(1,11),      *
 *  C.M. ZICOVICH-WILSON(1,3), F. PASCALE(4), B. CIVALLERI(1,11),              *
 *  K. DOLL(5), N.M. HARRISON(6), I.J. BUSH(7), Ph. D'ARCO(8),                 *
 *  M. LLUNELL(9), M. CAUSA'(10), Y. NOEL(8), L. MASCHIO(1,11), A. ERBA(1,11)  *
 *  M. RE'RAT(14), S. CASASSA(1,11), B.G. SEARLE(2), J.K. DESMARAIS(1)         *
 *                                                                             *
 *        CONTRIBUTIONS TO THE CODE HAVE ALSO BEEN GIVEN BY                    *
 *                                                                             *
 *  M. FERRABONE(1,11), M. DE LA PIERRE(1,11), M. FERRERO(1,11),               *
 *  J. BAIMA(1,11), E. ALBANESE(1,11), M.F. PEINTINGER(12), R. BAST(13),       *
 *  B. KIRTMAN(15), V. LACIVITA(1,11), R. DEMICHELIS(1,16)                     *
 *  G. BRANDEBURG(17), S. SALUSTRO(1,11), G. SANSONE(1,11)                     *
 *  M.T. RUGGIERO(18), L.E. DAGA(1), L. DONA'(1), A. COSSARD(1)                *
 *                                                                             *
 * (1) THEORETICAL CHEMISTRY GROUP - UNIVERSITA' DI TORINO - TORINO (ITALY)    *
 * (2) SCIENTIFIC COMPUTING DEPARTMENT - STFC DARESBURY (UK)                   *
 * (3) UNIVERSIDAD AUTONOMA DEL ESTADO DE MORELOS - CUERNAVACA (MEXICO)        *
 * (4) UNIVERSITE' DE LORRAINE - NANCY (FRANCE)                                *
 * (5) UNIVERSITAET STUTTGART- STUTTGART (GERMANY)                             *
 * (6) IMPERIAL COLLEGE - LONDON (UK)                                          *
 * (7) SCIENTIFIC COMPUTING DEPARTMENT - STFC RAL (UK)                         *
 * (8) UPMC - SORBONNE UNIVERSITES - PARIS (FRANCE)                            *
 * (9) UNIVERSIDAD DE BARCELONA - BARCELONA (SPAIN)                            *
 *(10) UNIVERSITA' DI NAPOLI "FEDERICO II" - NAPOLI (ITALY)                    *
 *(11) NIS - NANOSTRUCTURED INTERFACES AND SURFACES - TORINO (ITALY)           *
 *(12) MPI FUER CHEMISCHE ENERGIEKONVERSION - MUELHEIM AN DER RUHR (GERMANY)   *
 *(13) UNIVERSITY OF TROMSO - TROMSO (NORWAY)                                  *
 *(14) UNIVERSITE' DE PAU ET DES PAYS DE L'ADOUR - PAU (FRANCE)                *
 *(15) UNIVERSITY OF CALIFORNIA SANTA BARBARA - SANTA BARBARA (USA)            *
 *(16) CURTIN UNIVERSITY - PERTH (AUSTRALIA)                                   *
 *(17) UNIVERSITY COLLEGE LONDON - LONDON (UK)                                 *
 *(18) UNIVERSITY OF VERMONT - BURLINGTON (USA)                                *
 *                                                                             *
 *******************************************************************************
 EEEEEEEEEE STARTING  DATE 02 12 2025 TIME 07:55:29.4
 COF-5_z31_inc_L060                                                              

 CRYSTAL CALCULATION
 (INPUT ACCORDING TO THE INTERNATIONAL TABLES FOR X-RAY CRYSTALLOGRAPHY)
 CRYSTAL FAMILY                       :  TRICLINIC   
 CRYSTAL CLASS  (GROTH - 1921)        :  TRICLINIC PEDIAL                     

 SPACE GROUP (NONCENTROSYMMETRIC)     :  P 1             

 LATTICE PARAMETERS  (ANGSTROMS AND DEGREES) - CONVENTIONAL CELL
        A           B           C        ALPHA        BETA       GAMMA
    15.02070    15.04439     6.75352    39.73933    89.99967   120.05310


 NUMBER OF IRREDUCIBLE ATOMS IN THE CONVENTIONAL CELL:   42

 INPUT COORDINATES

 ATOM AT. N.              COORDINATES
   1   5     4.999170000000E-01 -2.589280000000E-03  5.006125300000E-01
   2   5     6.586940900000E-01  1.564328400000E-01  5.006225200000E-01
   3   5     4.997928400000E-01  1.567790500000E-01  4.991926700000E-01
   4   5     1.119824100000E-01  3.814854700000E-01  5.054071400000E-01
   5   5     2.696224600000E-01  3.791215200000E-01  5.094507100000E-01
   6   5     2.712736600000E-01  5.412085600000E-01  5.034855500000E-01
   7   1     7.878210900000E-01  7.708815000000E-02  5.045106100000E-01
   8   1    -1.505250000000E-02  4.643195100000E-01  4.929212300000E-01
   9   1     7.905971800000E-01  3.670837400000E-01  4.927829400000E-01
  10   1    -1.763983000000E-02  1.745006800000E-01  5.040792200000E-01
  11   1     4.778714200000E-01  6.709112000000E-01  5.042012800000E-01
  12   1     2.939615600000E-01 -1.292364800000E-01  4.945533200000E-01
  13   1     1.953192700000E-01  6.764495800000E-01  4.958600600000E-01
  14   1     5.764031400000E-01 -1.345412100000E-01  5.023401000000E-01
  15   1     4.789581900000E-01  4.612161700000E-01  4.977573800000E-01
  16   1     2.897337200000E-01  7.578675000000E-02  5.060398400000E-01
  17   1     1.924539900000E-01  1.718763300000E-01  5.056749900000E-01
  18   1     5.765338800000E-01  3.649268700000E-01  4.986907500000E-01
  19   6     7.780443700000E-01  2.159771100000E-01  5.003725500000E-01
  20   6     8.321604400000E-01  1.619869400000E-01  5.021385000000E-01
  21   6    -5.934510000000E-02  3.792686300000E-01  4.957461200000E-01
  22   6     8.335985000000E-01  3.255883800000E-01  4.960832500000E-01
  23   6    -6.066016000000E-02  2.158484600000E-01  5.014948400000E-01
  24   6    -5.654310000000E-03  3.245264500000E-01  4.993117500000E-01
  25   6     3.306138300000E-01  6.613364400000E-01  5.018538900000E-01
  26   6     4.383969200000E-01  7.156387100000E-01  5.022440400000E-01
  27   6     3.331567900000E-01 -1.743852500000E-01  4.969681000000E-01
  28   6     2.787799600000E-01  7.181441300000E-01  4.980866800000E-01
  29   6     4.928124000000E-01 -1.768325100000E-01  5.008067500000E-01
  30   6     4.405082800000E-01 -1.210909300000E-01  4.991826300000E-01
  31   6     3.306536100000E-01  3.231584500000E-01  4.999537800000E-01
  32   6     4.386302500000E-01  3.766675200000E-01  4.994023400000E-01
  33   6     3.307473100000E-01  1.605539700000E-01  5.039255000000E-01
  34   6     2.769863400000E-01  2.138796700000E-01  5.033176100000E-01
  35   6     4.922270400000E-01  3.231706700000E-01  5.003406200000E-01
  36   6     4.391854400000E-01  2.148752000000E-01  5.015823700000E-01
  37   8     4.470383200000E-01  5.070076000000E-02  4.995825000000E-01
  38   8     6.055067800000E-01  4.962038000000E-02  5.025723000000E-01
  39   8     6.061597000000E-01  2.104465200000E-01  4.980529600000E-01
  40   8     1.654423200000E-01  4.885857500000E-01  5.027189600000E-01
  41   8     1.634721400000E-01  3.260743200000E-01  5.102060900000E-01
  42   8     3.236796100000E-01  4.871573100000E-01  5.051904900000E-01

 *******************************************************************************

 << INFORMATION >>: FROM NOW ON, ALL COORDINATES REFER TO THE PRIMITIVE CELL

 *******************************************************************************

 LATTICE PARAMETERS  (ANGSTROMS AND DEGREES) - PRIMITIVE CELL
       A          B          C        ALPHA      BETA     GAMMA        VOLUME
   15.02070   15.04439    6.75352    39.73933  89.99967 120.05310    606.421180

 COORDINATES OF THE EQUIVALENT ATOMS (FRACTIONAL UNITS)

 N. ATOM EQUIV AT. N.          X                  Y                  Z

   1   1   1    5 B     4.99917000000E-01 -2.58928000000E-03 -4.99387470000E-01

   2   2   1    5 B    -3.41305910000E-01  1.56432840000E-01 -4.99377480000E-01

   3   3   1    5 B     4.99792840000E-01  1.56779050000E-01  4.99192670000E-01

   4   4   1    5 B     1.11982410000E-01  3.81485470000E-01 -4.94592860000E-01

   5   5   1    5 B     2.69622460000E-01  3.79121520000E-01 -4.90549290000E-01

   6   6   1    5 B     2.71273660000E-01 -4.58791440000E-01 -4.96514450000E-01

   7   7   1    1 H    -2.12178910000E-01  7.70881500000E-02 -4.95489390000E-01

   8   8   1    1 H    -1.50525000000E-02  4.64319510000E-01  4.92921230000E-01

   9   9   1    1 H    -2.09402820000E-01  3.67083740000E-01  4.92782940000E-01

  10  10   1    1 H    -1.76398300000E-02  1.74500680000E-01 -4.95920780000E-01

  11  11   1    1 H     4.77871420000E-01 -3.29088800000E-01 -4.95798720000E-01

  12  12   1    1 H     2.93961560000E-01 -1.29236480000E-01  4.94553320000E-01

  13  13   1    1 H     1.95319270000E-01 -3.23550420000E-01  4.95860060000E-01

  14  14   1    1 H    -4.23596860000E-01 -1.34541210000E-01 -4.97659900000E-01

  15  15   1    1 H     4.78958190000E-01  4.61216170000E-01  4.97757380000E-01

  16  16   1    1 H     2.89733720000E-01  7.57867500000E-02 -4.93960160000E-01

  17  17   1    1 H     1.92453990000E-01  1.71876330000E-01 -4.94325010000E-01

  18  18   1    1 H    -4.23466120000E-01  3.64926870000E-01  4.98690750000E-01

  19  19   1    6 C    -2.21955630000E-01  2.15977110000E-01 -4.99627450000E-01

  20  20   1    6 C    -1.67839560000E-01  1.61986940000E-01 -4.97861500000E-01

  21  21   1    6 C    -5.93451000000E-02  3.79268630000E-01  4.95746120000E-01

  22  22   1    6 C    -1.66401500000E-01  3.25588380000E-01  4.96083250000E-01

  23  23   1    6 C    -6.06601600000E-02  2.15848460000E-01 -4.98505160000E-01

  24  24   1    6 C    -5.65431000000E-03  3.24526450000E-01  4.99311750000E-01

  25  25   1    6 C     3.30613830000E-01 -3.38663560000E-01 -4.98146110000E-01

  26  26   1    6 C     4.38396920000E-01 -2.84361290000E-01 -4.97755960000E-01

  27  27   1    6 C     3.33156790000E-01 -1.74385250000E-01  4.96968100000E-01

  28  28   1    6 C     2.78779960000E-01 -2.81855870000E-01  4.98086680000E-01

  29  29   1    6 C     4.92812400000E-01 -1.76832510000E-01 -4.99193250000E-01

  30  30   1    6 C     4.40508280000E-01 -1.21090930000E-01  4.99182630000E-01

  31  31   1    6 C     3.30653610000E-01  3.23158450000E-01  4.99953780000E-01

  32  32   1    6 C     4.38630250000E-01  3.76667520000E-01  4.99402340000E-01

  33  33   1    6 C     3.30747310000E-01  1.60553970000E-01 -4.96074500000E-01

  34  34   1    6 C     2.76986340000E-01  2.13879670000E-01 -4.96682390000E-01

  35  35   1    6 C     4.92227040000E-01  3.23170670000E-01 -4.99659380000E-01

  36  36   1    6 C     4.39185440000E-01  2.14875200000E-01 -4.98417630000E-01

  37  37   1    8 O     4.47038320000E-01  5.07007600000E-02  4.99582500000E-01

  38  38   1    8 O    -3.94493220000E-01  4.96203800000E-02 -4.97427700000E-01

  39  39   1    8 O    -3.93840300000E-01  2.10446520000E-01  4.98052960000E-01

  40  40   1    8 O     1.65442320000E-01  4.88585750000E-01 -4.97281040000E-01

  41  41   1    8 O     1.63472140000E-01  3.26074320000E-01 -4.89793910000E-01

  42  42   1    8 O     3.23679610000E-01  4.87157310000E-01 -4.94809510000E-01

 NUMBER OF SYMMETRY OPERATORS         :    1
 *******************************************************************************
 * GEOMETRY EDITING - INPUT COORDINATES ARE GIVEN IN ANGSTROM         
 *******************************************************************************

 GCALCO - MAX INDICES DIRECT LATTICE VECTOR     8    14    27
 NO.OF VECTORS CREATED 6999 STARS 3500 RMAX   199.52328 BOHR

 GEOMETRY FOR WAVE FUNCTION - DIMENSIONALITY OF THE SYSTEM    3
 (NON PERIODIC DIRECTION: LATTICE PARAMETER FORMALLY SET TO 500)
 *******************************************************************************
 LATTICE PARAMETERS (ANGSTROMS AND DEGREES) - BOHR = 0.5291772083 ANGSTROM
 PRIMITIVE CELL - CENTRING CODE 1/0 VOLUME=   606.421180 - DENSITY  1.068 g/cm^3
         A              B              C           ALPHA      BETA       GAMMA 
    15.02070100    15.04438700     6.75351800    39.739332  89.999672 120.053104
 *******************************************************************************
 ATOMS IN THE ASYMMETRIC UNIT   42 - ATOMS IN THE UNIT CELL:   42
     ATOM                 X/A                 Y/B                 Z/C    
 *******************************************************************************
      1 T   5 B     4.999170000000E-01 -2.589280000000E-03 -4.993874700000E-01
      2 T   5 B    -3.413059100000E-01  1.564328400000E-01 -4.993774800000E-01
      3 T   5 B     4.997928400000E-01  1.567790500000E-01  4.991926700000E-01
      4 T   5 B     1.119824100000E-01  3.814854700000E-01 -4.945928600000E-01
      5 T   5 B     2.696224600000E-01  3.791215200000E-01 -4.905492900000E-01
      6 T   5 B     2.712736600000E-01 -4.587914400000E-01 -4.965144500000E-01
      7 T   1 H    -2.121789100000E-01  7.708815000000E-02 -4.954893900000E-01
      8 T   1 H    -1.505250000000E-02  4.643195100000E-01  4.929212300000E-01
      9 T   1 H    -2.094028200000E-01  3.670837400000E-01  4.927829400000E-01
     10 T   1 H    -1.763983000000E-02  1.745006800000E-01 -4.959207800000E-01
     11 T   1 H     4.778714200000E-01 -3.290888000000E-01 -4.957987200000E-01
     12 T   1 H     2.939615600000E-01 -1.292364800000E-01  4.945533200000E-01
     13 T   1 H     1.953192700000E-01 -3.235504200000E-01  4.958600600000E-01
     14 T   1 H    -4.235968600000E-01 -1.345412100000E-01 -4.976599000000E-01
     15 T   1 H     4.789581900000E-01  4.612161700000E-01  4.977573800000E-01
     16 T   1 H     2.897337200000E-01  7.578675000000E-02 -4.939601600000E-01
     17 T   1 H     1.924539900000E-01  1.718763300000E-01 -4.943250100000E-01
     18 T   1 H    -4.234661200000E-01  3.649268700000E-01  4.986907500000E-01
     19 T   6 C    -2.219556300000E-01  2.159771100000E-01 -4.996274500000E-01
     20 T   6 C    -1.678395600000E-01  1.619869400000E-01 -4.978615000000E-01
     21 T   6 C    -5.934510000000E-02  3.792686300000E-01  4.957461200000E-01
     22 T   6 C    -1.664015000000E-01  3.255883800000E-01  4.960832500000E-01
     23 T   6 C    -6.066016000000E-02  2.158484600000E-01 -4.985051600000E-01
     24 T   6 C    -5.654310000000E-03  3.245264500000E-01  4.993117500000E-01
     25 T   6 C     3.306138300000E-01 -3.386635600000E-01 -4.981461100000E-01
     26 T   6 C     4.383969200000E-01 -2.843612900000E-01 -4.977559600000E-01
     27 T   6 C     3.331567900000E-01 -1.743852500000E-01  4.969681000000E-01
     28 T   6 C     2.787799600000E-01 -2.818558700000E-01  4.980866800000E-01
     29 T   6 C     4.928124000000E-01 -1.768325100000E-01 -4.991932500000E-01
     30 T   6 C     4.405082800000E-01 -1.210909300000E-01  4.991826300000E-01
     31 T   6 C     3.306536100000E-01  3.231584500000E-01  4.999537800000E-01
     32 T   6 C     4.386302500000E-01  3.766675200000E-01  4.994023400000E-01
     33 T   6 C     3.307473100000E-01  1.605539700000E-01 -4.960745000000E-01
     34 T   6 C     2.769863400000E-01  2.138796700000E-01 -4.966823900000E-01
     35 T   6 C     4.922270400000E-01  3.231706700000E-01 -4.996593800000E-01
     36 T   6 C     4.391854400000E-01  2.148752000000E-01 -4.984176300000E-01
     37 T   8 O     4.470383200000E-01  5.070076000000E-02  4.995825000000E-01
     38 T   8 O    -3.944932200000E-01  4.962038000000E-02 -4.974277000000E-01
     39 T   8 O    -3.938403000000E-01  2.104465200000E-01  4.980529600000E-01
     40 T   8 O     1.654423200000E-01  4.885857500000E-01 -4.972810400000E-01
     41 T   8 O     1.634721400000E-01  3.260743200000E-01 -4.897939100000E-01
     42 T   8 O     3.236796100000E-01  4.871573100000E-01 -4.948095100000E-01

 T = ATOM BELONGING TO THE ASYMMETRIC UNIT

 ****    1 SYMMOPS - TRANSLATORS IN FRACTIONAL UNITS
 **** MATRICES AND TRANSLATORS IN THE CRYSTALLOGRAPHIC REFERENCE FRAME
   V INV                    ROTATION MATRICES                   TRANSLATORS
   1   1  1.00  0.00  0.00  0.00  1.00  0.00 -0.00  0.00  1.00  0.00  0.00  0.00

 DIRECT LATTICE VECTORS CARTESIAN COMPONENTS (ANGSTROM)
          X                    Y                    Z
   0.130013421718E+02  -0.752240388864E+01   0.000000000000E+00
   0.000000000000E+00   0.150443870000E+02   0.000000000000E+00
   0.300475607183E+01   0.519319112409E+01   0.310035679782E+01


 CARTESIAN COORDINATES - PRIMITIVE CELL
 *******************************************************************************
 *      ATOM          X(ANGSTROM)         Y(ANGSTROM)         Z(ANGSTROM)
 *******************************************************************************
    1     5 B     1.994298369976E+00  3.458249584052E+00 -4.648636135177E+00
    2     5 B    -5.937942436325E+00  2.327514392362E+00 -1.548248364795E+00
    3     5 B    -1.998656165903E+00 -1.137387945650E+00  4.648032185672E+00
    4     5 B    -3.020926953977E-02  2.328322878522E+00 -1.533414335653E+00
    5     5 B     2.031472901995E+00  1.127925606582E+00 -1.520877825916E+00
    6     5 B     2.035016867460E+00  3.523026554759E+00 -1.539371950272E+00
    7     1 H    -4.247435363675E+00  1.826683171564E-01 -1.536193898533E+00
    8     1 H    -1.719350716095E+00  4.465276417045E+00 -1.572125111598E+00
    9     1 H     1.762930888337E+00 -1.943174523689E-01  4.628159735695E+00
   10     1 H    -1.719462440534E+00  1.825382945216E-01 -1.537531361452E+00
   11     1 H     1.718459559373E+00 -1.269262728776E+00 -4.637509729718E+00
   12     1 H     5.307906918023E+00 -1.587271289879E+00  1.533291747545E+00
   13     1 H     4.029351188075E+00 -3.761792106284E+00  1.537343107787E+00
   14     1 H     2.993911773961E+00  9.067256479625E-01 -4.643280051783E+00
   15     1 H     4.717982752186E+00  7.275556848604E-01 -1.557131321071E+00
   16     1 H     2.282697442418E+00 -3.604558384093E+00 -1.531452739907E+00
   17     1 H     1.016834101057E+00 -1.429066872449E+00 -1.532583905085E+00
   18     1 H    -1.002427793413E+00  1.414184747433E+00  4.646476054588E+00
   19     6 C    -4.386979706623E+00  2.324222281507E+00 -1.549023360984E+00
   20     6 C    -3.678091914576E+00  1.114061250291E+00 -1.543548285897E+00
   21     6 C    -2.286725858993E+00  3.533595083787E+00 -1.563366944684E+00
   22     6 C     2.331922390007E+00 -1.124923863099E+00  4.638391874238E+00
   23     6 C    -2.286549902704E+00  1.114785416838E+00 -1.545543861553E+00
   24     6 C    -1.577959678338E+00  2.324665733231E+00 -1.552312219475E+00
   25     6 C    -2.031400899630E-01 -3.177685009127E-01 -4.644787476262E+00
   26     6 C     1.199357049040E+00 -3.095859478830E-01 -4.643577872057E+00
   27     6 C     5.824753339621E+00 -2.548808794839E+00  1.540778427133E+00
   28     6 C     5.121142626622E+00 -3.750784916077E+00  1.544246424240E+00
   29     6 C     1.902512618106E+00  8.913192920498E-01 -4.648033983879E+00
   30     6 C    -2.769465183717E+00 -4.871861195411E+00  4.648001058090E+00
   31     6 C     2.796423808201E+00 -2.224248088769E-01 -1.550321697400E+00
   32     6 C     4.198608108711E+00 -2.325212817188E-01 -1.552031358152E+00
   33     6 C     2.809576083748E+00 -2.648788482124E+00 -1.538007948299E+00
   34     6 C     2.108784756123E+00 -1.445281173445E+00 -1.539892624193E+00
   35     6 C     4.898257617337E+00 -1.435652630547E+00 -1.549122355376E+00
   36     6 C     4.212376782251E+00 -2.659442608395E+00 -1.545272487322E+00
   37     8 O    -2.683364387471E+00 -2.334405524621E+00  4.649240797763E+00
   38     8 O     3.372995860405E+00  3.459600402727E+00 -4.642560148935E+00
   39     8 O    -6.191687738485E-01 -1.136046970802E+00  4.644498678026E+00
   40     8 O     6.567639876653E-01  3.523473671264E+00 -1.541748652790E+00
   41     8 O     6.536460026734E-01  1.132291413175E+00 -1.518535878398E+00
   42     8 O     2.721487484064E+00  2.324493989133E+00 -1.534086027953E+00

 *******************************************************************************
 STARTING BASIS SET HANDLING 
 *******************************************************************************

 Loading internal basis set: SOLDEF2MSVP         

 Please cite in your publication:
 L. Dona', J. G. Brandenburg and B. Civalleri, J. Chem. Phys., 151, 121101 (2019
 )                                                                              
                                                                                
                    

 *******************************************************************************
 LOCAL ATOMIC FUNCTIONS BASIS SET
 *******************************************************************************
   ATOM   X(AU)   Y(AU)   Z(AU)  N. TYPE  EXPONENT  S COEF   P COEF   D/F/G COEF
 *******************************************************************************
   1 B    3.769   6.535  -8.785
                                  1 S  
                                         2.410E+03 1.755E-03 0.000E+00 0.000E+00
                                         3.619E+02 1.344E-02 0.000E+00 0.000E+00
                                         8.231E+01 6.637E-02 0.000E+00 0.000E+00
                                         2.311E+01 2.303E-01 0.000E+00 0.000E+00
                                         7.252E+00 5.150E-01 0.000E+00 0.000E+00
                                  2 S  
                                         2.367E+00 1.000E+00 0.000E+00 0.000E+00
                                  3 S  
                                         5.533E-01 1.000E+00 0.000E+00 0.000E+00
                                  4 S  
                                         1.716E-01 1.000E+00 0.000E+00 0.000E+00
                           5-     7 P  
                                         6.002E+00 0.000E+00-3.555E-02 0.000E+00
                                         1.240E+00 0.000E+00-1.983E-01 0.000E+00
                                         3.367E-01 0.000E+00-5.048E-01 0.000E+00
                           8-    10 P  
                                         1.256E-01 0.000E+00 1.000E+00 0.000E+00
                          11-    15 D  
                                         8.880E-01 0.000E+00 0.000E+00 1.000E+00
   2 B  -11.221   4.398  -2.926
   3 B   -3.777  -2.149   8.784
   4 B   -0.057   4.400  -2.898
   5 B    3.839   2.131  -2.874
   6 B    3.846   6.658  -2.909
   7 H   -8.026   0.345  -2.903
                                 91 S  
                                         1.874E+01 1.968E-02 0.000E+00 0.000E+00
                                         2.826E+00 1.380E-01 0.000E+00 0.000E+00
                                         6.401E-01 4.783E-01 0.000E+00 0.000E+00
                                 92 S  
                                         1.756E-01 1.000E+00 0.000E+00 0.000E+00
   8 H   -3.249   8.438  -2.971
   9 H    3.331  -0.367   8.746
  10 H   -3.249   0.345  -2.906
  11 H    3.247  -2.399  -8.764
  12 H   10.030  -3.000   2.898
  13 H    7.614  -7.109   2.905
  14 H    5.658   1.713  -8.775
  15 H    8.916   1.375  -2.943
  16 H    4.314  -6.812  -2.894
  17 H    1.922  -2.701  -2.896
  18 H   -1.894   2.672   8.781
  19 C   -8.290   4.392  -2.927
                                115 S  
                                         3.624E+03 1.634E-03 0.000E+00 0.000E+00
                                         5.440E+02 1.252E-02 0.000E+00 0.000E+00
                                         1.237E+02 6.211E-02 0.000E+00 0.000E+00
                                         3.476E+01 2.182E-01 0.000E+00 0.000E+00
                                         1.093E+01 4.980E-01 0.000E+00 0.000E+00
                                116 S  
                                         3.574E+00 1.000E+00 0.000E+00 0.000E+00
                                117 S  
                                         7.742E-01 1.000E+00 0.000E+00 0.000E+00
                                118 S  
                                         2.330E-01 1.000E+00 0.000E+00 0.000E+00
                         119-   121 P  
                                         9.443E+00 0.000E+00 3.790E-02 0.000E+00
                                         2.002E+00 0.000E+00 2.082E-01 0.000E+00
                                         5.463E-01 0.000E+00 5.047E-01 0.000E+00
                         122-   124 P  
                                         1.820E-01 0.000E+00 1.000E+00 0.000E+00
                         125-   129 D  
                                         8.880E-01 0.000E+00 0.000E+00 1.000E+00
  20 C   -6.951   2.105  -2.917
  21 C   -4.321   6.678  -2.954
  22 C    4.407  -2.126   8.765
  23 C   -4.321   2.107  -2.921
  24 C   -2.982   4.393  -2.933
  25 C   -0.384  -0.600  -8.777
  26 C    2.266  -0.585  -8.775
  27 C   11.007  -4.817   2.912
  28 C    9.678  -7.088   2.918
  29 C    3.595   1.684  -8.784
  30 C   -5.234  -9.206   8.783
  31 C    5.284  -0.420  -2.930
  32 C    7.934  -0.439  -2.933
  33 C    5.309  -5.005  -2.906
  34 C    3.985  -2.731  -2.910
  35 C    9.256  -2.713  -2.927
  36 C    7.960  -5.026  -2.920
  37 O   -5.071  -4.411   8.786
                                385 S  
                                         6.773E+03 1.727E-03 0.000E+00 0.000E+00
                                         1.017E+03 1.325E-02 0.000E+00 0.000E+00
                                         2.313E+02 6.603E-02 0.000E+00 0.000E+00
                                         6.501E+01 2.353E-01 0.000E+00 0.000E+00
                                         2.050E+01 5.498E-01 0.000E+00 0.000E+00
                                386 S  
                                         6.716E+00 1.000E+00 0.000E+00 0.000E+00
                                387 S  
                                         1.147E+00 1.000E+00 0.000E+00 0.000E+00
                                388 S  
                                         3.342E-01 1.000E+00 0.000E+00 0.000E+00
                         389-   391 P  
                                         1.769E+01 0.000E+00 4.359E-02 0.000E+00
                                         3.854E+00 0.000E+00 2.318E-01 0.000E+00
                                         1.047E+00 0.000E+00 5.146E-01 0.000E+00
                         392-   394 P  
                                         2.759E-01 0.000E+00 1.000E+00 0.000E+00
                         395-   399 D  
                                         8.000E-01 0.000E+00 0.000E+00 1.000E+00
  38 O    6.374   6.538  -8.773
  39 O   -1.170  -2.147   8.777
  40 O    1.241   6.658  -2.913
  41 O    1.235   2.140  -2.870
  42 O    5.143   4.393  -2.899

 *******************************************************************************
 FINISHED BASIS SET HANDLING 
 *******************************************************************************

 INFORMATION **** SET_MPP **** PCRYSTAL CALCULATION
 INFORMATION **** READM2 **** NEW DEFAULT: FOCK/KS MATRIX MIXING SET TO 30 %
 INFORMATION **** READM2 **** NEW DEFAULT: FULL DIRECT SCF MODE
 INFORMATION **** READM2 **** NEW DEFAULT: COULOMB BIPOLAR BUFFER SET TO 32 Mb
 INFORMATION **** READM2 **** NEW DEFAULT: EXCHANGE BIPOLAR BUFFER SET TO 32 Mb

 *******************************************************************************
 NEW DEFAULT: DFT INTEGRATION GRID INCREASED TO XLGRID
 NEW DEFAULT: DIIS ACCELERATOR ACTIVE
 USE KEYWORD NODIIS TO TURN IT OFF
 *******************************************************************************

 WARNING **** RDDFTP **** HSEsol-HJS ACTIVE
 RANGE SEPARATION - OMEGA:   0.110000000000000     
 WARNING **** RDDFTP **** HSEsol-3c has to be combined with sol-def2-mSVP basis set
 *******************************************************************************
 N. OF ATOMS PER CELL        42  COULOMB OVERLAP TOL         (T1) 10**   -6
 NUMBER OF SHELLS           234  COULOMB PENETRATION TOL     (T2) 10**   -6
 NUMBER OF AO               474  EXCHANGE OVERLAP TOL        (T3) 10**   -6
 N. OF ELECTRONS PER CELL   198  EXCHANGE PSEUDO OVP (F(G))  (T4) 10**   -6
 CORE ELECTRONS PER CELL     60  EXCHANGE PSEUDO OVP (P(G))  (T5) 10**  -12
 N. OF SYMMETRY OPERATORS     1  POLE ORDER IN MONO ZONE                  4
 *******************************************************************************
 TYPE OF CALCULATION :  RESTRICTED CLOSED SHELL
 KOHN-SHAM HAMILTONIAN

 (EXCHANGE)[CORRELATION] FUNCTIONAL:(HSEsol GGA)[PBEsol]

 RANGE-SEPARATED HYBRID FUNCTIONAL 
 OMEGA (SHORT-RANGE)[LONG-RANGE]:(    0.1100)[    0.0000]

 HYBRID EXCHANGE - PERCENTAGE OF FOCK EXCHANGE    25.0000

 CAPPA:IS1  2;IS2  2;IS3  8; K PTS MONK NET  20; SYMMOPS:K SPACE   2;G SPACE   1

 *******************************************************************************
 MAX NUMBER OF SCF CYCLES      50  CONVERGENCE ON DELTAP        10**-16
 WEIGHT OF F(I) IN F(I+1)      30% CONVERGENCE ON ENERGY        10**- 6
 SHRINK. FACT.(MONKH.)    2  2  8  NUMBER OF K POINTS IN THE IBZ     20
 SHRINKING FACTOR(GILAT NET)    8  NUMBER OF K POINTS(GILAT NET)   1028
 *******************************************************************************
 *** K POINTS COORDINATES (OBLIQUE COORDINATES IN UNITS OF IS =  2)
   1-R(  0  0  0)   2-R(  1  0  0)   3-R(  0  1  0)   4-R(  1  1  0)
   5-C(  0  0  1)   6-C(  1  0  1)   7-C(  0  1  1)   8-C(  1  1  1)
   9-C(  0  0  2)  10-C(  1  0  2)  11-C(  0  1  2)  12-C(  1  1  2)
  13-C(  0  0  3)  14-C(  1  0  3)  15-C(  0  1  3)  16-C(  1  1  3)
  17-R(  0  0  4)  18-R(  1  0  4)  19-R(  0  1  4)  20-R(  1  1  4)

 DIRECT LATTICE VECTORS COMPON. (A.U.)     RECIP. LATTICE VECTORS COMPON. (A.U.) 
        X            Y            Z              X            Y            Z
   24.5689761  -14.2152832    0.0000000      0.2557366    0.0000000   -0.2478508
    0.0000000   28.4297713    0.0000000      0.1278719    0.2210072   -0.4941227
    5.6781661    9.8137090    5.8588253      0.0000000    0.0000000    1.0724309

 DISK SPACE FOR EIGENVECTORS (FTN 10)     7189632 REALS

 SYMMETRY ADAPTION OF THE BLOCH FUNCTIONS DISABLED
 TTTTTTTTTTTTTTTTTTTTTTTTTTTTTT gordsh1     TELAPSE        0.04 TCPU        0.04

 MATRIX SIZE: P(G)  382376, F(G)   73255, P(G) IRR  192487, F(G) IRR   73771
 MAX G-VECTOR INDEX FOR 1- AND 2-ELECTRON INTEGRALS  71

 TTTTTTTTTTTTTTTTTTTTTTTTTTTTTT INPUT       TELAPSE        0.44 TCPU        0.44

 NEIGHBORS OF THE NON-EQUIVALENT ATOMS

 N = NUMBER OF NEIGHBORS AT DISTANCE R
    ATOM  N     R/ANG      R/AU   NEIGHBORS (ATOM LABELS AND CELL INDICES)
   1 B    1     1.3787     2.6054   38 O    0 0 0
   1 B    1     1.3795     2.6068   37 O    1 2-3
   1 B    1     1.5517     2.9323   30 C    1 2-3
   1 B    1     2.3868     4.5104    2 B    1 1-1
   1 B    1     2.3912     4.5187    3 B    1 2-3
   1 B    1     2.5629     4.8431   27 C    0 1-2

   2 B    1     1.3792     2.6064   38 O   -1-1 1
   2 B    1     1.3798     2.6075   39 O    0 1-2
   2 B    1     1.5510     2.9309   19 C    0 0 0
   2 B    1     2.3868     4.5104    1 B   -1-1 1
   2 B    1     2.3894     4.5154    3 B    0 1-2
   2 B    1     2.5618     4.8411   22 C    0 1-2

   3 B    1     1.3790     2.6060   37 O    0 0 0
   3 B    1     1.3795     2.6069   39 O    0 0 0
   3 B    1     1.5529     2.9346   36 C   -1-1 2
   3 B    1     2.3894     4.5154    2 B    0-1 2
   3 B    1     2.3912     4.5187    1 B   -1-2 3
   3 B    1     2.5679     4.8526   35 C   -1-1 2

   4 B    1     1.3778     2.6037   41 O    0 0 0
   4 B    1     1.3785     2.6051   40 O    0 0 0
   4 B    1     1.5479     2.9251   24 C    0 0 0
   4 B    1     2.3857     4.5084    5 B    0 0 0
   4 B    1     2.3859     4.5087    6 B    0 0 0
   4 B    1     2.5584     4.8347   21 C    0 0 0

   5 B    1     1.3778     2.6037   41 O    0 0 0
   5 B    1     1.3813     2.6103   42 O    0 0 0
   5 B    1     1.5522     2.9333   31 C    0 0 0
   5 B    1     2.3857     4.5084    4 B    0 0 0
   5 B    1     2.3952     4.5262    6 B    0 0 0
   5 B    1     2.5590     4.8357   32 C    0 0 0

   6 B    1     1.3783     2.6045   40 O    0 0 0
   6 B    1     1.3812     2.6101   42 O    0 0 0
   6 B    1     1.5546     2.9377   25 C    0 0 1
   6 B    1     2.3859     4.5087    4 B    0 0 0
   6 B    1     2.3952     4.5262    5 B    0 0 0
   6 B    1     2.5605     4.8386   26 C    0 0 1

   7 H    1     1.0916     2.0629   20 C    0 0 0
   7 H    1     2.1461     4.0556   19 C    0 0 0
   7 H    1     2.1712     4.1029   23 C    0 0 0
   7 H    1     2.5280     4.7772   10 H    0 0 0
   7 H    1     2.5583     4.8346   38 O   -1-1 1
   7 H    1     2.7310     5.1608    2 B    0 0 0

   8 H    1     1.0909     2.0615   21 C    0 0 0
   8 H    1     2.1454     4.0542   24 C    0 0 0
   8 H    1     2.1688     4.0985   22 C    0 1-2
   8 H    1     2.5272     4.7758    9 H    0 1-2
   8 H    1     2.5561     4.8304   40 O    0 0 0
   8 H    1     2.7242     5.1480    4 B    0 0 0

   9 H    1     1.0908     2.0613   22 C    0 0 0
   9 H    1     2.1442     4.0519   19 C    0-1 2
   9 H    1     2.1694     4.0995   21 C    0-1 2
   9 H    1     2.5272     4.7758    8 H    0-1 2
   9 H    1     2.5615     4.8406   39 O    0 0 0
   9 H    1     2.7248     5.1491    2 B    0-1 2

  10 H    1     1.0912     2.0621   23 C    0 0 0
  10 H    1     2.1468     4.0570   24 C    0 0 0
  10 H    1     2.1689     4.0986   20 C    0 0 0
  10 H    1     2.5280     4.7772    7 H    0 0 0
  10 H    1     2.5562     4.8305   41 O    0 0 0
  10 H    1     2.7309     5.1607    4 B    0 0 0

  11 H    1     1.0911     2.0619   26 C    0 0 0
  11 H    1     2.1443     4.0521   25 C    0 0 0
  11 H    1     2.1684     4.0977   29 C    0 0 0
  11 H    1     2.5222     4.7664   14 H    0 0 0
  11 H    1     2.5622     4.8419   42 O    0 0-1
  11 H    1     2.7179     5.1361    6 B    0 0-1

  12 H    1     1.0917     2.0630   27 C    0 0 0
  12 H    1     2.1441     4.0518   30 C    1 1-1
  12 H    1     2.1716     4.1037   28 C    0 0 0
  12 H    1     2.5226     4.7669   13 H    0 0 0
  12 H    1     2.5541     4.8265   37 O    1 1-1
  12 H    1     2.7237     5.1470    1 B    0-1 2

  13 H    1     1.0919     2.0633   28 C    0 0 0
  13 H    1     2.1522     4.0670   25 C    0-1 2
  13 H    1     2.1668     4.0946   27 C    0 0 0
  13 H    1     2.5226     4.7669   12 H    0 0 0
  13 H    1     2.5922     4.8986   40 O    0-1 1
  13 H    1     2.7582     5.2123    6 B    0-1 1

  14 H    1     1.0915     2.0627   29 C    0 0 0
  14 H    1     2.1483     4.0597   30 C    1 2-3
  14 H    1     2.1679     4.0968   26 C    0 0 0
  14 H    1     2.5222     4.7664   11 H    0 0 0
  14 H    1     2.5809     4.8771   38 O    0 0 0
  14 H    1     2.7404     5.1785    1 B    0 0 0

  15 H    1     1.0916     2.0628   32 C    0 0 0
  15 H    1     2.1436     4.0508   31 C    0 0 0
  15 H    1     2.1707     4.1021   35 C    0 0 0
  15 H    1     2.5217     4.7654   18 H    1 1-2
  15 H    1     2.5567     4.8315   42 O    0 0 0
  15 H    1     2.7164     5.1333    5 B    0 0 0

  16 H    1     1.0914     2.0624   33 C    0 0 0
  16 H    1     2.1487     4.0605   36 C    0 0 0
  16 H    1     2.1663     4.0937   34 C    0 0 0
  16 H    1     2.5170     4.7564   17 H    0 0 0
  16 H    1     2.5779     4.8716   37 O    1 1-2
  16 H    1     2.7395     5.1769    3 B    1 1-2

  17 H    1     1.0921     2.0638   34 C    0 0 0
  17 H    1     2.1502     4.0632   31 C    0 0 0
  17 H    1     2.1683     4.0976   33 C    0 0 0
  17 H    1     2.5170     4.7564   16 H    0 0 0
  17 H    1     2.5870     4.8888   41 O    0 0 0
  17 H    1     2.7510     5.1986    5 B    0 0 0

  18 H    1     1.0913     2.0622   35 C   -1-1 2
  18 H    1     2.1494     4.0619   36 C   -1-1 2
  18 H    1     2.1656     4.0923   32 C   -1-1 2
  18 H    1     2.5217     4.7654   15 H   -1-1 2
  18 H    1     2.5789     4.8734   39 O    0 0 0
  18 H    1     2.7392     5.1763    3 B    0 0 0

  19 C    1     1.4017     2.6488   22 C    0 1-2
  19 C    1     1.4025     2.6504   20 C    0 0 0
  19 C    1     1.5510     2.9309    2 B    0 0 0
  19 C    1     2.1442     4.0519    9 H    0 1-2
  19 C    1     2.1461     4.0556    7 H    0 0 0
  19 C    1     2.4236     4.5799   21 C    0 0 0

  20 C    1     1.0916     2.0629    7 H    0 0 0
  20 C    1     1.3915     2.6296   23 C    0 0 0
  20 C    1     1.4025     2.6504   19 C    0 0 0
  20 C    1     2.1689     4.0986   10 H    0 0 0
  20 C    1     2.4191     4.5714   22 C    0 1-2
  20 C    1     2.4241     4.5809   24 C    0 0 0

  21 C    1     1.0909     2.0615    8 H    0 0 0
  21 C    1     1.3909     2.6284   22 C    0 1-2
  21 C    1     1.4014     2.6483   24 C    0 0 0
  21 C    1     2.1694     4.0995    9 H    0 1-2
  21 C    1     2.4189     4.5710   23 C    0 0 0
  21 C    1     2.4236     4.5799   19 C    0 0 0

  22 C    1     1.0908     2.0613    9 H    0 0 0
  22 C    1     1.3909     2.6284   21 C    0-1 2
  22 C    1     1.4017     2.6488   19 C    0-1 2
  22 C    1     2.1688     4.0985    8 H    0-1 2
  22 C    1     2.4191     4.5714   20 C    0-1 2
  22 C    1     2.4226     4.5780   24 C    0-1 2

  23 C    1     1.0912     2.0621   10 H    0 0 0
  23 C    1     1.3915     2.6296   20 C    0 0 0
  23 C    1     1.4021     2.6496   24 C    0 0 0
  23 C    1     2.1712     4.1029    7 H    0 0 0
  23 C    1     2.4189     4.5710   21 C    0 0 0
  23 C    1     2.4237     4.5802   19 C    0 0 0

  24 C    1     1.4014     2.6483   21 C    0 0 0
  24 C    1     1.4021     2.6496   23 C    0 0 0
  24 C    1     1.5479     2.9251    4 B    0 0 0
  24 C    1     2.1454     4.0542    8 H    0 0 0
  24 C    1     2.1468     4.0570   10 H    0 0 0
  24 C    1     2.4226     4.5780   22 C    0 1-2

  25 C    1     1.4025     2.6504   26 C    0 0 0
  25 C    1     1.4037     2.6525   28 C    0 1-2
  25 C    1     1.5546     2.9377    6 B    0 0-1
  25 C    1     2.1443     4.0521   11 H    0 0 0
  25 C    1     2.1522     4.0670   13 H    0 1-2
  25 C    1     2.4271     4.5865   27 C    0 1-2

  26 C    1     1.0911     2.0619   11 H    0 0 0
  26 C    1     1.3916     2.6298   29 C    0 0 0
  26 C    1     1.4025     2.6504   25 C    0 0 0
  26 C    1     2.1679     4.0968   14 H    0 0 0
  26 C    1     2.4165     4.5665   28 C    0 1-2
  26 C    1     2.4246     4.5818   30 C    1 2-3

  27 C    1     1.0917     2.0630   12 H    0 0 0
  27 C    1     1.3928     2.6320   28 C    0 0 0
  27 C    1     1.4024     2.6501   30 C    1 1-1
  27 C    1     2.1668     4.0946   13 H    0 0 0
  27 C    1     2.4166     4.5668   29 C    0-1 2
  27 C    1     2.4271     4.5865   25 C    0-1 2

  28 C    1     1.0919     2.0633   13 H    0 0 0
  28 C    1     1.3928     2.6320   27 C    0 0 0
  28 C    1     1.4037     2.6525   25 C    0-1 2
  28 C    1     2.1716     4.1037   12 H    0 0 0
  28 C    1     2.4165     4.5665   26 C    0-1 2
  28 C    1     2.4277     4.5877   30 C    1 1-1

  29 C    1     1.0915     2.0627   14 H    0 0 0
  29 C    1     1.3916     2.6298   26 C    0 0 0
  29 C    1     1.4023     2.6499   30 C    1 2-3
  29 C    1     2.1684     4.0977   11 H    0 0 0
  29 C    1     2.4166     4.5668   27 C    0 1-2
  29 C    1     2.4281     4.5884   25 C    0 0 0

  30 C    1     1.4023     2.6499   29 C   -1-2 3
  30 C    1     1.4024     2.6501   27 C   -1-1 1
  30 C    1     1.5517     2.9323    1 B   -1-2 3
  30 C    1     2.1441     4.0518   12 H   -1-1 1
  30 C    1     2.1483     4.0597   14 H   -1-2 3
  30 C    1     2.4246     4.5818   26 C   -1-2 3

  31 C    1     1.4022     2.6498   32 C    0 0 0
  31 C    1     1.4030     2.6512   34 C    0 0 0
  31 C    1     1.5522     2.9333    5 B    0 0 0
  31 C    1     2.1436     4.0508   15 H    0 0 0
  31 C    1     2.1502     4.0632   17 H    0 0 0
  31 C    1     2.4264     4.5853   33 C    0 0 0

  32 C    1     1.0916     2.0628   15 H    0 0 0
  32 C    1     1.3918     2.6301   35 C    0 0 0
  32 C    1     1.4022     2.6498   31 C    0 0 0
  32 C    1     2.1656     4.0923   18 H    1 1-2
  32 C    1     2.4163     4.5661   34 C    0 0 0
  32 C    1     2.4270     4.5863   36 C    0 0 0

  33 C    1     1.0914     2.0624   16 H    0 0 0
  33 C    1     1.3927     2.6318   34 C    0 0 0
  33 C    1     1.4029     2.6510   36 C    0 0 0
  33 C    1     2.1683     4.0976   17 H    0 0 0
  33 C    1     2.4155     4.5645   35 C    0 0 0
  33 C    1     2.4264     4.5853   31 C    0 0 0

  34 C    1     1.0921     2.0638   17 H    0 0 0
  34 C    1     1.3927     2.6318   33 C    0 0 0
  34 C    1     1.4030     2.6512   31 C    0 0 0
  34 C    1     2.1663     4.0937   16 H    0 0 0
  34 C    1     2.4163     4.5661   32 C    0 0 0
  34 C    1     2.4289     4.5899   36 C    0 0 0

  35 C    1     1.0913     2.0622   18 H    1 1-2
  35 C    1     1.3918     2.6301   32 C    0 0 0
  35 C    1     1.4029     2.6511   36 C    0 0 0
  35 C    1     2.1707     4.1021   15 H    0 0 0
  35 C    1     2.4155     4.5645   33 C    0 0 0
  35 C    1     2.4269     4.5861   31 C    0 0 0

  36 C    1     1.4029     2.6510   33 C    0 0 0
  36 C    1     1.4029     2.6511   35 C    0 0 0
  36 C    1     1.5529     2.9346    3 B    1 1-2
  36 C    1     2.1487     4.0605   16 H    0 0 0
  36 C    1     2.1494     4.0619   18 H    1 1-2
  36 C    1     2.4270     4.5863   32 C    0 0 0

  37 O    1     1.3790     2.6060    3 B    0 0 0
  37 O    1     1.3795     2.6068    1 B   -1-2 3
  37 O    1     2.3868     4.5105   39 O    0 0 0
  37 O    1     2.3885     4.5136   38 O   -1-2 3
  37 O    1     2.5389     4.7979   30 C    0 0 0
  37 O    1     2.5412     4.8021   36 C   -1-1 2

  38 O    1     1.3787     2.6054    1 B    0 0 0
  38 O    1     1.3792     2.6064    2 B    1 1-1
  38 O    1     2.3885     4.5136   37 O    1 2-3
  38 O    1     2.3912     4.5187   39 O    1 2-3
  38 O    1     2.5351     4.7906   19 C    1 1-1
  38 O    1     2.5405     4.8008   30 C    1 2-3

  39 O    1     1.3795     2.6069    3 B    0 0 0
  39 O    1     1.3798     2.6075    2 B    0-1 2
  39 O    1     2.3868     4.5105   37 O    0 0 0
  39 O    1     2.3912     4.5187   38 O   -1-2 3
  39 O    1     2.5416     4.8030   19 C    0-1 2
  39 O    1     2.5427     4.8050   36 C   -1-1 2

  40 O    1     1.3783     2.6045    6 B    0 0 0
  40 O    1     1.3785     2.6051    4 B    0 0 0
  40 O    1     2.3876     4.5119   42 O    0 0 0
  40 O    1     2.3913     4.5189   41 O    0 0 0
  40 O    1     2.5354     4.7912   25 C    0 0 1
  40 O    1     2.5360     4.7923   24 C    0 0 0

  41 O    1     1.3778     2.6037    4 B    0 0 0
  41 O    1     1.3778     2.6037    5 B    0 0 0
  41 O    1     2.3870     4.5107   42 O    0 0 0
  41 O    1     2.3913     4.5189   40 O    0 0 0
  41 O    1     2.5304     4.7818   24 C    0 0 0
  41 O    1     2.5353     4.7910   31 C    0 0 0

  42 O    1     1.3812     2.6101    6 B    0 0 0
  42 O    1     1.3813     2.6103    5 B    0 0 0
  42 O    1     2.3870     4.5107   41 O    0 0 0
  42 O    1     2.3876     4.5119   40 O    0 0 0
  42 O    1     2.5481     4.8152   31 C    0 0 0
  42 O    1     2.5522     4.8230   25 C    0 0 1


 SYMMETRY ALLOWED INTERNAL DEGREE(S) OF FREEDOM: 123
 TTTTTTTTTTTTTTTTTTTTTTTTTTTTTT SYMM        TELAPSE        0.44 TCPU        0.44
 TTTTTTTTTTTTTTTTTTTTTTTTTTTTTT INT_SCREEN  TELAPSE        0.48 TCPU        0.48

 DFT PARAMETERS

     ATOM       ELECTRONS   NET CHARGE   R(ANGSTROM)
   1   5  B       5.0000      0.0000     0.89000000
   7   1  H       1.0000      0.0000     1.11000000
  19   6  C       6.0000      0.0000     0.77000000
  37   8  O       8.0000      0.0000     0.74000000

 SIZE OF GRID=    1251951
 TTTTTTTTTTTTTTTTTTTTTTTTTTTTTT MAKE_GRID2  TELAPSE       11.35 TCPU       11.34
 BECKE WEIGHT FUNCTION
 RADSAFE =     2.00
 TOLERANCES - DENSITY:10**- 6; POTENTIAL:10**- 9; GRID WGT:10**-14

 RADIAL INTEGRATION  - INTERVALS (POINTS,UPPER LIMIT):            1( 75,  4.0*R)

 ANGULAR INTEGRATION - INTERVALS (ACCURACY LEVEL [N. POINTS] UPPER LIMIT):
  1(  4[  86]   0.2)  2(  8[ 194]   0.5)  3( 12[ 350]   0.9)  4( 16[ 974]   3.5)
  5( 12[ 350]9999.0)
 TTTTTTTTTTTTTTTTTTTTTTTTTTTTTT INT_CALC    TELAPSE       11.45 TCPU       11.43
 EEEEEEEEEE INT_CALC TERMINATION  DATE 02 12 2025 TIME 07:55:40.8

 *******************************************************************************
 COF-5_z31_inc_L060                                                              
 CRYSTAL - SCF - TYPE OF CALCULATION :  RESTRICTED CLOSED SHELL
 *******************************************************************************

 CAPPA:IS1  2;IS2  2;IS3  8; K PTS MONK NET  20; SYMMOPS:K SPACE   2;G SPACE   1

 TTTTTTTTTTTTTTTTTTTTTTTTTTTTTT SDIK        TELAPSE       12.03 TCPU       19.61

 AAAAAAAAAAAAAAAAAAAAAAAAAAAAAAAAAAAAAAAAAAAAAAAAAAAAAAAAAAAAAAAAAAAAAAAAAAAAAAA
         ATOMIC WAVEFUNCTION(S)


 NUCLEAR CHARGE  5.0  SYMMETRY SPECIES            S    P
 N. ELECTRONS    5.0  NUMBER OF PRIMITIVE GTOS    8    4
                      NUMBER OF CONTRACTED GTOS   4    2
                      NUMBER OF CLOSED SHELLS     2    0
                      OPEN SHELL OCCUPATION       0    1

  ZNUC  SCFIT    TOTAL HF ENERGY   KINETIC ENERGY   VIRIAL THEOREM ACCURACY
   5.0    11    -2.451164084E+01  2.462155050E+01 -1.995536038E+00  1.5E-06

 NUCLEAR CHARGE  1.0  SYMMETRY SPECIES            S
 N. ELECTRONS    1.0  NUMBER OF PRIMITIVE GTOS    4
                      NUMBER OF CONTRACTED GTOS   2
                      NUMBER OF CLOSED SHELLS     0
                      OPEN SHELL OCCUPATION       1

  ZNUC  SCFIT    TOTAL HF ENERGY   KINETIC ENERGY   VIRIAL THEOREM ACCURACY
   1.0     1    -4.977266687E-01  5.190767460E-01 -1.958869132E+00  0.0E+00

 NUCLEAR CHARGE  6.0  SYMMETRY SPECIES            S    P
 N. ELECTRONS    6.0  NUMBER OF PRIMITIVE GTOS    8    4
                      NUMBER OF CONTRACTED GTOS   4    2
                      NUMBER OF CLOSED SHELLS     2    0
                      OPEN SHELL OCCUPATION       0    2

  ZNUC  SCFIT    TOTAL HF ENERGY   KINETIC ENERGY   VIRIAL THEOREM ACCURACY
   6.0     9    -3.766704647E+01  3.775180683E+01 -1.997754800E+00  1.1E-06

 NUCLEAR CHARGE  8.0  SYMMETRY SPECIES            S    P
 N. ELECTRONS    8.0  NUMBER OF PRIMITIVE GTOS    8    4
                      NUMBER OF CONTRACTED GTOS   4    2
                      NUMBER OF CLOSED SHELLS     2    0
                      OPEN SHELL OCCUPATION       0    4

  ZNUC  SCFIT    TOTAL HF ENERGY   KINETIC ENERGY   VIRIAL THEOREM ACCURACY
   8.0    12    -7.477373220E+01  7.477365593E+01 -2.000001020E+00  3.8E-06

 AAAAAAAAAAAAAAAAAAAAAAAAAAAAAAAAAAAAAAAAAAAAAAAAAAAAAAAAAAAAAAAAAAAAAAAAAAAAAAA

 CHARGE NORMALIZATION FACTOR   1.00000000
 TOTAL ATOMIC CHARGES:
   5.0000000   5.0000000   5.0000000   5.0000000   5.0000000   5.0000000
   1.0000000   1.0000000   1.0000000   1.0000000   1.0000000   1.0000000
   1.0000000   1.0000000   1.0000000   1.0000000   1.0000000   1.0000000
   6.0000000   6.0000000   6.0000000   6.0000000   6.0000000   6.0000000
   6.0000000   6.0000000   6.0000000   6.0000000   6.0000000   6.0000000
   6.0000000   6.0000000   6.0000000   6.0000000   6.0000000   6.0000000
   8.0000000   8.0000000   8.0000000   8.0000000   8.0000000   8.0000000
 TTTTTTTTTTTTTTTTTTTTTTTTTTTTTT MOQGAD      TELAPSE       12.08 TCPU       21.24
 TTTTTTTTTTTTTTTTTTTTTTTTTTTTTT SHELLXN     TELAPSE       22.33 TCPU      349.05
 TTTTTTTTTTTTTTTTTTTTTTTTTTTTTT MONMO3      TELAPSE       22.50 TCPU      354.20
 NUMERICALLY INTEGRATED DENSITY    198.0000609287
 TTTTTTTTTTTTTTTTTTTTTTTTTTTTTT NUMDFT      TELAPSE       23.23 TCPU      377.64
 CYC   0 ETOT(AU) -1.296002437468E+03 DETOT -1.30E+03 tst  0.00E+00 PX  1.00E+00
 TTTTTTTTTTTTTTTTTTTTTTTTTTTTTT DIIS        TELAPSE       23.27 TCPU      378.87
 TTTTTTTTTTTTTTTTTTTTTTTTTTTTTT FDIK        TELAPSE       23.76 TCPU      394.49
 INSULATING STATE
 TOP OF VALENCE BANDS -    BAND     99; K    1; EIG -2.9970201E-01 AU
 BOTTOM OF VIRTUAL BANDS - BAND    100; K   17; EIG -1.7083793E-01 AU
 INDIRECT ENERGY BAND GAP:   3.5066 eV
 BOTTOM OF VIRTUAL BANDS - BAND    100; K    1; EIG -1.5903728E-01 AU
 TTTTTTTTTTTTTTTTTTTTTTTTTTTTTT PDIG        TELAPSE       24.10 TCPU      400.69
 CHARGE NORMALIZATION FACTOR   1.00000000
 TOTAL ATOMIC CHARGES:
   4.1402429   4.1574138   4.1584396   4.1598976   4.1573746   4.1383729
   0.7858399   0.7858043   0.7840884   0.7840639   0.7858853   0.7858545
   0.7866909   0.7863583   0.7855759   0.7861523   0.7842535   0.7844710
   6.0468197   6.2705847   6.2705007   6.2689226   6.2676857   6.0493665
   6.0432661   6.2581411   6.2557330   6.2589267   6.2583454   6.0465717
   6.0460338   6.2703301   6.2714617   6.2683762   6.2700323   6.0433792
   8.6997481   8.6991322   8.7008808   8.6987488   8.6992635   8.7009699
 TTTTTTTTTTTTTTTTTTTTTTTTTTTTTT MOQGAD      TELAPSE       24.15 TCPU      400.74
 TTTTTTTTTTTTTTTTTTTTTTTTTTTTTT SHELLXN     TELAPSE       34.82 TCPU      741.14
 TTTTTTTTTTTTTTTTTTTTTTTTTTTTTT MONMO3      TELAPSE       34.98 TCPU      746.29
 NUMERICALLY INTEGRATED DENSITY    198.0000354634
 TTTTTTTTTTTTTTTTTTTTTTTTTTTTTT NUMDFT      TELAPSE       35.73 TCPU      770.14
 CYC   1 ETOT(AU) -1.288826432100E+03 DETOT  7.18E+00 tst  0.00E+00 PX  1.00E+00
 TTTTTTTTTTTTTTTTTTTTTTTTTTTTTT DIIS        TELAPSE       35.78 TCPU      771.76
 DIIS TEST: 0.10931E+01 AT SCF   CYCLE   1 - MIX   30 %
 TTTTTTTTTTTTTTTTTTTTTTTTTTTTTT FDIK        TELAPSE       36.27 TCPU      787.57
 INSULATING STATE
 TOP OF VALENCE BANDS -    BAND     99; K    1; EIG -2.1218333E-01 AU
 BOTTOM OF VIRTUAL BANDS - BAND    100; K   17; EIG -9.8924555E-02 AU
 INDIRECT ENERGY BAND GAP:   3.0819 eV
 BOTTOM OF VIRTUAL BANDS - BAND    100; K    1; EIG -8.0482311E-02 AU
 TTTTTTTTTTTTTTTTTTTTTTTTTTTTTT PDIG        TELAPSE       36.64 TCPU      793.79
 CHARGE NORMALIZATION FACTOR   1.00000000
 TOTAL ATOMIC CHARGES:
   4.6953525   4.6879244   4.6883648   4.6886696   4.6884764   4.6944119
   0.9071203   0.9075968   0.9127038   0.9128218   0.8902537   0.8901512
   0.8906126   0.8911139   0.9066474   0.9071623   0.9126454   0.9124414
   5.8682844   6.1581756   6.1566737   6.1354721   6.1369671   5.8641918
   5.9207995   6.1288245   6.1288162   6.1347855   6.1305631   5.9139650
   5.8687030   6.1535106   6.1561493   6.1375307   6.1346709   5.8706768
   8.3405366   8.3396557   8.3282156   8.3384901   8.3255990   8.3442731
 TTTTTTTTTTTTTTTTTTTTTTTTTTTTTT MOQGAD      TELAPSE       36.69 TCPU      793.85
 TTTTTTTTTTTTTTTTTTTTTTTTTTTTTT SHELLXN     TELAPSE       47.35 TCPU     1134.05
 TTTTTTTTTTTTTTTTTTTTTTTTTTTTTT MONMO3      TELAPSE       47.51 TCPU     1139.21
 NUMERICALLY INTEGRATED DENSITY    198.0000409251
 TTTTTTTTTTTTTTTTTTTTTTTTTTTTTT NUMDFT      TELAPSE       48.26 TCPU     1162.99
 CYC   2 ETOT(AU) -1.289016287678E+03 DETOT -1.90E-01 tst  3.35E-03 PX  1.61E-01
 TTTTTTTTTTTTTTTTTTTTTTTTTTTTTT DIIS        TELAPSE       48.31 TCPU     1164.70
 DIIS TEST: 0.45648E+00 AT SCF   CYCLE   2 - DIIS ACTIVE - HISTORY:     2 CYCLES
 TTTTTTTTTTTTTTTTTTTTTTTTTTTTTT FDIK        TELAPSE       48.81 TCPU     1180.58
 INSULATING STATE
 TOP OF VALENCE BANDS -    BAND     99; K    1; EIG -2.2308634E-01 AU
 BOTTOM OF VIRTUAL BANDS - BAND    100; K   17; EIG -9.3009681E-02 AU
 INDIRECT ENERGY BAND GAP:   3.5396 eV
 BOTTOM OF VIRTUAL BANDS - BAND    100; K    1; EIG -7.7152519E-02 AU
 TTTTTTTTTTTTTTTTTTTTTTTTTTTTTT PDIG        TELAPSE       49.15 TCPU     1186.78
 CHARGE NORMALIZATION FACTOR   1.00000000
 TOTAL ATOMIC CHARGES:
   4.4751259   4.4906185   4.4907597   4.4924588   4.4907686   4.4735906
   0.8869169   0.8867221   0.8901269   0.8902249   0.8733292   0.8731785
   0.8744914   0.8741294   0.8855235   0.8868051   0.8903074   0.8897591
   5.8988853   6.1672951   6.1679744   6.1610635   6.1608866   5.9007147
   5.8979832   6.1657764   6.1665102   6.1692213   6.1689108   5.9001143
   5.8999989   6.1671732   6.1675847   6.1617033   6.1627209   5.8990417
   8.5155815   8.5150729   8.5204931   8.5145252   8.5181990   8.5177331
 TTTTTTTTTTTTTTTTTTTTTTTTTTTTTT MOQGAD      TELAPSE       49.21 TCPU     1186.83
 TTTTTTTTTTTTTTTTTTTTTTTTTTTTTT SHELLXN     TELAPSE       59.87 TCPU     1527.15
 TTTTTTTTTTTTTTTTTTTTTTTTTTTTTT MONMO3      TELAPSE       60.03 TCPU     1532.28
 NUMERICALLY INTEGRATED DENSITY    198.0000395235
 TTTTTTTTTTTTTTTTTTTTTTTTTTTTTT NUMDFT      TELAPSE       60.78 TCPU     1556.11
 CYC   3 ETOT(AU) -1.289110058826E+03 DETOT -9.38E-02 tst  8.09E-04 PX  6.80E-02
 TTTTTTTTTTTTTTTTTTTTTTTTTTTTTT DIIS        TELAPSE       60.84 TCPU     1558.00
 DIIS TEST: 0.14958E-01 AT SCF   CYCLE   3 - DIIS ACTIVE - HISTORY:     3 CYCLES
 TTTTTTTTTTTTTTTTTTTTTTTTTTTTTT FDIK        TELAPSE       61.33 TCPU     1573.83
 INSULATING STATE
 TOP OF VALENCE BANDS -    BAND     99; K    1; EIG -2.3365588E-01 AU
 BOTTOM OF VIRTUAL BANDS - BAND    100; K   17; EIG -1.0186891E-01 AU
 INDIRECT ENERGY BAND GAP:   3.5861 eV
 BOTTOM OF VIRTUAL BANDS - BAND    100; K    1; EIG -8.4412586E-02 AU
 TTTTTTTTTTTTTTTTTTTTTTTTTTTTTT PDIG        TELAPSE       61.68 TCPU     1580.04
 CHARGE NORMALIZATION FACTOR   1.00000000
 TOTAL ATOMIC CHARGES:
   4.4836488   4.4943138   4.4945509   4.4955486   4.4939214   4.4821065
   0.8689610   0.8693495   0.8734344   0.8736679   0.8561023   0.8563239
   0.8572087   0.8573610   0.8683334   0.8690747   0.8737420   0.8735090
   5.9404006   6.1829421   6.1814211   6.1682016   6.1684419   5.9379989
   5.9724364   6.1656935   6.1634697   6.1686205   6.1653978   5.9680933
   5.9398714   6.1802020   6.1822951   6.1692905   6.1678061   5.9401110
   8.4861120   8.4852892   8.4767509   8.4844022   8.4747859   8.4888084
 TTTTTTTTTTTTTTTTTTTTTTTTTTTTTT MOQGAD      TELAPSE       61.73 TCPU     1580.09
 TTTTTTTTTTTTTTTTTTTTTTTTTTTTTT SHELLXN     TELAPSE       72.40 TCPU     1920.46
 TTTTTTTTTTTTTTTTTTTTTTTTTTTTTT MONMO3      TELAPSE       72.56 TCPU     1925.62
 NUMERICALLY INTEGRATED DENSITY    198.0000395162
 TTTTTTTTTTTTTTTTTTTTTTTTTTTTTT NUMDFT      TELAPSE       73.31 TCPU     1949.48
 CYC   4 ETOT(AU) -1.289113264352E+03 DETOT -3.21E-03 tst  3.73E-05 PX  1.61E-02
 TTTTTTTTTTTTTTTTTTTTTTTTTTTTTT DIIS        TELAPSE       73.37 TCPU     1951.48
 DIIS TEST: 0.40776E-02 AT SCF   CYCLE   4 - DIIS ACTIVE - HISTORY:     4 CYCLES
 TTTTTTTTTTTTTTTTTTTTTTTTTTTTTT FDIK        TELAPSE       73.87 TCPU     1967.36
 INSULATING STATE
 TOP OF VALENCE BANDS -    BAND     99; K    1; EIG -2.3172439E-01 AU
 BOTTOM OF VIRTUAL BANDS - BAND    100; K   17; EIG -1.0148308E-01 AU
 INDIRECT ENERGY BAND GAP:   3.5440 eV
 BOTTOM OF VIRTUAL BANDS - BAND    100; K    1; EIG -8.4425824E-02 AU
 TTTTTTTTTTTTTTTTTTTTTTTTTTTTTT PDIG        TELAPSE       74.21 TCPU     1973.56
 CHARGE NORMALIZATION FACTOR   1.00000000
 TOTAL ATOMIC CHARGES:
   4.4874672   4.4959770   4.4962897   4.4976011   4.4961821   4.4859763
   0.8724139   0.8723543   0.8765659   0.8766969   0.8587865   0.8586296
   0.8597968   0.8596313   0.8713212   0.8724435   0.8768367   0.8763910
   5.9246891   6.1793980   6.1796628   6.1679601   6.1679528   5.9252999
   5.9437888   6.1675213   6.1680092   6.1711511   6.1698407   5.9440599
   5.9255667   6.1783417   6.1791190   6.1684819   6.1687635   5.9252455
   8.4931166   8.4924266   8.4916012   8.4917867   8.4893293   8.4955266
 TTTTTTTTTTTTTTTTTTTTTTTTTTTTTT MOQGAD      TELAPSE       74.26 TCPU     1973.61
 TTTTTTTTTTTTTTTTTTTTTTTTTTTTTT SHELLXN     TELAPSE       84.93 TCPU     2313.92
 TTTTTTTTTTTTTTTTTTTTTTTTTTTTTT MONMO3      TELAPSE       85.09 TCPU     2319.06
 NUMERICALLY INTEGRATED DENSITY    198.0000393401
 TTTTTTTTTTTTTTTTTTTTTTTTTTTTTT NUMDFT      TELAPSE       85.83 TCPU     2342.84
 CYC   5 ETOT(AU) -1.289114198128E+03 DETOT -9.34E-04 tst  5.94E-06 PX  7.46E-03
 TTTTTTTTTTTTTTTTTTTTTTTTTTTTTT DIIS        TELAPSE       85.90 TCPU     2345.09
 DIIS TEST: 0.66141E-04 AT SCF   CYCLE   5 - DIIS ACTIVE - HISTORY:     5 CYCLES
 TTTTTTTTTTTTTTTTTTTTTTTTTTTTTT FDIK        TELAPSE       86.40 TCPU     2361.15
 INSULATING STATE
 TOP OF VALENCE BANDS -    BAND     99; K    1; EIG -2.3153252E-01 AU
 BOTTOM OF VIRTUAL BANDS - BAND    100; K   17; EIG -1.0094922E-01 AU
 INDIRECT ENERGY BAND GAP:   3.5534 eV
 BOTTOM OF VIRTUAL BANDS - BAND    100; K    1; EIG -8.4084474E-02 AU
 TTTTTTTTTTTTTTTTTTTTTTTTTTTTTT PDIG        TELAPSE       86.76 TCPU     2367.37
 CHARGE NORMALIZATION FACTOR   1.00000000
 TOTAL ATOMIC CHARGES:
   4.4857877   4.4967344   4.4969511   4.4980221   4.4965386   4.4842567
   0.8730990   0.8733975   0.8772148   0.8774188   0.8596396   0.8598536
   0.8607453   0.8607742   0.8723360   0.8731526   0.8774504   0.8771698
   5.9258091   6.1798040   6.1785215   6.1672447   6.1674499   5.9241290
   5.9450897   6.1682131   6.1661038   6.1710681   6.1686237   5.9418985
   5.9254447   6.1774870   6.1793449   6.1685186   6.1673570   5.9253364
   8.4940072   8.4933616   8.4887836   8.4924686   8.4867866   8.4966067
 TTTTTTTTTTTTTTTTTTTTTTTTTTTTTT MOQGAD      TELAPSE       86.81 TCPU     2367.42
 TTTTTTTTTTTTTTTTTTTTTTTTTTTTTT SHELLXN     TELAPSE       97.49 TCPU     2707.90
 TTTTTTTTTTTTTTTTTTTTTTTTTTTTTT MONMO3      TELAPSE       97.65 TCPU     2713.04
 NUMERICALLY INTEGRATED DENSITY    198.0000393772
 TTTTTTTTTTTTTTTTTTTTTTTTTTTTTT NUMDFT      TELAPSE       98.39 TCPU     2736.85
 CYC   6 ETOT(AU) -1.289114212497E+03 DETOT -1.44E-05 tst  9.50E-08 PX  1.37E-03
 TTTTTTTTTTTTTTTTTTTTTTTTTTTTTT DIIS        TELAPSE       98.47 TCPU     2739.19
 DIIS TEST: 0.17251E-04 AT SCF   CYCLE   6 - DIIS ACTIVE - HISTORY:     6 CYCLES
 TTTTTTTTTTTTTTTTTTTTTTTTTTTTTT FDIK        TELAPSE       98.96 TCPU     2755.08
 INSULATING STATE
 TOP OF VALENCE BANDS -    BAND     99; K    1; EIG -2.3155834E-01 AU
 BOTTOM OF VIRTUAL BANDS - BAND    100; K   17; EIG -1.0103830E-01 AU
 INDIRECT ENERGY BAND GAP:   3.5516 eV
 BOTTOM OF VIRTUAL BANDS - BAND    100; K    1; EIG -8.4086703E-02 AU
 TTTTTTTTTTTTTTTTTTTTTTTTTTTTTT PDIG        TELAPSE       99.31 TCPU     2761.29
 CHARGE NORMALIZATION FACTOR   1.00000000
 TOTAL ATOMIC CHARGES:
   4.4865349   4.4963751   4.4966687   4.4979479   4.4964469   4.4850173
   0.8732191   0.8732409   0.8772832   0.8774334   0.8596555   0.8595630
   0.8606690   0.8605785   0.8721994   0.8732540   0.8775600   0.8771344
   5.9248494   6.1789674   6.1789273   6.1673503   6.1673929   5.9249700
   5.9444641   6.1669822   6.1670536   6.1706047   6.1688250   5.9438730
   5.9254165   6.1776459   6.1786959   6.1679746   6.1680147   5.9252676
   8.4933013   8.4925512   8.4903362   8.4919030   8.4881255   8.4957266
 TTTTTTTTTTTTTTTTTTTTTTTTTTTTTT MOQGAD      TELAPSE       99.36 TCPU     2761.34
 TTTTTTTTTTTTTTTTTTTTTTTTTTTTTT SHELLXN     TELAPSE      110.03 TCPU     3101.59
 TTTTTTTTTTTTTTTTTTTTTTTTTTTTTT MONMO3      TELAPSE      110.19 TCPU     3106.73
 NUMERICALLY INTEGRATED DENSITY    198.0000393800
 TTTTTTTTTTTTTTTTTTTTTTTTTTTTTT NUMDFT      TELAPSE      110.94 TCPU     3130.54
 CYC   7 ETOT(AU) -1.289114216312E+03 DETOT -3.81E-06 tst  4.58E-08 PX  5.55E-04
 TTTTTTTTTTTTTTTTTTTTTTTTTTTTTT DIIS        TELAPSE      111.02 TCPU     3133.17
 DIIS TEST: 0.13051E-05 AT SCF   CYCLE   7 - DIIS ACTIVE - HISTORY:     7 CYCLES
 TTTTTTTTTTTTTTTTTTTTTTTTTTTTTT FDIK        TELAPSE      111.51 TCPU     3149.00
 INSULATING STATE
 TOP OF VALENCE BANDS -    BAND     99; K    1; EIG -2.3156114E-01 AU
 BOTTOM OF VIRTUAL BANDS - BAND    100; K   17; EIG -1.0106488E-01 AU
 INDIRECT ENERGY BAND GAP:   3.5510 eV
 BOTTOM OF VIRTUAL BANDS - BAND    100; K    1; EIG -8.4101360E-02 AU
 TTTTTTTTTTTTTTTTTTTTTTTTTTTTTT PDIG        TELAPSE      111.86 TCPU     3155.20
 CHARGE NORMALIZATION FACTOR   1.00000000
 TOTAL ATOMIC CHARGES:
   4.4866309   4.4964541   4.4967114   4.4979170   4.4964495   4.4851175
   0.8731354   0.8732504   0.8772533   0.8774235   0.8595629   0.8595959
   0.8606363   0.8605514   0.8721999   0.8731786   0.8775077   0.8771464
   5.9251470   6.1792842   6.1787873   6.1672816   6.1673610   5.9246107
   5.9447190   6.1674559   6.1666194   6.1706188   6.1688541   5.9433337
   5.9254561   6.1776226   6.1788974   6.1681691   6.1677216   5.9251606
   8.4933973   8.4927527   8.4901383   8.4919674   8.4879977   8.4959246
 TTTTTTTTTTTTTTTTTTTTTTTTTTTTTT MOQGAD      TELAPSE      111.91 TCPU     3155.25
 TTTTTTTTTTTTTTTTTTTTTTTTTTTTTT SHELLXN     TELAPSE      122.59 TCPU     3495.91
 TTTTTTTTTTTTTTTTTTTTTTTTTTTTTT MONMO3      TELAPSE      122.75 TCPU     3501.07
 NUMERICALLY INTEGRATED DENSITY    198.0000393792
 TTTTTTTTTTTTTTTTTTTTTTTTTTTTTT NUMDFT      TELAPSE      123.50 TCPU     3524.91
 CYC   8 ETOT(AU) -1.289114216453E+03 DETOT -1.41E-07 tst  4.55E-09 PX  1.28E-04
 TTTTTTTTTTTTTTTTTTTTTTTTTTTTTT DIIS        TELAPSE      123.58 TCPU     3527.59
 DIIS TEST: 0.13881E-06 AT SCF   CYCLE   8 - DIIS ACTIVE - HISTORY:     8 CYCLES
 TTTTTTTTTTTTTTTTTTTTTTTTTTTTTT FDIK        TELAPSE      124.08 TCPU     3543.37
 INSULATING STATE
 TOP OF VALENCE BANDS -    BAND     99; K    1; EIG -2.3156389E-01 AU
 BOTTOM OF VIRTUAL BANDS - BAND    100; K   17; EIG -1.0105679E-01 AU
 INDIRECT ENERGY BAND GAP:   3.5513 eV
 BOTTOM OF VIRTUAL BANDS - BAND    100; K    1; EIG -8.4102728E-02 AU
 TTTTTTTTTTTTTTTTTTTTTTTTTTTTTT PDIG        TELAPSE      124.42 TCPU     3549.57
 CHARGE NORMALIZATION FACTOR   1.00000000
 TOTAL ATOMIC CHARGES:
   4.4865623   4.4964517   4.4967268   4.4979502   4.4964633   4.4850452
   0.8731441   0.8732335   0.8772473   0.8774076   0.8595880   0.8595692
   0.8606237   0.8605626   0.8721872   0.8731826   0.8775120   0.8771214
   5.9250511   6.1791970   6.1788533   6.1672987   6.1673935   5.9247532
   5.9445761   6.1673010   6.1668467   6.1707446   6.1687971   5.9433616
   5.9253920   6.1776264   6.1788799   6.1680928   6.1678400   5.9252684
   8.4934588   8.4927369   8.4900800   8.4920306   8.4879198   8.4959218
 TTTTTTTTTTTTTTTTTTTTTTTTTTTTTT MOQGAD      TELAPSE      124.47 TCPU     3549.62
 TTTTTTTTTTTTTTTTTTTTTTTTTTTTTT SHELLXN     TELAPSE      135.15 TCPU     3890.09
 +++ ENERGIES IN A.U. +++
 ::: EXT EL-POLE                                  -1.6694262716316E+03
 ::: EXT EL-SPHEROPOLE                             1.8464752233760E+01
 ::: BIELET ZONE E-E                               2.3021787140694E+03
 ::: TOTAL E-E                                     6.5121719467152E+02
 ::: TOTAL E-N + N-E                              -3.1239288170022E+03
 ::: TOTAL N-N                                     3.7357313572756E+01
 ::: KINETIC ENERGY                                1.2799755452509E+03
 ::: PSEUDO TOTAL   ENERGY                        -1.1553787635070E+03
 ::: VIRIAL COEFFICIENT                            1.0511616651819E+00
 TTTTTTTTTTTTTTTTTTTTTTTTTTTTTT MONMO3      TELAPSE      135.31 TCPU     3895.23
 NUMERICALLY INTEGRATED DENSITY    198.0000393792
 EXCHANGE ENERGY: -0.126025612140E+03  CORRELATION ENERGY: -0.770984083264E+01
 TTTTTTTTTTTTTTTTTTTTTTTTTTTTTT NUMDFT      TELAPSE      136.05 TCPU     3919.02
 CYC   9 ETOT(AU) -1.289114216480E+03 DETOT -2.73E-08 tst  9.05E-10 PX  1.28E-04

 == SCF ENDED - CONVERGENCE ON ENERGY      E(AU) -1.2891142164798E+03 CYCLES   9


 ENERGY EXPRESSION=HARTREE+FOCK EXCH*0.00000+(HSESOL     EXCH)*1.00000+PBESOL     CORR


 TOTAL ENERGY(DFT)(AU)(  9) -1.2891142164798E+03 DE-2.7E-08 tester 9.0E-10
 TTTTTTTTTTTTTTTTTTTTTTTTTTTTTT EDFT        TELAPSE      136.05 TCPU     3919.03
 
 INFORMATION **** DFTD3 ENERGY **** CALCULATE DFTD3 ENERGY

           DFT-D V3(BJ)
 DF                                         hsesol3c  
 parameters
 s6       :    1.0000
 s8       :    0.0000
 a1       :    0.5196
 a2       :    4.9385
 k1 k3    :   16.0000   -4.0000
 Cutoff   :   50.2022
 CN-Cutoff:   21.1671
 ABC-Cutoff:   21.1671
 
 Edisp /kcal,au:   -29.6880 -0.04731087

 E6    /kcal :   -31.6860
 E8    /kcal :     0.0000
 E6(ABC) "   :   1.998014
 
 INFORMATION **** DFTD3 ENERGY **** NORMAL TERMINATION OF DFTD3 MODULE

 GCP ENERGY CALCULATION
  level        hsesol3c            basis:hsesol3c
  Nbf            474
  Atoms           42

  Parameters: 
  sigma     1.0000
  eta       1.4281
  alpha     0.2936
  beta      1.9467

  dmp_scal      4.0000
  dmp_exp       6.0000
 cutoffs: 
   distance [bohr] 60.0
   noise    [a.u.] 2.2E-16
 SR-damping   T
 ** gCP correction **
  Egcp:        0.0847849546 / (a.u.) ||      53.2034 / (kcal/mol)
 INFORMATION **** GCP **** NORMAL TERMINATION OF GCP MODULE

 *******************************************************************************

 DFT-D3-GCP DISPERSION AND COUNTERPOISE CORRECTION

 D3 DISPERSION ENERGY (AU)      -4.7310867271251E-02
 GCP ENERGY (AU)                 8.4784954648506E-02
 TOTAL ENERGY + DISP + GCP (AU) -1.2890767423925E+03

 *******************************************************************************

 EIGENVECTORS IN FORTRAN UNIT 10
 TTTTTTTTTTTTTTTTTTTTTTTTTTTTTT END         TELAPSE      138.38 TCPU     3927.33
 EEEEEEEEEE TERMINATION  DATE 02 12 2025 TIME 07:57:47.8
