 Default number of threads is:           32

         
 *******************************************************************************
 *                                                                             *
 *                               CRYSTAL23                                     *
 *                      public : 1.0.1 - October 2022                          *
 *                       HTTP://WWW.CRYSTAL.UNITO.IT                           *
 *                                                                             *
 *                              MAIN AUTHORS                                   *
 *                                                                             *
 *  R. DOVESI(1,11), V.R. SAUNDERS(2), C. ROETTI(1,11), R. ORLANDO(1,11),      *
 *  C.M. ZICOVICH-WILSON(1,3), F. PASCALE(4), B. CIVALLERI(1,11),              *
 *  K. DOLL(5), N.M. HARRISON(6), I.J. BUSH(7), Ph. D'ARCO(8),                 *
 *  M. LLUNELL(9), M. CAUSA'(10), Y. NOEL(8), L. MASCHIO(1,11), A. ERBA(1,11)  *
 *  M. RE'RAT(14), S. CASASSA(1,11), B.G. SEARLE(2), J.K. DESMARAIS(1)         *
 *                                                                             *
 *        CONTRIBUTIONS TO THE CODE HAVE ALSO BEEN GIVEN BY                    *
 *                                                                             *
 *  M. FERRABONE(1,11), M. DE LA PIERRE(1,11), M. FERRERO(1,11),               *
 *  J. BAIMA(1,11), E. ALBANESE(1,11), M.F. PEINTINGER(12), R. BAST(13),       *
 *  B. KIRTMAN(15), V. LACIVITA(1,11), R. DEMICHELIS(1,16)                     *
 *  G. BRANDEBURG(17), S. SALUSTRO(1,11), G. SANSONE(1,11)                     *
 *  M.T. RUGGIERO(18), L.E. DAGA(1), L. DONA'(1), A. COSSARD(1)                *
 *                                                                             *
 * (1) THEORETICAL CHEMISTRY GROUP - UNIVERSITA' DI TORINO - TORINO (ITALY)    *
 * (2) SCIENTIFIC COMPUTING DEPARTMENT - STFC DARESBURY (UK)                   *
 * (3) UNIVERSIDAD AUTONOMA DEL ESTADO DE MORELOS - CUERNAVACA (MEXICO)        *
 * (4) UNIVERSITE' DE LORRAINE - NANCY (FRANCE)                                *
 * (5) UNIVERSITAET STUTTGART- STUTTGART (GERMANY)                             *
 * (6) IMPERIAL COLLEGE - LONDON (UK)                                          *
 * (7) SCIENTIFIC COMPUTING DEPARTMENT - STFC RAL (UK)                         *
 * (8) UPMC - SORBONNE UNIVERSITES - PARIS (FRANCE)                            *
 * (9) UNIVERSIDAD DE BARCELONA - BARCELONA (SPAIN)                            *
 *(10) UNIVERSITA' DI NAPOLI "FEDERICO II" - NAPOLI (ITALY)                    *
 *(11) NIS - NANOSTRUCTURED INTERFACES AND SURFACES - TORINO (ITALY)           *
 *(12) MPI FUER CHEMISCHE ENERGIEKONVERSION - MUELHEIM AN DER RUHR (GERMANY)   *
 *(13) UNIVERSITY OF TROMSO - TROMSO (NORWAY)                                  *
 *(14) UNIVERSITE' DE PAU ET DES PAYS DE L'ADOUR - PAU (FRANCE)                *
 *(15) UNIVERSITY OF CALIFORNIA SANTA BARBARA - SANTA BARBARA (USA)            *
 *(16) CURTIN UNIVERSITY - PERTH (AUSTRALIA)                                   *
 *(17) UNIVERSITY COLLEGE LONDON - LONDON (UK)                                 *
 *(18) UNIVERSITY OF VERMONT - BURLINGTON (USA)                                *
 *                                                                             *
 *******************************************************************************
 EEEEEEEEEE STARTING  DATE 02 12 2025 TIME 07:51:41.5
 COF-5_z30_inc_L000                                                              

 CRYSTAL CALCULATION
 (INPUT ACCORDING TO THE INTERNATIONAL TABLES FOR X-RAY CRYSTALLOGRAPHY)
 CRYSTAL FAMILY                       :  TRICLINIC   
 CRYSTAL CLASS  (GROTH - 1921)        :  TRICLINIC PEDIAL                     

 SPACE GROUP (NONCENTROSYMMETRIC)     :  P 1             

 LATTICE PARAMETERS  (ANGSTROMS AND DEGREES) - CONVENTIONAL CELL
        A           B           C        ALPHA        BETA       GAMMA
    15.02070    15.04439     3.00000    90.00330    89.99929   120.05310


 NUMBER OF IRREDUCIBLE ATOMS IN THE CONVENTIONAL CELL:   42

 INPUT COORDINATES

 ATOM AT. N.              COORDINATES
   1   5     6.156164300000E-01  2.280750700000E-01  5.006701200000E-01
   2   5     7.743958300000E-01  3.871017900000E-01  5.006801100000E-01
   3   5     6.151641200000E-01  3.867891800000E-01  4.992500900000E-01
   4   5     2.287899500000E-01  6.143590000000E-01  5.054652800000E-01
   5   5     3.873645400000E-01  6.138581800000E-01  5.095093100000E-01
   6   5     3.876370900000E-01  7.731966900000E-01  5.035434700000E-01
   7   1     9.044214300000E-01  3.095486000000E-01  5.045686500000E-01
   8   1     9.886935000000E-02  6.914399800000E-01  4.929779300000E-01
   9   1     9.044870700000E-01  5.941405000000E-01  4.928396300000E-01
  10   1     9.886081000000E-02  4.067623600000E-01  5.041372100000E-01
  11   1     5.944002700000E-01  9.032291200000E-01  5.042592800000E-01
  12   1     4.082606200000E-01  9.863600000000E-02  4.946102100000E-01
  13   1     3.099203300000E-01  9.049241600000E-01  4.959171000000E-01
  14   1     6.925018400000E-01  9.691914000000E-02  5.023978900000E-01
  15   1     5.939977500000E-01  6.905649700000E-01  4.978146400000E-01
  16   1     4.066874900000E-01  3.089518100000E-01  5.060980500000E-01
  17   1     3.093234400000E-01  4.048732800000E-01  5.057331600000E-01
  18   1     6.917891600000E-01  5.947057300000E-01  4.987481200000E-01
  19   6     8.936883400000E-01  4.465308800000E-01  5.004301100000E-01
  20   6     9.482125500000E-01  3.933544000000E-01  5.021962600000E-01
  21   6     5.522963000000E-02  6.076907100000E-01  4.958031500000E-01
  22   6     9.482511500000E-01  5.541658000000E-01  4.961403200000E-01
  23   6     5.524319000000E-02  4.469193500000E-01  5.015525300000E-01
  24   6     1.097444900000E-01  5.545914500000E-01  4.993691900000E-01
  25   6     4.466001600000E-01  8.925727600000E-01  5.019116200000E-01
  26   6     5.544734200000E-01  9.470548000000E-01  5.023018100000E-01
  27   6     4.480139400000E-01  5.459988000000E-02  4.970252700000E-01
  28   6     3.938956300000E-01  9.476446600000E-01  4.981439800000E-01
  29   6     6.085567200000E-01  5.392133000000E-02  5.008643600000E-01
  30   6     5.558772400000E-01  1.089145700000E-01  4.992400500000E-01
  31   6     4.462008000000E-01  5.535192700000E-01  5.000112900000E-01
  32   6     5.540499900000E-01  6.067742600000E-01  4.994597900000E-01
  33   6     4.472124200000E-01  3.927448200000E-01  5.039834700000E-01
  34   6     3.933109600000E-01  4.457904200000E-01  5.033755100000E-01
  35   6     6.078636300000E-01  5.537097300000E-01  5.003981800000E-01
  36   6     5.551090200000E-01  4.459864200000E-01  5.016400700000E-01
  37   8     5.624997000000E-01  2.808905100000E-01  4.996399700000E-01
  38   8     7.216591500000E-01  2.811877200000E-01  5.026301100000E-01
  39   8     7.212675800000E-01  4.399315100000E-01  4.981102500000E-01
  40   8     2.816285800000E-01  7.202206700000E-01  5.027767900000E-01
  41   8     2.813888000000E-01  5.611590400000E-01  5.102647800000E-01
  42   8     4.404370800000E-01  7.199310200000E-01  5.052486000000E-01

 *******************************************************************************

 << INFORMATION >>: FROM NOW ON, ALL COORDINATES REFER TO THE PRIMITIVE CELL

 *******************************************************************************

 LATTICE PARAMETERS  (ANGSTROMS AND DEGREES) - PRIMITIVE CELL
       A          B          C        ALPHA      BETA     GAMMA        VOLUME
   15.02070   15.04439    3.00000    90.00330  89.99929 120.05310    586.791668

 COORDINATES OF THE EQUIVALENT ATOMS (FRACTIONAL UNITS)

 N. ATOM EQUIV AT. N.          X                  Y                  Z

   1   1   1    5 B    -3.84383570000E-01  2.28075070000E-01 -4.99329880000E-01

   2   2   1    5 B    -2.25604170000E-01  3.87101790000E-01 -4.99319890000E-01

   3   3   1    5 B    -3.84835880000E-01  3.86789180000E-01  4.99250090000E-01

   4   4   1    5 B     2.28789950000E-01 -3.85641000000E-01 -4.94534720000E-01

   5   5   1    5 B     3.87364540000E-01 -3.86141820000E-01 -4.90490690000E-01

   6   6   1    5 B     3.87637090000E-01 -2.26803310000E-01 -4.96456530000E-01

   7   7   1    1 H    -9.55785700000E-02  3.09548600000E-01 -4.95431350000E-01

   8   8   1    1 H     9.88693500000E-02 -3.08560020000E-01  4.92977930000E-01

   9   9   1    1 H    -9.55129300000E-02 -4.05859500000E-01  4.92839630000E-01

  10  10   1    1 H     9.88608100000E-02  4.06762360000E-01 -4.95862790000E-01

  11  11   1    1 H    -4.05599730000E-01 -9.67708800000E-02 -4.95740720000E-01

  12  12   1    1 H     4.08260620000E-01  9.86360000000E-02  4.94610210000E-01

  13  13   1    1 H     3.09920330000E-01 -9.50758400000E-02  4.95917100000E-01

  14  14   1    1 H    -3.07498160000E-01  9.69191400000E-02 -4.97602110000E-01

  15  15   1    1 H    -4.06002250000E-01 -3.09435030000E-01  4.97814640000E-01

  16  16   1    1 H     4.06687490000E-01  3.08951810000E-01 -4.93901950000E-01

  17  17   1    1 H     3.09323440000E-01  4.04873280000E-01 -4.94266840000E-01

  18  18   1    1 H    -3.08210840000E-01 -4.05294270000E-01  4.98748120000E-01

  19  19   1    6 C    -1.06311660000E-01  4.46530880000E-01 -4.99569890000E-01

  20  20   1    6 C    -5.17874500000E-02  3.93354400000E-01 -4.97803740000E-01

  21  21   1    6 C     5.52296300000E-02 -3.92309290000E-01  4.95803150000E-01

  22  22   1    6 C    -5.17488500000E-02 -4.45834200000E-01  4.96140320000E-01

  23  23   1    6 C     5.52431900000E-02  4.46919350000E-01 -4.98447470000E-01

  24  24   1    6 C     1.09744490000E-01 -4.45408550000E-01  4.99369190000E-01

  25  25   1    6 C     4.46600160000E-01 -1.07427240000E-01 -4.98088380000E-01

  26  26   1    6 C    -4.45526580000E-01 -5.29452000000E-02 -4.97698190000E-01

  27  27   1    6 C     4.48013940000E-01  5.45998800000E-02  4.97025270000E-01

  28  28   1    6 C     3.93895630000E-01 -5.23553400000E-02  4.98143980000E-01

  29  29   1    6 C    -3.91443280000E-01  5.39213300000E-02 -4.99135640000E-01

  30  30   1    6 C    -4.44122760000E-01  1.08914570000E-01  4.99240050000E-01

  31  31   1    6 C     4.46200800000E-01 -4.46480730000E-01 -4.99988710000E-01

  32  32   1    6 C    -4.45950010000E-01 -3.93225740000E-01  4.99459790000E-01

  33  33   1    6 C     4.47212420000E-01  3.92744820000E-01 -4.96016530000E-01

  34  34   1    6 C     3.93310960000E-01  4.45790420000E-01 -4.96624490000E-01

  35  35   1    6 C    -3.92136370000E-01 -4.46290270000E-01 -4.99601820000E-01

  36  36   1    6 C    -4.44890980000E-01  4.45986420000E-01 -4.98359930000E-01

  37  37   1    8 O    -4.37500300000E-01  2.80890510000E-01  4.99639970000E-01

  38  38   1    8 O    -2.78340850000E-01  2.81187720000E-01 -4.97369890000E-01

  39  39   1    8 O    -2.78732420000E-01  4.39931510000E-01  4.98110250000E-01

  40  40   1    8 O     2.81628580000E-01 -2.79779330000E-01 -4.97223210000E-01

  41  41   1    8 O     2.81388800000E-01 -4.38840960000E-01 -4.89735220000E-01

  42  42   1    8 O     4.40437080000E-01 -2.80068980000E-01 -4.94751400000E-01

 NUMBER OF SYMMETRY OPERATORS         :    1
 *******************************************************************************
 * GEOMETRY EDITING - INPUT COORDINATES ARE GIVEN IN ANGSTROM         
 *******************************************************************************

 GCALCO - MAX INDICES DIRECT LATTICE VECTOR     9     8    39
 NO.OF VECTORS CREATED 6999 STARS 3500 RMAX   187.84539 BOHR

 GEOMETRY FOR WAVE FUNCTION - DIMENSIONALITY OF THE SYSTEM    3
 (NON PERIODIC DIRECTION: LATTICE PARAMETER FORMALLY SET TO 500)
 *******************************************************************************
 LATTICE PARAMETERS (ANGSTROMS AND DEGREES) - BOHR = 0.5291772083 ANGSTROM
 PRIMITIVE CELL - CENTRING CODE 1/0 VOLUME=   586.791668 - DENSITY  1.104 g/cm^3
         A              B              C           ALPHA      BETA       GAMMA 
    15.02070100    15.04438700     3.00000000    90.003305  89.999286 120.053104
 *******************************************************************************
 ATOMS IN THE ASYMMETRIC UNIT   42 - ATOMS IN THE UNIT CELL:   42
     ATOM                 X/A                 Y/B                 Z/C    
 *******************************************************************************
      1 T   5 B    -3.843835700000E-01  2.280750700000E-01 -4.993298800000E-01
      2 T   5 B    -2.256041700000E-01  3.871017900000E-01 -4.993198900000E-01
      3 T   5 B    -3.848358800000E-01  3.867891800000E-01  4.992500900000E-01
      4 T   5 B     2.287899500000E-01 -3.856410000000E-01 -4.945347200000E-01
      5 T   5 B     3.873645400000E-01 -3.861418200000E-01 -4.904906900000E-01
      6 T   5 B     3.876370900000E-01 -2.268033100000E-01 -4.964565300000E-01
      7 T   1 H    -9.557857000000E-02  3.095486000000E-01 -4.954313500000E-01
      8 T   1 H     9.886935000000E-02 -3.085600200000E-01  4.929779300000E-01
      9 T   1 H    -9.551293000000E-02 -4.058595000000E-01  4.928396300000E-01
     10 T   1 H     9.886081000000E-02  4.067623600000E-01 -4.958627900000E-01
     11 T   1 H    -4.055997300000E-01 -9.677088000000E-02 -4.957407200000E-01
     12 T   1 H     4.082606200000E-01  9.863600000000E-02  4.946102100000E-01
     13 T   1 H     3.099203300000E-01 -9.507584000000E-02  4.959171000000E-01
     14 T   1 H    -3.074981600000E-01  9.691914000000E-02 -4.976021100000E-01
     15 T   1 H    -4.060022500000E-01 -3.094350300000E-01  4.978146400000E-01
     16 T   1 H     4.066874900000E-01  3.089518100000E-01 -4.939019500000E-01
     17 T   1 H     3.093234400000E-01  4.048732800000E-01 -4.942668400000E-01
     18 T   1 H    -3.082108400000E-01 -4.052942700000E-01  4.987481200000E-01
     19 T   6 C    -1.063116600000E-01  4.465308800000E-01 -4.995698900000E-01
     20 T   6 C    -5.178745000000E-02  3.933544000000E-01 -4.978037400000E-01
     21 T   6 C     5.522963000000E-02 -3.923092900000E-01  4.958031500000E-01
     22 T   6 C    -5.174885000000E-02 -4.458342000000E-01  4.961403200000E-01
     23 T   6 C     5.524319000000E-02  4.469193500000E-01 -4.984474700000E-01
     24 T   6 C     1.097444900000E-01 -4.454085500000E-01  4.993691900000E-01
     25 T   6 C     4.466001600000E-01 -1.074272400000E-01 -4.980883800000E-01
     26 T   6 C    -4.455265800000E-01 -5.294520000000E-02 -4.976981900000E-01
     27 T   6 C     4.480139400000E-01  5.459988000000E-02  4.970252700000E-01
     28 T   6 C     3.938956300000E-01 -5.235534000000E-02  4.981439800000E-01
     29 T   6 C    -3.914432800000E-01  5.392133000000E-02 -4.991356400000E-01
     30 T   6 C    -4.441227600000E-01  1.089145700000E-01  4.992400500000E-01
     31 T   6 C     4.462008000000E-01 -4.464807300000E-01 -4.999887100000E-01
     32 T   6 C    -4.459500100000E-01 -3.932257400000E-01  4.994597900000E-01
     33 T   6 C     4.472124200000E-01  3.927448200000E-01 -4.960165300000E-01
     34 T   6 C     3.933109600000E-01  4.457904200000E-01 -4.966244900000E-01
     35 T   6 C    -3.921363700000E-01 -4.462902700000E-01 -4.996018200000E-01
     36 T   6 C    -4.448909800000E-01  4.459864200000E-01 -4.983599300000E-01
     37 T   8 O    -4.375003000000E-01  2.808905100000E-01  4.996399700000E-01
     38 T   8 O    -2.783408500000E-01  2.811877200000E-01 -4.973698900000E-01
     39 T   8 O    -2.787324200000E-01  4.399315100000E-01  4.981102500000E-01
     40 T   8 O     2.816285800000E-01 -2.797793300000E-01 -4.972232100000E-01
     41 T   8 O     2.813888000000E-01 -4.388409600000E-01 -4.897352200000E-01
     42 T   8 O     4.404370800000E-01 -2.800689800000E-01 -4.947514000000E-01

 T = ATOM BELONGING TO THE ASYMMETRIC UNIT

 ****    1 SYMMOPS - TRANSLATORS IN FRACTIONAL UNITS
 **** MATRICES AND TRANSLATORS IN THE CRYSTALLOGRAPHIC REFERENCE FRAME
   V INV                    ROTATION MATRICES                   TRANSLATORS
   1   1  1.00 -0.00  0.00  0.00  1.00  0.00 -0.00 -0.00  1.00  0.00  0.00  0.00

 DIRECT LATTICE VECTORS CARTESIAN COMPONENTS (ANGSTROM)
          X                    Y                    Z
   0.130013421718E+02  -0.752240388864E+01   0.000000000000E+00
   0.000000000000E+00   0.150443870000E+02   0.000000000000E+00
  -0.569325258376E-04  -0.173049395239E-03   0.299999999447E+01


 CARTESIAN COORDINATES - PRIMITIVE CELL
 *******************************************************************************
 *      ATOM          X(ANGSTROM)         Y(ANGSTROM)         Z(ANGSTROM)
 *******************************************************************************
    1     5 B    -4.997473890667E+00  6.322824488564E+00 -1.497989637238E+00
    2     5 B    -2.933128582006E+00  7.520881229860E+00 -1.497959667238E+00
    3     5 B    -5.003411379424E+00 -6.330576363392E+00  1.497750267239E+00
    4     5 B     2.974604580524E+00  7.521689722305E+00 -1.483604157265E+00
    5     5 B    -7.965055317148E+00 -1.200690731223E+00 -1.471472067287E+00
    6     5 B    -7.961511461689E+00  1.194410278425E+00 -1.489369587254E+00
    7     1 H    -1.242621486701E+00  5.376035274443E+00 -1.486294047260E+00
    8     1 H     1.285406183172E+00 -5.385916846048E+00  1.478933787273E+00
    9     1 H    -1.241824343364E+00 -5.387505835179E+00  1.478518887274E+00
   10     1 H     1.285351448910E+00  5.375905228051E+00 -1.487588367257E+00
   11     1 H    -5.273312650738E+00  1.595312204765E+00 -1.487222157258E+00
   12     1 H     5.307907856472E+00 -1.587268711333E+00  1.483830627264E+00
   13     1 H     4.029352022506E+00 -3.761789445026E+00  1.487751297257E+00
   14     1 H    -3.997860465606E+00  3.771300514146E+00 -1.492806327248E+00
   15     1 H    -5.278602516605E+00 -1.601233585002E+00  1.493443917246E+00
   16     1 H     5.287511333555E+00  1.588808507186E+00 -1.481705847268E+00
   17     1 H     4.021648025050E+00  3.764299994953E+00 -1.482800517266E+00
   18     1 H    -4.007182986880E+00 -3.779003733485E+00  1.496244357241E+00
   19     6 C    -1.382165826734E+00  7.517589061030E+00 -1.498709667237E+00
   20     6 C    -6.732780164293E-01  6.307428081652E+00 -1.493411217247E+00
   21     6 C     7.180310903248E-01 -6.317598164371E+00  1.487409447258E+00
   22     6 C    -6.728327523674E-01 -6.318112348945E+00  1.488420957256E+00
   23     6 C     7.182639937238E-01  6.308152327945E+00 -1.495342407243E+00
   24     6 C     1.426797235607E+00  7.517859606822E+00  1.498107567238E+00
   25     6 C    -7.194912320215E+00  2.546806329381E+00 -1.494265137245E+00
   26     6 C    -5.792415177985E+00  2.554988925664E+00 -1.493094567247E+00
   27     6 C     5.824754234761E+00 -2.548806089471E+00  1.491075807251E+00
   28     6 C     5.121143505001E+00 -3.750782218822E+00  1.494431937245E+00
   29     6 C    -5.089259607069E+00  3.755894182850E+00 -1.497406917239E+00
   30     6 C    -5.774220392030E+00  4.979337324688E+00  1.497720147239E+00
   31     6 C    -7.200104428034E+00 -2.551041111812E+00 -1.499966127234E+00
   32     6 C    -5.797977107023E+00 -2.561310552772E+00  1.498379367237E+00
   33     6 C     5.814389935361E+00  2.544578452429E+00 -1.488049587256E+00
   34     6 C     5.113598644955E+00  3.748085644991E+00 -1.489873467253E+00
   35     6 C    -5.098270680774E+00 -3.764268925856E+00 -1.498805457237E+00
   36     6 C    -5.784151487226E+00 -4.988058821917E+00 -1.495079787243E+00
   37     8 O     7.313222625455E+00 -5.610855967275E-03  1.498919907236E+00
   38     8 O    -3.618776314708E+00  6.324175241294E+00 -1.492109667249E+00
   39     8 O    -3.623923925461E+00 -6.329235467645E+00  1.494330747245E+00
   40     8 O     3.661577842104E+00 -6.327546396290E+00 -1.491669627250E+00
   41     8 O     3.658459953968E+00  6.325658311352E+00 -1.469205657291E+00
   42     8 O    -7.275040822110E+00 -4.122220036783E-03 -1.484254197263E+00

 *******************************************************************************
 STARTING BASIS SET HANDLING 
 *******************************************************************************

 Loading internal basis set: SOLDEF2MSVP         

 Please cite in your publication:
 L. Dona', J. G. Brandenburg and B. Civalleri, J. Chem. Phys., 151, 121101 (2019
 )                                                                              
                                                                                
                    

 *******************************************************************************
 LOCAL ATOMIC FUNCTIONS BASIS SET
 *******************************************************************************
   ATOM   X(AU)   Y(AU)   Z(AU)  N. TYPE  EXPONENT  S COEF   P COEF   D/F/G COEF
 *******************************************************************************
   1 B   -9.444  11.948  -2.831
                                  1 S  
                                         2.410E+03 1.755E-03 0.000E+00 0.000E+00
                                         3.619E+02 1.344E-02 0.000E+00 0.000E+00
                                         8.231E+01 6.637E-02 0.000E+00 0.000E+00
                                         2.311E+01 2.303E-01 0.000E+00 0.000E+00
                                         7.252E+00 5.150E-01 0.000E+00 0.000E+00
                                  2 S  
                                         2.367E+00 1.000E+00 0.000E+00 0.000E+00
                                  3 S  
                                         5.533E-01 1.000E+00 0.000E+00 0.000E+00
                                  4 S  
                                         1.716E-01 1.000E+00 0.000E+00 0.000E+00
                           5-     7 P  
                                         6.002E+00 0.000E+00-3.555E-02 0.000E+00
                                         1.240E+00 0.000E+00-1.983E-01 0.000E+00
                                         3.367E-01 0.000E+00-5.048E-01 0.000E+00
                           8-    10 P  
                                         1.256E-01 0.000E+00 1.000E+00 0.000E+00
                          11-    15 D  
                                         8.880E-01 0.000E+00 0.000E+00 1.000E+00
   2 B   -5.543  14.212  -2.831
   3 B   -9.455 -11.963   2.830
   4 B    5.621  14.214  -2.804
   5 B  -15.052  -2.269  -2.781
   6 B  -15.045   2.257  -2.815
   7 H   -2.348  10.159  -2.809
                                 91 S  
                                         1.874E+01 1.968E-02 0.000E+00 0.000E+00
                                         2.826E+00 1.380E-01 0.000E+00 0.000E+00
                                         6.401E-01 4.783E-01 0.000E+00 0.000E+00
                                 92 S  
                                         1.756E-01 1.000E+00 0.000E+00 0.000E+00
   8 H    2.429 -10.178   2.795
   9 H   -2.347 -10.181   2.794
  10 H    2.429  10.159  -2.811
  11 H   -9.965   3.015  -2.810
  12 H   10.030  -3.000   2.804
  13 H    7.614  -7.109   2.811
  14 H   -7.555   7.127  -2.821
  15 H   -9.975  -3.026   2.822
  16 H    9.992   3.002  -2.800
  17 H    7.600   7.113  -2.802
  18 H   -7.572  -7.141   2.827
  19 C   -2.612  14.206  -2.832
                                115 S  
                                         3.624E+03 1.634E-03 0.000E+00 0.000E+00
                                         5.440E+02 1.252E-02 0.000E+00 0.000E+00
                                         1.237E+02 6.211E-02 0.000E+00 0.000E+00
                                         3.476E+01 2.182E-01 0.000E+00 0.000E+00
                                         1.093E+01 4.980E-01 0.000E+00 0.000E+00
                                116 S  
                                         3.574E+00 1.000E+00 0.000E+00 0.000E+00
                                117 S  
                                         7.742E-01 1.000E+00 0.000E+00 0.000E+00
                                118 S  
                                         2.330E-01 1.000E+00 0.000E+00 0.000E+00
                         119-   121 P  
                                         9.443E+00 0.000E+00 3.790E-02 0.000E+00
                                         2.002E+00 0.000E+00 2.082E-01 0.000E+00
                                         5.463E-01 0.000E+00 5.047E-01 0.000E+00
                         122-   124 P  
                                         1.820E-01 0.000E+00 1.000E+00 0.000E+00
                         125-   129 D  
                                         8.880E-01 0.000E+00 0.000E+00 1.000E+00
  20 C   -1.272  11.919  -2.822
  21 C    1.357 -11.939   2.811
  22 C   -1.271 -11.940   2.813
  23 C    1.357  11.921  -2.826
  24 C    2.696  14.207   2.831
  25 C  -13.596   4.813  -2.824
  26 C  -10.946   4.828  -2.822
  27 C   11.007  -4.817   2.818
  28 C    9.678  -7.088   2.824
  29 C   -9.617   7.098  -2.830
  30 C  -10.912   9.410   2.830
  31 C  -13.606  -4.821  -2.835
  32 C  -10.957  -4.840   2.832
  33 C   10.988   4.809  -2.812
  34 C    9.663   7.083  -2.815
  35 C   -9.634  -7.113  -2.832
  36 C  -10.930  -9.426  -2.825
  37 O   13.820  -0.011   2.833
                                385 S  
                                         6.773E+03 1.727E-03 0.000E+00 0.000E+00
                                         1.017E+03 1.325E-02 0.000E+00 0.000E+00
                                         2.313E+02 6.603E-02 0.000E+00 0.000E+00
                                         6.501E+01 2.353E-01 0.000E+00 0.000E+00
                                         2.050E+01 5.498E-01 0.000E+00 0.000E+00
                                386 S  
                                         6.716E+00 1.000E+00 0.000E+00 0.000E+00
                                387 S  
                                         1.147E+00 1.000E+00 0.000E+00 0.000E+00
                                388 S  
                                         3.342E-01 1.000E+00 0.000E+00 0.000E+00
                         389-   391 P  
                                         1.769E+01 0.000E+00 4.359E-02 0.000E+00
                                         3.854E+00 0.000E+00 2.318E-01 0.000E+00
                                         1.047E+00 0.000E+00 5.146E-01 0.000E+00
                         392-   394 P  
                                         2.759E-01 0.000E+00 1.000E+00 0.000E+00
                         395-   399 D  
                                         8.000E-01 0.000E+00 0.000E+00 1.000E+00
  38 O   -6.838  11.951  -2.820
  39 O   -6.848 -11.961   2.824
  40 O    6.919 -11.957  -2.819
  41 O    6.913  11.954  -2.776
  42 O  -13.748  -0.008  -2.805

 *******************************************************************************
 FINISHED BASIS SET HANDLING 
 *******************************************************************************

 INFORMATION **** SET_MPP **** PCRYSTAL CALCULATION
 INFORMATION **** READM2 **** NEW DEFAULT: FOCK/KS MATRIX MIXING SET TO 30 %
 INFORMATION **** READM2 **** NEW DEFAULT: FULL DIRECT SCF MODE
 INFORMATION **** READM2 **** NEW DEFAULT: COULOMB BIPOLAR BUFFER SET TO 32 Mb
 INFORMATION **** READM2 **** NEW DEFAULT: EXCHANGE BIPOLAR BUFFER SET TO 32 Mb

 *******************************************************************************
 NEW DEFAULT: DFT INTEGRATION GRID INCREASED TO XLGRID
 NEW DEFAULT: DIIS ACCELERATOR ACTIVE
 USE KEYWORD NODIIS TO TURN IT OFF
 *******************************************************************************

 WARNING **** RDDFTP **** HSEsol-HJS ACTIVE
 RANGE SEPARATION - OMEGA:   0.110000000000000     
 WARNING **** RDDFTP **** HSEsol-3c has to be combined with sol-def2-mSVP basis set
 *******************************************************************************
 N. OF ATOMS PER CELL        42  COULOMB OVERLAP TOL         (T1) 10**   -6
 NUMBER OF SHELLS           234  COULOMB PENETRATION TOL     (T2) 10**   -6
 NUMBER OF AO               474  EXCHANGE OVERLAP TOL        (T3) 10**   -6
 N. OF ELECTRONS PER CELL   198  EXCHANGE PSEUDO OVP (F(G))  (T4) 10**   -6
 CORE ELECTRONS PER CELL     60  EXCHANGE PSEUDO OVP (P(G))  (T5) 10**  -12
 N. OF SYMMETRY OPERATORS     1  POLE ORDER IN MONO ZONE                  4
 *******************************************************************************
 TYPE OF CALCULATION :  RESTRICTED CLOSED SHELL
 KOHN-SHAM HAMILTONIAN

 (EXCHANGE)[CORRELATION] FUNCTIONAL:(HSEsol GGA)[PBEsol]

 RANGE-SEPARATED HYBRID FUNCTIONAL 
 OMEGA (SHORT-RANGE)[LONG-RANGE]:(    0.1100)[    0.0000]

 HYBRID EXCHANGE - PERCENTAGE OF FOCK EXCHANGE    25.0000

 CAPPA:IS1  2;IS2  2;IS3  8; K PTS MONK NET  20; SYMMOPS:K SPACE   2;G SPACE   1

 *******************************************************************************
 MAX NUMBER OF SCF CYCLES      50  CONVERGENCE ON DELTAP        10**-16
 WEIGHT OF F(I) IN F(I+1)      30% CONVERGENCE ON ENERGY        10**- 6
 SHRINK. FACT.(MONKH.)    2  2  8  NUMBER OF K POINTS IN THE IBZ     20
 SHRINKING FACTOR(GILAT NET)    8  NUMBER OF K POINTS(GILAT NET)   1028
 *******************************************************************************
 *** K POINTS COORDINATES (OBLIQUE COORDINATES IN UNITS OF IS =  2)
   1-R(  0  0  0)   2-R(  1  0  0)   3-R(  0  1  0)   4-R(  1  1  0)
   5-C(  0  0  1)   6-C(  1  0  1)   7-C(  0  1  1)   8-C(  1  1  1)
   9-C(  0  0  2)  10-C(  1  0  2)  11-C(  0  1  2)  12-C(  1  1  2)
  13-C(  0  0  3)  14-C(  1  0  3)  15-C(  0  1  3)  16-C(  1  1  3)
  17-R(  0  0  4)  18-R(  1  0  4)  19-R(  0  1  4)  20-R(  1  1  4)

 DIRECT LATTICE VECTORS COMPON. (A.U.)     RECIP. LATTICE VECTORS COMPON. (A.U.) 
        X            Y            Z              X            Y            Z
   24.5689761  -14.2152832    0.0000000      0.2557366    0.0000000    0.0000049
    0.0000000   28.4297713    0.0000000      0.1278719    0.2210072    0.0000152
   -0.0001076   -0.0003270    5.6691784      0.0000000    0.0000000    1.1083062

 DISK SPACE FOR EIGENVECTORS (FTN 10)     7189632 REALS

 SYMMETRY ADAPTION OF THE BLOCH FUNCTIONS DISABLED
 TTTTTTTTTTTTTTTTTTTTTTTTTTTTTT gordsh1     TELAPSE        0.04 TCPU        0.04

 MATRIX SIZE: P(G)  457224, F(G)   94489, P(G) IRR  231303, F(G) IRR   95557
 MAX G-VECTOR INDEX FOR 1- AND 2-ELECTRON INTEGRALS 135

 TTTTTTTTTTTTTTTTTTTTTTTTTTTTTT INPUT       TELAPSE        0.29 TCPU        0.29

 NEIGHBORS OF THE NON-EQUIVALENT ATOMS

 N = NUMBER OF NEIGHBORS AT DISTANCE R
    ATOM  N     R/ANG      R/AU   NEIGHBORS (ATOM LABELS AND CELL INDICES)
   1 B    1     1.3787     2.6054   38 O    0 0 0
   1 B    1     1.3795     2.6068   37 O   -1 0-1
   1 B    1     1.5517     2.9323   30 C    0 0-1
   1 B    1     2.3868     4.5104    2 B    0 0 0
   1 B    1     2.3912     4.5187    3 B    0 1-1
   1 B    1     2.5629     4.8431   27 C   -1 0-1

   2 B    1     1.3792     2.6064   38 O    0 0 0
   2 B    1     1.3798     2.6075   39 O    0 1-1
   2 B    1     1.5510     2.9309   19 C    0 0 0
   2 B    1     2.3868     4.5104    1 B    0 0 0
   2 B    1     2.3894     4.5154    3 B    0 1-1
   2 B    1     2.5618     4.8411   22 C    0 1-1

   3 B    1     1.3790     2.6060   37 O   -1-1 0
   3 B    1     1.3795     2.6069   39 O    0 0 0
   3 B    1     1.5529     2.9346   36 C    0 0 1
   3 B    1     2.3894     4.5154    2 B    0-1 1
   3 B    1     2.3912     4.5187    1 B    0-1 1
   3 B    1     2.5679     4.8526   35 C    0 0 1

   4 B    1     1.3778     2.6037   41 O    0 0 0
   4 B    1     1.3785     2.6051   40 O    0 1 0
   4 B    1     1.5479     2.9250   24 C    0 0-1
   4 B    1     2.3857     4.5083    5 B    1 1 0
   4 B    1     2.3859     4.5087    6 B    1 1 0
   4 B    1     2.5584     4.8347   21 C    0 1-1

   5 B    1     1.3778     2.6037   41 O   -1-1 0
   5 B    1     1.3813     2.6103   42 O    0 0 0
   5 B    1     1.5522     2.9333   31 C    0 0 0
   5 B    1     2.3857     4.5083    4 B   -1-1 0
   5 B    1     2.3952     4.5262    6 B    0 0 0
   5 B    1     2.5589     4.8357   32 C    0 0-1

   6 B    1     1.3783     2.6045   40 O   -1 0 0
   6 B    1     1.3812     2.6101   42 O    0 0 0
   6 B    1     1.5546     2.9377   25 C    0 0 0
   6 B    1     2.3859     4.5087    4 B   -1-1 0
   6 B    1     2.3952     4.5262    5 B    0 0 0
   6 B    1     2.5605     4.8386   26 C    0 0 0

   7 H    1     1.0916     2.0629   20 C    0 0 0
   7 H    1     2.1461     4.0556   19 C    0 0 0
   7 H    1     2.1712     4.1029   23 C    0 0 0
   7 H    1     2.5280     4.7772   10 H    0 0 0
   7 H    1     2.5583     4.8346   38 O    0 0 0
   7 H    1     2.7310     5.1608    2 B    0 0 0

   8 H    1     1.0909     2.0615   21 C    0 0 0
   8 H    1     2.1454     4.0541   24 C    0-1 0
   8 H    1     2.1688     4.0985   22 C    0 0 0
   8 H    1     2.5272     4.7758    9 H    0 0 0
   8 H    1     2.5561     4.8304   40 O    0 0 1
   8 H    1     2.7242     5.1480    4 B    0-1 1

   9 H    1     1.0908     2.0613   22 C    0 0 0
   9 H    1     2.1442     4.0519   19 C    0-1 1
   9 H    1     2.1694     4.0995   21 C    0 0 0
   9 H    1     2.5272     4.7758    8 H    0 0 0
   9 H    1     2.5615     4.8406   39 O    0 0 0
   9 H    1     2.7248     5.1491    2 B    0-1 1

  10 H    1     1.0912     2.0621   23 C    0 0 0
  10 H    1     2.1468     4.0569   24 C    0 0-1
  10 H    1     2.1689     4.0986   20 C    0 0 0
  10 H    1     2.5280     4.7772    7 H    0 0 0
  10 H    1     2.5562     4.8305   41 O    0 0 0
  10 H    1     2.7309     5.1607    4 B    0 0 0

  11 H    1     1.0911     2.0619   26 C    0 0 0
  11 H    1     2.1443     4.0521   25 C    0 0 0
  11 H    1     2.1684     4.0977   29 C    0 0 0
  11 H    1     2.5222     4.7664   14 H    0 0 0
  11 H    1     2.5622     4.8419   42 O    0 0 0
  11 H    1     2.7179     5.1361    6 B    0 0 0

  12 H    1     1.0917     2.0630   27 C    0 0 0
  12 H    1     2.1441     4.0517   30 C    1 0 0
  12 H    1     2.1716     4.1037   28 C    0 0 0
  12 H    1     2.5226     4.7669   13 H    0 0 0
  12 H    1     2.5540     4.8264   37 O    0 0 0
  12 H    1     2.7237     5.1470    1 B    1 0 1

  13 H    1     1.0919     2.0633   28 C    0 0 0
  13 H    1     2.1522     4.0670   25 C    1 0 1
  13 H    1     2.1668     4.0946   27 C    0 0 0
  13 H    1     2.5226     4.7669   12 H    0 0 0
  13 H    1     2.5922     4.8986   40 O    0 0 1
  13 H    1     2.7582     5.2123    6 B    1 0 1

  14 H    1     1.0915     2.0627   29 C    0 0 0
  14 H    1     2.1483     4.0597   30 C    0 0-1
  14 H    1     2.1679     4.0968   26 C    0 0 0
  14 H    1     2.5222     4.7664   11 H    0 0 0
  14 H    1     2.5809     4.8771   38 O    0 0 0
  14 H    1     2.7404     5.1785    1 B    0 0 0

  15 H    1     1.0916     2.0628   32 C    0 0 0
  15 H    1     2.1436     4.0508   31 C    0 0 1
  15 H    1     2.1707     4.1021   35 C    0 0 1
  15 H    1     2.5217     4.7654   18 H    0 0 0
  15 H    1     2.5567     4.8315   42 O    0 0 1
  15 H    1     2.7164     5.1333    5 B    0 0 1

  16 H    1     1.0914     2.0624   33 C    0 0 0
  16 H    1     2.1487     4.0605   36 C    1 1 0
  16 H    1     2.1663     4.0937   34 C    0 0 0
  16 H    1     2.5170     4.7564   17 H    0 0 0
  16 H    1     2.5779     4.8716   37 O    0 0-1
  16 H    1     2.7395     5.1769    3 B    1 1-1

  17 H    1     1.0921     2.0638   34 C    0 0 0
  17 H    1     2.1502     4.0632   31 C    1 1 0
  17 H    1     2.1683     4.0976   33 C    0 0 0
  17 H    1     2.5170     4.7564   16 H    0 0 0
  17 H    1     2.5870     4.8887   41 O    0 0 0
  17 H    1     2.7510     5.1986    5 B    1 1 0

  18 H    1     1.0913     2.0622   35 C    0 0 1
  18 H    1     2.1494     4.0619   36 C    0 0 1
  18 H    1     2.1656     4.0923   32 C    0 0 0
  18 H    1     2.5217     4.7654   15 H    0 0 0
  18 H    1     2.5789     4.8734   39 O    0 0 0
  18 H    1     2.7392     5.1763    3 B    0 0 0

  19 C    1     1.4017     2.6488   22 C    0 1-1
  19 C    1     1.4025     2.6504   20 C    0 0 0
  19 C    1     1.5510     2.9309    2 B    0 0 0
  19 C    1     2.1442     4.0519    9 H    0 1-1
  19 C    1     2.1461     4.0556    7 H    0 0 0
  19 C    1     2.4236     4.5799   21 C    0 1-1

  20 C    1     1.0916     2.0629    7 H    0 0 0
  20 C    1     1.3915     2.6296   23 C    0 0 0
  20 C    1     1.4025     2.6504   19 C    0 0 0
  20 C    1     2.1689     4.0986   10 H    0 0 0
  20 C    1     2.4191     4.5714   22 C    0 1-1
  20 C    1     2.4241     4.5809   24 C    0 0-1

  21 C    1     1.0909     2.0615    8 H    0 0 0
  21 C    1     1.3909     2.6284   22 C    0 0 0
  21 C    1     1.4014     2.6483   24 C    0-1 0
  21 C    1     2.1694     4.0995    9 H    0 0 0
  21 C    1     2.4189     4.5710   23 C    0-1 1
  21 C    1     2.4236     4.5799   19 C    0-1 1

  22 C    1     1.0908     2.0613    9 H    0 0 0
  22 C    1     1.3909     2.6284   21 C    0 0 0
  22 C    1     1.4017     2.6488   19 C    0-1 1
  22 C    1     2.1688     4.0985    8 H    0 0 0
  22 C    1     2.4191     4.5714   20 C    0-1 1
  22 C    1     2.4226     4.5780   24 C    0-1 0

  23 C    1     1.0912     2.0621   10 H    0 0 0
  23 C    1     1.3915     2.6296   20 C    0 0 0
  23 C    1     1.4021     2.6496   24 C    0 0-1
  23 C    1     2.1712     4.1029    7 H    0 0 0
  23 C    1     2.4189     4.5710   21 C    0 1-1
  23 C    1     2.4237     4.5802   19 C    0 0 0

  24 C    1     1.4014     2.6483   21 C    0 1 0
  24 C    1     1.4021     2.6496   23 C    0 0 1
  24 C    1     1.5479     2.9250    4 B    0 0 1
  24 C    1     2.1454     4.0541    8 H    0 1 0
  24 C    1     2.1468     4.0569   10 H    0 0 1
  24 C    1     2.4226     4.5780   22 C    0 1 0

  25 C    1     1.4025     2.6504   26 C    0 0 0
  25 C    1     1.4037     2.6525   28 C   -1 0-1
  25 C    1     1.5546     2.9377    6 B    0 0 0
  25 C    1     2.1443     4.0521   11 H    0 0 0
  25 C    1     2.1522     4.0670   13 H   -1 0-1
  25 C    1     2.4271     4.5865   27 C   -1 0-1

  26 C    1     1.0911     2.0619   11 H    0 0 0
  26 C    1     1.3916     2.6298   29 C    0 0 0
  26 C    1     1.4025     2.6504   25 C    0 0 0
  26 C    1     2.1679     4.0968   14 H    0 0 0
  26 C    1     2.4165     4.5665   28 C   -1 0-1
  26 C    1     2.4246     4.5818   30 C    0 0-1

  27 C    1     1.0917     2.0630   12 H    0 0 0
  27 C    1     1.3928     2.6320   28 C    0 0 0
  27 C    1     1.4024     2.6501   30 C    1 0 0
  27 C    1     2.1668     4.0946   13 H    0 0 0
  27 C    1     2.4166     4.5668   29 C    1 0 1
  27 C    1     2.4271     4.5865   25 C    1 0 1

  28 C    1     1.0919     2.0633   13 H    0 0 0
  28 C    1     1.3928     2.6320   27 C    0 0 0
  28 C    1     1.4037     2.6525   25 C    1 0 1
  28 C    1     2.1716     4.1037   12 H    0 0 0
  28 C    1     2.4165     4.5665   26 C    1 0 1
  28 C    1     2.4277     4.5877   30 C    1 0 0

  29 C    1     1.0915     2.0627   14 H    0 0 0
  29 C    1     1.3916     2.6298   26 C    0 0 0
  29 C    1     1.4023     2.6499   30 C    0 0-1
  29 C    1     2.1684     4.0977   11 H    0 0 0
  29 C    1     2.4166     4.5668   27 C   -1 0-1
  29 C    1     2.4281     4.5884   25 C    0 0 0

  30 C    1     1.4023     2.6499   29 C    0 0 1
  30 C    1     1.4024     2.6501   27 C   -1 0 0
  30 C    1     1.5517     2.9323    1 B    0 0 1
  30 C    1     2.1441     4.0517   12 H   -1 0 0
  30 C    1     2.1483     4.0597   14 H    0 0 1
  30 C    1     2.4246     4.5818   26 C    0 0 1

  31 C    1     1.4022     2.6498   32 C    0 0-1
  31 C    1     1.4030     2.6512   34 C   -1-1 0
  31 C    1     1.5522     2.9333    5 B    0 0 0
  31 C    1     2.1436     4.0508   15 H    0 0-1
  31 C    1     2.1502     4.0632   17 H   -1-1 0
  31 C    1     2.4264     4.5853   33 C   -1-1 0

  32 C    1     1.0916     2.0628   15 H    0 0 0
  32 C    1     1.3918     2.6301   35 C    0 0 1
  32 C    1     1.4022     2.6498   31 C    0 0 1
  32 C    1     2.1656     4.0923   18 H    0 0 0
  32 C    1     2.4163     4.5661   34 C   -1-1 1
  32 C    1     2.4270     4.5863   36 C    0 0 1

  33 C    1     1.0914     2.0624   16 H    0 0 0
  33 C    1     1.3927     2.6318   34 C    0 0 0
  33 C    1     1.4029     2.6510   36 C    1 1 0
  33 C    1     2.1683     4.0976   17 H    0 0 0
  33 C    1     2.4155     4.5645   35 C    1 1 0
  33 C    1     2.4264     4.5853   31 C    1 1 0

  34 C    1     1.0921     2.0638   17 H    0 0 0
  34 C    1     1.3927     2.6318   33 C    0 0 0
  34 C    1     1.4030     2.6512   31 C    1 1 0
  34 C    1     2.1663     4.0937   16 H    0 0 0
  34 C    1     2.4163     4.5661   32 C    1 1-1
  34 C    1     2.4289     4.5899   36 C    1 1 0

  35 C    1     1.0913     2.0622   18 H    0 0-1
  35 C    1     1.3918     2.6301   32 C    0 0-1
  35 C    1     1.4029     2.6511   36 C    0 0 0
  35 C    1     2.1707     4.1021   15 H    0 0-1
  35 C    1     2.4155     4.5645   33 C   -1-1 0
  35 C    1     2.4269     4.5861   31 C    0 0 0

  36 C    1     1.4029     2.6510   33 C   -1-1 0
  36 C    1     1.4029     2.6511   35 C    0 0 0
  36 C    1     1.5529     2.9346    3 B    0 0-1
  36 C    1     2.1487     4.0605   16 H   -1-1 0
  36 C    1     2.1494     4.0619   18 H    0 0-1
  36 C    1     2.4270     4.5863   32 C    0 0-1

  37 O    1     1.3790     2.6060    3 B    1 1 0
  37 O    1     1.3795     2.6068    1 B    1 0 1
  37 O    1     2.3868     4.5105   39 O    1 1 0
  37 O    1     2.3885     4.5135   38 O    1 0 1
  37 O    1     2.5389     4.7979   30 C    1 0 0
  37 O    1     2.5412     4.8021   36 C    1 1 1

  38 O    1     1.3787     2.6054    1 B    0 0 0
  38 O    1     1.3792     2.6064    2 B    0 0 0
  38 O    1     2.3885     4.5135   37 O   -1 0-1
  38 O    1     2.3912     4.5187   39 O    0 1-1
  38 O    1     2.5351     4.7906   19 C    0 0 0
  38 O    1     2.5405     4.8008   30 C    0 0-1

  39 O    1     1.3795     2.6069    3 B    0 0 0
  39 O    1     1.3798     2.6075    2 B    0-1 1
  39 O    1     2.3868     4.5105   37 O   -1-1 0
  39 O    1     2.3912     4.5187   38 O    0-1 1
  39 O    1     2.5416     4.8030   19 C    0-1 1
  39 O    1     2.5427     4.8050   36 C    0 0 1

  40 O    1     1.3783     2.6045    6 B    1 0 0
  40 O    1     1.3785     2.6051    4 B    0-1 0
  40 O    1     2.3876     4.5119   42 O    1 0 0
  40 O    1     2.3913     4.5189   41 O    0-1 0
  40 O    1     2.5354     4.7912   25 C    1 0 0
  40 O    1     2.5360     4.7923   24 C    0-1-1

  41 O    1     1.3778     2.6037    4 B    0 0 0
  41 O    1     1.3778     2.6037    5 B    1 1 0
  41 O    1     2.3870     4.5107   42 O    1 1 0
  41 O    1     2.3913     4.5189   40 O    0 1 0
  41 O    1     2.5304     4.7818   24 C    0 0-1
  41 O    1     2.5353     4.7910   31 C    1 1 0

  42 O    1     1.3812     2.6101    6 B    0 0 0
  42 O    1     1.3813     2.6103    5 B    0 0 0
  42 O    1     2.3870     4.5107   41 O   -1-1 0
  42 O    1     2.3876     4.5119   40 O   -1 0 0
  42 O    1     2.5481     4.8152   31 C    0 0 0
  42 O    1     2.5522     4.8230   25 C    0 0 0


 SYMMETRY ALLOWED INTERNAL DEGREE(S) OF FREEDOM: 123
 TTTTTTTTTTTTTTTTTTTTTTTTTTTTTT SYMM        TELAPSE        0.29 TCPU        0.29
 TTTTTTTTTTTTTTTTTTTTTTTTTTTTTT INT_SCREEN  TELAPSE        0.32 TCPU        0.32

 DFT PARAMETERS

     ATOM       ELECTRONS   NET CHARGE   R(ANGSTROM)
   1   5  B       5.0000      0.0000     0.89000000
   7   1  H       1.0000      0.0000     1.11000000
  19   6  C       6.0000      0.0000     0.77000000
  37   8  O       8.0000      0.0000     0.74000000

 SIZE OF GRID=    1193412
 TTTTTTTTTTTTTTTTTTTTTTTTTTTTTT MAKE_GRID2  TELAPSE       14.79 TCPU       14.76
 BECKE WEIGHT FUNCTION
 RADSAFE =     2.00
 TOLERANCES - DENSITY:10**- 6; POTENTIAL:10**- 9; GRID WGT:10**-14

 RADIAL INTEGRATION  - INTERVALS (POINTS,UPPER LIMIT):            1( 75,  4.0*R)

 ANGULAR INTEGRATION - INTERVALS (ACCURACY LEVEL [N. POINTS] UPPER LIMIT):
  1(  4[  86]   0.2)  2(  8[ 194]   0.5)  3( 12[ 350]   0.9)  4( 16[ 974]   3.5)
  5( 12[ 350]9999.0)
 TTTTTTTTTTTTTTTTTTTTTTTTTTTTTT INT_CALC    TELAPSE       14.93 TCPU       14.89
 EEEEEEEEEE INT_CALC TERMINATION  DATE 02 12 2025 TIME 07:51:56.4

 *******************************************************************************
 COF-5_z30_inc_L000                                                              
 CRYSTAL - SCF - TYPE OF CALCULATION :  RESTRICTED CLOSED SHELL
 *******************************************************************************

 CAPPA:IS1  2;IS2  2;IS3  8; K PTS MONK NET  20; SYMMOPS:K SPACE   2;G SPACE   1

 TTTTTTTTTTTTTTTTTTTTTTTTTTTTTT SDIK        TELAPSE       15.86 TCPU       23.68

 AAAAAAAAAAAAAAAAAAAAAAAAAAAAAAAAAAAAAAAAAAAAAAAAAAAAAAAAAAAAAAAAAAAAAAAAAAAAAAA
         ATOMIC WAVEFUNCTION(S)


 NUCLEAR CHARGE  5.0  SYMMETRY SPECIES            S    P
 N. ELECTRONS    5.0  NUMBER OF PRIMITIVE GTOS    8    4
                      NUMBER OF CONTRACTED GTOS   4    2
                      NUMBER OF CLOSED SHELLS     2    0
                      OPEN SHELL OCCUPATION       0    1

  ZNUC  SCFIT    TOTAL HF ENERGY   KINETIC ENERGY   VIRIAL THEOREM ACCURACY
   5.0    11    -2.451164084E+01  2.462155050E+01 -1.995536038E+00  1.5E-06

 NUCLEAR CHARGE  1.0  SYMMETRY SPECIES            S
 N. ELECTRONS    1.0  NUMBER OF PRIMITIVE GTOS    4
                      NUMBER OF CONTRACTED GTOS   2
                      NUMBER OF CLOSED SHELLS     0
                      OPEN SHELL OCCUPATION       1

  ZNUC  SCFIT    TOTAL HF ENERGY   KINETIC ENERGY   VIRIAL THEOREM ACCURACY
   1.0     1    -4.977266687E-01  5.190767460E-01 -1.958869132E+00  0.0E+00

 NUCLEAR CHARGE  6.0  SYMMETRY SPECIES            S    P
 N. ELECTRONS    6.0  NUMBER OF PRIMITIVE GTOS    8    4
                      NUMBER OF CONTRACTED GTOS   4    2
                      NUMBER OF CLOSED SHELLS     2    0
                      OPEN SHELL OCCUPATION       0    2

  ZNUC  SCFIT    TOTAL HF ENERGY   KINETIC ENERGY   VIRIAL THEOREM ACCURACY
   6.0     9    -3.766704647E+01  3.775180683E+01 -1.997754800E+00  1.1E-06

 NUCLEAR CHARGE  8.0  SYMMETRY SPECIES            S    P
 N. ELECTRONS    8.0  NUMBER OF PRIMITIVE GTOS    8    4
                      NUMBER OF CONTRACTED GTOS   4    2
                      NUMBER OF CLOSED SHELLS     2    0
                      OPEN SHELL OCCUPATION       0    4

  ZNUC  SCFIT    TOTAL HF ENERGY   KINETIC ENERGY   VIRIAL THEOREM ACCURACY
   8.0    12    -7.477373220E+01  7.477365593E+01 -2.000001020E+00  3.8E-06

 AAAAAAAAAAAAAAAAAAAAAAAAAAAAAAAAAAAAAAAAAAAAAAAAAAAAAAAAAAAAAAAAAAAAAAAAAAAAAAA

 CHARGE NORMALIZATION FACTOR   1.00000000
 TOTAL ATOMIC CHARGES:
   5.0000000   5.0000000   5.0000000   5.0000000   5.0000000   5.0000000
   1.0000000   1.0000000   1.0000000   1.0000000   1.0000000   1.0000000
   1.0000000   1.0000000   1.0000000   1.0000000   1.0000000   1.0000000
   6.0000000   6.0000000   6.0000000   6.0000000   6.0000000   6.0000000
   6.0000000   6.0000000   6.0000000   6.0000000   6.0000000   6.0000000
   6.0000000   6.0000000   6.0000000   6.0000000   6.0000000   6.0000000
   8.0000000   8.0000000   8.0000000   8.0000000   8.0000000   8.0000000
 TTTTTTTTTTTTTTTTTTTTTTTTTTTTTT MOQGAD      TELAPSE       15.92 TCPU       25.57
 TTTTTTTTTTTTTTTTTTTTTTTTTTTTTT SHELLXN     TELAPSE       32.44 TCPU      552.67
 TTTTTTTTTTTTTTTTTTTTTTTTTTTTTT MONMO3      TELAPSE       32.64 TCPU      559.23
 NUMERICALLY INTEGRATED DENSITY    197.9998348921
 TTTTTTTTTTTTTTTTTTTTTTTTTTTTTT NUMDFT      TELAPSE       33.37 TCPU      582.49
 CYC   0 ETOT(AU) -1.296142082587E+03 DETOT -1.30E+03 tst  0.00E+00 PX  1.00E+00
 TTTTTTTTTTTTTTTTTTTTTTTTTTTTTT DIIS        TELAPSE       33.40 TCPU      583.63
 TTTTTTTTTTTTTTTTTTTTTTTTTTTTTT FDIK        TELAPSE       33.90 TCPU      599.44
 INSULATING STATE
 TOP OF VALENCE BANDS -    BAND     99; K    1; EIG -2.5661288E-01 AU
 BOTTOM OF VIRTUAL BANDS - BAND    100; K   17; EIG -2.1162831E-01 AU
 INDIRECT ENERGY BAND GAP:   1.2241 eV
 BOTTOM OF VIRTUAL BANDS - BAND    100; K    1; EIG -9.0744798E-02 AU
 TTTTTTTTTTTTTTTTTTTTTTTTTTTTTT PDIG        TELAPSE       34.19 TCPU      605.45
 CHARGE NORMALIZATION FACTOR   1.00000000
 TOTAL ATOMIC CHARGES:
   4.0984170   4.0976609   4.0989836   4.1000925   4.0981457   4.0978805
   0.7862150   0.7861897   0.7863171   0.7863763   0.7861389   0.7860551
   0.7870615   0.7866063   0.7859227   0.7865276   0.7865456   0.7867813
   6.0639473   6.2763714   6.2763394   6.2774575   6.2760717   6.0665596
   6.0596939   6.2775433   6.2757368   6.2786760   6.2784334   6.0635837
   6.0623826   6.2763135   6.2773617   6.2771926   6.2787643   6.0600635
   8.7119242   8.7112600   8.7117291   8.7108818   8.7105293   8.7132657
 TTTTTTTTTTTTTTTTTTTTTTTTTTTTTT MOQGAD      TELAPSE       34.25 TCPU      605.52
 TTTTTTTTTTTTTTTTTTTTTTTTTTTTTT SHELLXN     TELAPSE       51.20 TCPU     1146.08
 TTTTTTTTTTTTTTTTTTTTTTTTTTTTTT MONMO3      TELAPSE       51.40 TCPU     1152.62
 NUMERICALLY INTEGRATED DENSITY    197.9999058431
 TTTTTTTTTTTTTTTTTTTTTTTTTTTTTT NUMDFT      TELAPSE       52.14 TCPU     1176.31
 CYC   1 ETOT(AU) -1.288724305342E+03 DETOT  7.42E+00 tst  0.00E+00 PX  1.00E+00
 TTTTTTTTTTTTTTTTTTTTTTTTTTTTTT DIIS        TELAPSE       52.20 TCPU     1178.00
 DIIS TEST: 0.11736E+01 AT SCF   CYCLE   1 - MIX   30 %
 TTTTTTTTTTTTTTTTTTTTTTTTTTTTTT FDIK        TELAPSE       52.69 TCPU     1193.72
 INSULATING STATE
 TOP OF VALENCE BANDS -    BAND     99; K    1; EIG -1.4231887E-01 AU
 BOTTOM OF VIRTUAL BANDS - BAND    100; K   17; EIG -1.3534983E-01 AU
 INDIRECT ENERGY BAND GAP:   0.1896 eV
 BOTTOM OF VIRTUAL BANDS - BAND    100; K    1; EIG  2.7191993E-04 AU
 TTTTTTTTTTTTTTTTTTTTTTTTTTTTTT PDIG        TELAPSE       52.98 TCPU     1199.74
 CHARGE NORMALIZATION FACTOR   1.00000000
 TOTAL ATOMIC CHARGES:
   4.6927293   4.6929779   4.6934997   4.6919256   4.6927643   4.6939891
   0.9346498   0.9350648   0.9351713   0.9350506   0.9346773   0.9341902
   0.9353068   0.9355606   0.9342354   0.9347218   0.9348635   0.9351217
   5.8588139   6.1151145   6.1127296   6.1129036   6.1143663   5.8537595
   5.8628301   6.1091967   6.1109999   6.1159901   6.1125835   5.8565654
   5.8593407   6.1093046   6.1123598   6.1144065   6.1120940   5.8613050
   8.3534818   8.3521188   8.3538364   8.3509396   8.3502222   8.3582375
 TTTTTTTTTTTTTTTTTTTTTTTTTTTTTT MOQGAD      TELAPSE       53.04 TCPU     1199.80
 TTTTTTTTTTTTTTTTTTTTTTTTTTTTTT SHELLXN     TELAPSE       69.99 TCPU     1740.49
 TTTTTTTTTTTTTTTTTTTTTTTTTTTTTT MONMO3      TELAPSE       70.20 TCPU     1747.04
 NUMERICALLY INTEGRATED DENSITY    197.9998916171
 TTTTTTTTTTTTTTTTTTTTTTTTTTTTTT NUMDFT      TELAPSE       70.94 TCPU     1770.80
 CYC   2 ETOT(AU) -1.288911664244E+03 DETOT -1.87E-01 tst  4.70E-03 PX  1.51E-01
 TTTTTTTTTTTTTTTTTTTTTTTTTTTTTT DIIS        TELAPSE       70.99 TCPU     1772.47
 DIIS TEST: 0.56645E+00 AT SCF   CYCLE   2 - DIIS ACTIVE - HISTORY:     2 CYCLES
 TTTTTTTTTTTTTTTTTTTTTTTTTTTTTT FDIK        TELAPSE       71.48 TCPU     1788.11
 INSULATING STATE
 TOP OF VALENCE BANDS -    BAND     99; K    1; EIG -1.6657070E-01 AU
 BOTTOM OF VIRTUAL BANDS - BAND    100; K   17; EIG -1.2591806E-01 AU
 INDIRECT ENERGY BAND GAP:   1.1062 eV
 BOTTOM OF VIRTUAL BANDS - BAND    100; K    1; EIG  1.1440164E-02 AU
 TTTTTTTTTTTTTTTTTTTTTTTTTTTTTT PDIG        TELAPSE       71.77 TCPU     1794.12
 CHARGE NORMALIZATION FACTOR   1.00000000
 TOTAL ATOMIC CHARGES:
   4.4420749   4.4405917   4.4414589   4.4430943   4.4413666   4.4405296
   0.8975515   0.8971396   0.8973632   0.8976292   0.8967237   0.8965064
   0.8986594   0.8977104   0.8961166   0.8975895   0.8980631   0.8975434
   5.9017995   6.1739283   6.1757856   6.1744962   6.1755528   5.9071133
   5.9002700   6.1732433   6.1746668   6.1768881   6.1781572   5.9048084
   5.9036099   6.1739097   6.1749530   6.1769539   6.1766700   5.9014335
   8.5098314   8.5094705   8.5097395   8.5088931   8.5087747   8.5113394
 TTTTTTTTTTTTTTTTTTTTTTTTTTTTTT MOQGAD      TELAPSE       71.84 TCPU     1794.19
 TTTTTTTTTTTTTTTTTTTTTTTTTTTTTT SHELLXN     TELAPSE       88.79 TCPU     2335.13
 TTTTTTTTTTTTTTTTTTTTTTTTTTTTTT MONMO3      TELAPSE       89.00 TCPU     2341.67
 NUMERICALLY INTEGRATED DENSITY    197.9998896210
 TTTTTTTTTTTTTTTTTTTTTTTTTTTTTT NUMDFT      TELAPSE       89.74 TCPU     2365.37
 CYC   3 ETOT(AU) -1.289029914856E+03 DETOT -1.18E-01 tst  8.65E-04 PX  5.63E-02
 TTTTTTTTTTTTTTTTTTTTTTTTTTTTTT DIIS        TELAPSE       89.80 TCPU     2367.20
 DIIS TEST: 0.13550E-01 AT SCF   CYCLE   3 - DIIS ACTIVE - HISTORY:     3 CYCLES
 TTTTTTTTTTTTTTTTTTTTTTTTTTTTTT FDIK        TELAPSE       90.29 TCPU     2382.82
 INSULATING STATE
 TOP OF VALENCE BANDS -    BAND     99; K    1; EIG -1.7127952E-01 AU
 BOTTOM OF VIRTUAL BANDS - BAND    100; K   17; EIG -1.3909994E-01 AU
 INDIRECT ENERGY BAND GAP:   0.8757 eV
 BOTTOM OF VIRTUAL BANDS - BAND    100; K    1; EIG -2.6530991E-03 AU
 TTTTTTTTTTTTTTTTTTTTTTTTTTTTTT PDIG        TELAPSE       90.58 TCPU     2388.84
 CHARGE NORMALIZATION FACTOR   1.00000000
 TOTAL ATOMIC CHARGES:
   4.4578902   4.4587556   4.4588508   4.4580179   4.4577394   4.4588132
   0.8860731   0.8868043   0.8864990   0.8867494   0.8858993   0.8859015
   0.8871251   0.8873905   0.8857208   0.8864012   0.8868390   0.8868670
   5.9672507   6.1542584   6.1501490   6.1537313   6.1507947   5.9587004
   5.9673539   6.1517851   6.1496699   6.1544219   6.1506808   5.9602529
   5.9631566   6.1503819   6.1516864   6.1510441   6.1526532   5.9652043
   8.5015822   8.5004177   8.5023206   8.4996493   8.4985319   8.5059859
 TTTTTTTTTTTTTTTTTTTTTTTTTTTTTT MOQGAD      TELAPSE       90.64 TCPU     2388.91
 TTTTTTTTTTTTTTTTTTTTTTTTTTTTTT SHELLXN     TELAPSE      107.60 TCPU     2929.68
 TTTTTTTTTTTTTTTTTTTTTTTTTTTTTT MONMO3      TELAPSE      107.80 TCPU     2936.22
 NUMERICALLY INTEGRATED DENSITY    197.9998921108
 TTTTTTTTTTTTTTTTTTTTTTTTTTTTTT NUMDFT      TELAPSE      108.54 TCPU     2960.00
 CYC   4 ETOT(AU) -1.289032179205E+03 DETOT -2.26E-03 tst  9.73E-05 PX  1.46E-02
 TTTTTTTTTTTTTTTTTTTTTTTTTTTTTT DIIS        TELAPSE      108.61 TCPU     2962.04
 DIIS TEST: 0.51759E-02 AT SCF   CYCLE   4 - DIIS ACTIVE - HISTORY:     4 CYCLES
 TTTTTTTTTTTTTTTTTTTTTTTTTTTTTT FDIK        TELAPSE      109.10 TCPU     2977.78
 INSULATING STATE
 TOP OF VALENCE BANDS -    BAND     99; K    1; EIG -1.7331203E-01 AU
 BOTTOM OF VIRTUAL BANDS - BAND    100; K   17; EIG -1.3644040E-01 AU
 INDIRECT ENERGY BAND GAP:   1.0033 eV
 BOTTOM OF VIRTUAL BANDS - BAND    100; K    1; EIG -4.2165578E-06 AU
 TTTTTTTTTTTTTTTTTTTTTTTTTTTTTT PDIG        TELAPSE      109.39 TCPU     2983.80
 CHARGE NORMALIZATION FACTOR   1.00000000
 TOTAL ATOMIC CHARGES:
   4.4587723   4.4572238   4.4582405   4.4595577   4.4582850   4.4577708
   0.8860981   0.8857031   0.8860862   0.8860670   0.8855521   0.8850898
   0.8870835   0.8862659   0.8849201   0.8860829   0.8863610   0.8862120
   5.9262871   6.1691371   6.1710080   6.1683093   6.1719939   5.9335665
   5.9271965   6.1671702   6.1701456   6.1716448   6.1722038   5.9313305
   5.9310682   6.1678187   6.1703909   6.1728053   6.1695431   5.9278808
   8.5004863   8.4994354   8.4995772   8.4986854   8.4989486   8.5019949
 TTTTTTTTTTTTTTTTTTTTTTTTTTTTTT MOQGAD      TELAPSE      109.45 TCPU     2983.87
 TTTTTTTTTTTTTTTTTTTTTTTTTTTTTT SHELLXN     TELAPSE      126.41 TCPU     3524.69
 TTTTTTTTTTTTTTTTTTTTTTTTTTTTTT MONMO3      TELAPSE      126.61 TCPU     3531.22
 NUMERICALLY INTEGRATED DENSITY    197.9998921127
 TTTTTTTTTTTTTTTTTTTTTTTTTTTTTT NUMDFT      TELAPSE      127.35 TCPU     3554.89
 CYC   5 ETOT(AU) -1.289033354702E+03 DETOT -1.18E-03 tst  2.73E-05 PX  8.05E-03
 TTTTTTTTTTTTTTTTTTTTTTTTTTTTTT DIIS        TELAPSE      127.43 TCPU     3557.20
 DIIS TEST: 0.29875E-03 AT SCF   CYCLE   5 - DIIS ACTIVE - HISTORY:     5 CYCLES
 TTTTTTTTTTTTTTTTTTTTTTTTTTTTTT FDIK        TELAPSE      127.92 TCPU     3572.83
 INSULATING STATE
 TOP OF VALENCE BANDS -    BAND     99; K    1; EIG -1.7220574E-01 AU
 BOTTOM OF VIRTUAL BANDS - BAND    100; K   17; EIG -1.3589639E-01 AU
 INDIRECT ENERGY BAND GAP:   0.9880 eV
 BOTTOM OF VIRTUAL BANDS - BAND    100; K    1; EIG  6.4361363E-04 AU
 TTTTTTTTTTTTTTTTTTTTTTTTTTTTTT PDIG        TELAPSE      128.20 TCPU     3578.85
 CHARGE NORMALIZATION FACTOR   1.00000000
 TOTAL ATOMIC CHARGES:
   4.4572330   4.4580497   4.4581017   4.4570431   4.4566380   4.4574883
   0.8878234   0.8883236   0.8880203   0.8884753   0.8874547   0.8875414
   0.8888967   0.8888726   0.8871903   0.8881853   0.8886622   0.8883378
   5.9381029   6.1678359   6.1645525   6.1693642   6.1631912   5.9275206
   5.9348720   6.1664847   6.1632422   6.1684986   6.1666953   5.9300322
   5.9306603   6.1656734   6.1648844   6.1640137   6.1696901   5.9346550
   8.5007723   8.5005806   8.5026790   8.4999608   8.4983597   8.5053414
 TTTTTTTTTTTTTTTTTTTTTTTTTTTTTT MOQGAD      TELAPSE      128.27 TCPU     3578.92
 TTTTTTTTTTTTTTTTTTTTTTTTTTTTTT SHELLXN     TELAPSE      145.21 TCPU     4119.39
 TTTTTTTTTTTTTTTTTTTTTTTTTTTTTT MONMO3      TELAPSE      145.42 TCPU     4125.94
 NUMERICALLY INTEGRATED DENSITY    197.9998919986
 TTTTTTTTTTTTTTTTTTTTTTTTTTTTTT NUMDFT      TELAPSE      146.16 TCPU     4149.66
 CYC   6 ETOT(AU) -1.289033366651E+03 DETOT -1.19E-05 tst  3.50E-06 PX  2.74E-03
 TTTTTTTTTTTTTTTTTTTTTTTTTTTTTT DIIS        TELAPSE      146.23 TCPU     4151.86
 DIIS TEST: 0.23907E-03 AT SCF   CYCLE   6 - DIIS ACTIVE - HISTORY:     6 CYCLES
 TTTTTTTTTTTTTTTTTTTTTTTTTTTTTT FDIK        TELAPSE      146.72 TCPU     4167.43
 INSULATING STATE
 TOP OF VALENCE BANDS -    BAND     99; K    1; EIG -1.7224627E-01 AU
 BOTTOM OF VIRTUAL BANDS - BAND    100; K   17; EIG -1.3599693E-01 AU
 INDIRECT ENERGY BAND GAP:   0.9864 eV
 BOTTOM OF VIRTUAL BANDS - BAND    100; K    1; EIG  5.3501460E-04 AU
 TTTTTTTTTTTTTTTTTTTTTTTTTTTTTT PDIG        TELAPSE      147.01 TCPU     4173.45
 CHARGE NORMALIZATION FACTOR   1.00000000
 TOTAL ATOMIC CHARGES:
   4.4577058   4.4570624   4.4577122   4.4584971   4.4575223   4.4575272
   0.8879548   0.8880312   0.8881150   0.8882216   0.8875368   0.8872955
   0.8889836   0.8886168   0.8871076   0.8880987   0.8884566   0.8883664
   5.9328171   6.1660635   6.1655798   6.1651203   6.1667175   5.9347931
   5.9338913   6.1640597   6.1648643   6.1681012   6.1664940   5.9329743
   5.9346461   6.1637587   6.1659750   6.1675470   6.1655745   5.9326673
   8.5013831   8.5003201   8.5010338   8.4995993   8.4993845   8.5038229
 TTTTTTTTTTTTTTTTTTTTTTTTTTTTTT MOQGAD      TELAPSE      147.07 TCPU     4173.51
 TTTTTTTTTTTTTTTTTTTTTTTTTTTTTT SHELLXN     TELAPSE      164.02 TCPU     4713.98
 TTTTTTTTTTTTTTTTTTTTTTTTTTTTTT MONMO3      TELAPSE      164.23 TCPU     4720.53
 NUMERICALLY INTEGRATED DENSITY    197.9998919916
 TTTTTTTTTTTTTTTTTTTTTTTTTTTTTT NUMDFT      TELAPSE      164.97 TCPU     4744.16
 CYC   7 ETOT(AU) -1.289033422038E+03 DETOT -5.54E-05 tst  1.87E-06 PX  1.69E-03
 TTTTTTTTTTTTTTTTTTTTTTTTTTTTTT DIIS        TELAPSE      165.05 TCPU     4746.70
 DIIS TEST: 0.16272E-04 AT SCF   CYCLE   7 - DIIS ACTIVE - HISTORY:     7 CYCLES
 TTTTTTTTTTTTTTTTTTTTTTTTTTTTTT FDIK        TELAPSE      165.54 TCPU     4762.47
 INSULATING STATE
 TOP OF VALENCE BANDS -    BAND     99; K    1; EIG -1.7239061E-01 AU
 BOTTOM OF VIRTUAL BANDS - BAND    100; K   17; EIG -1.3610235E-01 AU
 INDIRECT ENERGY BAND GAP:   0.9875 eV
 BOTTOM OF VIRTUAL BANDS - BAND    100; K    1; EIG  4.2180936E-04 AU
 TTTTTTTTTTTTTTTTTTTTTTTTTTTTTT PDIG        TELAPSE      165.83 TCPU     4768.48
 CHARGE NORMALIZATION FACTOR   1.00000000
 TOTAL ATOMIC CHARGES:
   4.4582112   4.4575622   4.4582138   4.4585287   4.4575724   4.4575826
   0.8877572   0.8877165   0.8878314   0.8879937   0.8872866   0.8870268
   0.8887917   0.8882810   0.8867958   0.8878858   0.8882553   0.8880374
   5.9338018   6.1662636   6.1659692   6.1662702   6.1661246   5.9337611
   5.9328314   6.1643054   6.1651607   6.1677582   6.1675481   5.9339169
   5.9335864   6.1643873   6.1659118   6.1668057   6.1670210   5.9336122
   8.5008688   8.5000439   8.5009536   8.4993147   8.4988796   8.5035736
 TTTTTTTTTTTTTTTTTTTTTTTTTTTTTT MOQGAD      TELAPSE      165.89 TCPU     4768.54
 TTTTTTTTTTTTTTTTTTTTTTTTTTTTTT SHELLXN     TELAPSE      182.84 TCPU     5309.11
 TTTTTTTTTTTTTTTTTTTTTTTTTTTTTT MONMO3      TELAPSE      183.04 TCPU     5315.69
 NUMERICALLY INTEGRATED DENSITY    197.9998919817
 TTTTTTTTTTTTTTTTTTTTTTTTTTTTTT NUMDFT      TELAPSE      183.79 TCPU     5339.37
 CYC   8 ETOT(AU) -1.289033425371E+03 DETOT -3.33E-06 tst  8.16E-08 PX  3.39E-04
 TTTTTTTTTTTTTTTTTTTTTTTTTTTTTT DIIS        TELAPSE      183.87 TCPU     5341.96
 DIIS TEST: 0.31159E-05 AT SCF   CYCLE   8 - DIIS ACTIVE - HISTORY:     8 CYCLES
 TTTTTTTTTTTTTTTTTTTTTTTTTTTTTT FDIK        TELAPSE      184.36 TCPU     5357.71
 INSULATING STATE
 TOP OF VALENCE BANDS -    BAND     99; K    1; EIG -1.7239797E-01 AU
 BOTTOM OF VIRTUAL BANDS - BAND    100; K   17; EIG -1.3611725E-01 AU
 INDIRECT ENERGY BAND GAP:   0.9872 eV
 BOTTOM OF VIRTUAL BANDS - BAND    100; K    1; EIG  4.1107622E-04 AU
 TTTTTTTTTTTTTTTTTTTTTTTTTTTTTT PDIG        TELAPSE      184.65 TCPU     5363.73
 CHARGE NORMALIZATION FACTOR   1.00000000
 TOTAL ATOMIC CHARGES:
   4.4580458   4.4575565   4.4581441   4.4585799   4.4576831   4.4577881
   0.8876912   0.8877413   0.8878086   0.8879750   0.8872432   0.8870299
   0.8887185   0.8883133   0.8867970   0.8878460   0.8882145   0.8880387
   5.9336419   6.1663987   6.1659176   6.1662375   6.1662476   5.9337031
   5.9336278   6.1646738   6.1648907   6.1681995   6.1671645   5.9329148
   5.9338723   6.1645324   6.1658638   6.1670213   6.1668625   5.9331164
   8.5008758   8.5000622   8.5010242   8.4993617   8.4988800   8.5036952
 TTTTTTTTTTTTTTTTTTTTTTTTTTTTTT MOQGAD      TELAPSE      184.71 TCPU     5363.80
 TTTTTTTTTTTTTTTTTTTTTTTTTTTTTT SHELLXN     TELAPSE      201.65 TCPU     5904.17
 TTTTTTTTTTTTTTTTTTTTTTTTTTTTTT MONMO3      TELAPSE      201.86 TCPU     5910.76
 NUMERICALLY INTEGRATED DENSITY    197.9998919775
 TTTTTTTTTTTTTTTTTTTTTTTTTTTTTT NUMDFT      TELAPSE      202.60 TCPU     5934.38
 CYC   9 ETOT(AU) -1.289033426131E+03 DETOT -7.60E-07 tst  3.89E-08 PX  2.47E-04
 TTTTTTTTTTTTTTTTTTTTTTTTTTTTTT DIIS        TELAPSE      202.69 TCPU     5937.23
 DIIS TEST: 0.35008E-06 AT SCF   CYCLE   9 - DIIS ACTIVE - HISTORY:     9 CYCLES
 TTTTTTTTTTTTTTTTTTTTTTTTTTTTTT FDIK        TELAPSE      203.18 TCPU     5952.96
 INSULATING STATE
 TOP OF VALENCE BANDS -    BAND     99; K    1; EIG -1.7238743E-01 AU
 BOTTOM OF VIRTUAL BANDS - BAND    100; K   17; EIG -1.3611641E-01 AU
 INDIRECT ENERGY BAND GAP:   0.9870 eV
 BOTTOM OF VIRTUAL BANDS - BAND    100; K    1; EIG  4.1565338E-04 AU
 TTTTTTTTTTTTTTTTTTTTTTTTTTTTTT PDIG        TELAPSE      203.47 TCPU     5958.98
 CHARGE NORMALIZATION FACTOR   1.00000000
 TOTAL ATOMIC CHARGES:
   4.4580578   4.4575500   4.4581444   4.4585315   4.4576242   4.4577166
   0.8876954   0.8877632   0.8878249   0.8879847   0.8872616   0.8870394
   0.8887283   0.8883321   0.8868217   0.8878498   0.8882221   0.8880602
   5.9336859   6.1664948   6.1657928   6.1661648   6.1662964   5.9335889
   5.9333996   6.1645229   6.1650259   6.1681563   6.1671530   5.9330825
   5.9337131   6.1643351   6.1660399   6.1670845   6.1667457   5.9332170
   8.5009983   8.5001280   8.5010443   8.4994108   8.4989796   8.5037322
 TTTTTTTTTTTTTTTTTTTTTTTTTTTTTT MOQGAD      TELAPSE      203.53 TCPU     5959.04
 TTTTTTTTTTTTTTTTTTTTTTTTTTTTTT SHELLXN     TELAPSE      220.47 TCPU     6499.28
 +++ ENERGIES IN A.U. +++
 ::: EXT EL-POLE                                  -1.6876603414633E+03
 ::: EXT EL-SPHEROPOLE                             1.8919604706942E+01
 ::: BIELET ZONE E-E                               2.7135036744805E+03
 ::: TOTAL E-E                                     1.0447629377242E+03
 ::: TOTAL E-N + N-E                              -3.9088288356613E+03
 ::: TOTAL N-N                                     4.2845532627078E+02
 ::: KINETIC ENERGY                                1.2804113037812E+03
 ::: PSEUDO TOTAL   ENERGY                        -1.1551992678852E+03
 ::: VIRIAL COEFFICIENT                            1.0514088899731E+00
 TTTTTTTTTTTTTTTTTTTTTTTTTTTTTT MONMO3      TELAPSE      220.67 TCPU     6505.83
 NUMERICALLY INTEGRATED DENSITY    197.9998919769
 EXCHANGE ENERGY: -0.126081589556E+03  CORRELATION ENERGY: -0.775256876185E+01
 TTTTTTTTTTTTTTTTTTTTTTTTTTTTTT NUMDFT      TELAPSE      221.42 TCPU     6529.53
 CYC  10 ETOT(AU) -1.289033426203E+03 DETOT -7.18E-08 tst  2.40E-09 PX  2.47E-04

 == SCF ENDED - CONVERGENCE ON ENERGY      E(AU) -1.2890334262027E+03 CYCLES  10


 ENERGY EXPRESSION=HARTREE+FOCK EXCH*0.00000+(HSESOL     EXCH)*1.00000+PBESOL     CORR


 TOTAL ENERGY(DFT)(AU)( 10) -1.2890334262027E+03 DE-7.2E-08 tester 2.4E-09
 TTTTTTTTTTTTTTTTTTTTTTTTTTTTTT EDFT        TELAPSE      221.42 TCPU     6529.54
 
 INFORMATION **** DFTD3 ENERGY **** CALCULATE DFTD3 ENERGY

           DFT-D V3(BJ)
 DF                                         hsesol3c  
 parameters
 s6       :    1.0000
 s8       :    0.0000
 a1       :    0.5196
 a2       :    4.9385
 k1 k3    :   16.0000   -4.0000
 Cutoff   :   50.2022
 CN-Cutoff:   21.1671
 ABC-Cutoff:   21.1671
 
 Edisp /kcal,au:   -36.1573 -0.05762037

 E6    /kcal :   -38.9679
 E8    /kcal :     0.0000
 E6(ABC) "   :   2.810548
 
 INFORMATION **** DFTD3 ENERGY **** NORMAL TERMINATION OF DFTD3 MODULE

 GCP ENERGY CALCULATION
  level        hsesol3c            basis:hsesol3c
  Nbf            474
  Atoms           42

  Parameters: 
  sigma     1.0000
  eta       1.4281
  alpha     0.2936
  beta      1.9467

  dmp_scal      4.0000
  dmp_exp       6.0000
 cutoffs: 
   distance [bohr] 60.0
   noise    [a.u.] 2.2E-16
 SR-damping   T
 ** gCP correction **
  Egcp:        0.0892351558 / (a.u.) ||      55.9959 / (kcal/mol)
 INFORMATION **** GCP **** NORMAL TERMINATION OF GCP MODULE

 *******************************************************************************

 DFT-D3-GCP DISPERSION AND COUNTERPOISE CORRECTION

 D3 DISPERSION ENERGY (AU)      -5.7620374300643E-02
 GCP ENERGY (AU)                 8.9235155846368E-02
 TOTAL ENERGY + DISP + GCP (AU) -1.2890018114211E+03

 *******************************************************************************

 EIGENVECTORS IN FORTRAN UNIT  8
 TTTTTTTTTTTTTTTTTTTTTTTTTTTTTT END         TELAPSE      223.15 TCPU     6537.04
 EEEEEEEEEE TERMINATION  DATE 02 12 2025 TIME 07:55:24.6
