 Default number of threads is:           32

         
 *******************************************************************************
 *                                                                             *
 *                               CRYSTAL23                                     *
 *                      public : 1.0.1 - October 2022                          *
 *                       HTTP://WWW.CRYSTAL.UNITO.IT                           *
 *                                                                             *
 *                              MAIN AUTHORS                                   *
 *                                                                             *
 *  R. DOVESI(1,11), V.R. SAUNDERS(2), C. ROETTI(1,11), R. ORLANDO(1,11),      *
 *  C.M. ZICOVICH-WILSON(1,3), F. PASCALE(4), B. CIVALLERI(1,11),              *
 *  K. DOLL(5), N.M. HARRISON(6), I.J. BUSH(7), Ph. D'ARCO(8),                 *
 *  M. LLUNELL(9), M. CAUSA'(10), Y. NOEL(8), L. MASCHIO(1,11), A. ERBA(1,11)  *
 *  M. RE'RAT(14), S. CASASSA(1,11), B.G. SEARLE(2), J.K. DESMARAIS(1)         *
 *                                                                             *
 *        CONTRIBUTIONS TO THE CODE HAVE ALSO BEEN GIVEN BY                    *
 *                                                                             *
 *  M. FERRABONE(1,11), M. DE LA PIERRE(1,11), M. FERRERO(1,11),               *
 *  J. BAIMA(1,11), E. ALBANESE(1,11), M.F. PEINTINGER(12), R. BAST(13),       *
 *  B. KIRTMAN(15), V. LACIVITA(1,11), R. DEMICHELIS(1,16)                     *
 *  G. BRANDEBURG(17), S. SALUSTRO(1,11), G. SANSONE(1,11)                     *
 *  M.T. RUGGIERO(18), L.E. DAGA(1), L. DONA'(1), A. COSSARD(1)                *
 *                                                                             *
 * (1) THEORETICAL CHEMISTRY GROUP - UNIVERSITA' DI TORINO - TORINO (ITALY)    *
 * (2) SCIENTIFIC COMPUTING DEPARTMENT - STFC DARESBURY (UK)                   *
 * (3) UNIVERSIDAD AUTONOMA DEL ESTADO DE MORELOS - CUERNAVACA (MEXICO)        *
 * (4) UNIVERSITE' DE LORRAINE - NANCY (FRANCE)                                *
 * (5) UNIVERSITAET STUTTGART- STUTTGART (GERMANY)                             *
 * (6) IMPERIAL COLLEGE - LONDON (UK)                                          *
 * (7) SCIENTIFIC COMPUTING DEPARTMENT - STFC RAL (UK)                         *
 * (8) UPMC - SORBONNE UNIVERSITES - PARIS (FRANCE)                            *
 * (9) UNIVERSIDAD DE BARCELONA - BARCELONA (SPAIN)                            *
 *(10) UNIVERSITA' DI NAPOLI "FEDERICO II" - NAPOLI (ITALY)                    *
 *(11) NIS - NANOSTRUCTURED INTERFACES AND SURFACES - TORINO (ITALY)           *
 *(12) MPI FUER CHEMISCHE ENERGIEKONVERSION - MUELHEIM AN DER RUHR (GERMANY)   *
 *(13) UNIVERSITY OF TROMSO - TROMSO (NORWAY)                                  *
 *(14) UNIVERSITE' DE PAU ET DES PAYS DE L'ADOUR - PAU (FRANCE)                *
 *(15) UNIVERSITY OF CALIFORNIA SANTA BARBARA - SANTA BARBARA (USA)            *
 *(16) CURTIN UNIVERSITY - PERTH (AUSTRALIA)                                   *
 *(17) UNIVERSITY COLLEGE LONDON - LONDON (UK)                                 *
 *(18) UNIVERSITY OF VERMONT - BURLINGTON (USA)                                *
 *                                                                             *
 *******************************************************************************
 EEEEEEEEEE STARTING  DATE 02 12 2025 TIME 07:54:50.9
 COF-5_z31_inc_L010                                                              

 CRYSTAL CALCULATION
 (INPUT ACCORDING TO THE INTERNATIONAL TABLES FOR X-RAY CRYSTALLOGRAPHY)
 CRYSTAL FAMILY                       :  TRICLINIC   
 CRYSTAL CLASS  (GROTH - 1921)        :  TRICLINIC PEDIAL                     

 SPACE GROUP (NONCENTROSYMMETRIC)     :  P 1             

 LATTICE PARAMETERS  (ANGSTROMS AND DEGREES) - CONVENTIONAL CELL
        A           B           C        ALPHA        BETA       GAMMA
    15.02070    15.04439     3.25730    74.59294    89.99932   120.05310


 NUMBER OF IRREDUCIBLE ATOMS IN THE CONVENTIONAL CELL:   42

 INPUT COORDINATES

 ATOM AT. N.              COORDINATES
   1   5     5.963313400000E-01  1.896273300000E-01  5.006605200000E-01
   2   5     7.551103600000E-01  3.486532800000E-01  5.006705100000E-01
   3   5     5.959337300000E-01  3.484504800000E-01  4.992405200000E-01
   4   5     2.093201600000E-01  5.755430200000E-01  5.054555900000E-01
   5   5     3.677389800000E-01  5.747316500000E-01  5.094995400000E-01
   6   5     3.682413300000E-01  7.345282900000E-01  5.035338200000E-01
   7   1     8.849861800000E-01  2.708014800000E-01  5.045589800000E-01
   8   1     7.988055000000E-02  6.535829400000E-01  4.929684800000E-01
   9   1     8.855036000000E-01  5.562940800000E-01  4.928301800000E-01
  10   1     7.944218000000E-02  3.680483700000E-01  5.041275400000E-01
  11   1     5.749769300000E-01  8.645057600000E-01  5.042496100000E-01
  12   1     3.892089500000E-01  6.065361000000E-02  4.946007300000E-01
  13   1     2.908183200000E-01  8.668414100000E-01  4.959075900000E-01
  14   1     6.731502000000E-01  5.833872000000E-02  5.023882600000E-01
  15   1     5.748226500000E-01  6.523365100000E-01  4.978051000000E-01
  16   1     3.871933300000E-01  2.700872400000E-01  5.060883500000E-01
  17   1     2.898433300000E-01  3.660367300000E-01  5.057234600000E-01
  18   1     6.725781100000E-01  5.564055800000E-01  4.987385600000E-01
  19   6     8.744125000000E-01  4.081015700000E-01  5.004205200000E-01
  20   6     9.288686800000E-01  3.547894600000E-01  5.021866300000E-01
  21   6     3.613201000000E-02  5.696167100000E-01  4.957936400000E-01
  22   6     9.291405400000E-01  5.160659100000E-01  4.961308100000E-01
  23   6     3.592411000000E-02  4.084038400000E-01  5.015429100000E-01
  24   6     9.050951000000E-02  5.162436100000E-01  4.993596200000E-01
  25   6     4.272672500000E-01  8.540296800000E-01  5.019020000000E-01
  26   6     5.351254800000E-01  9.084817500000E-01  5.022921800000E-01
  27   6     4.288692500000E-01  1.643203000000E-02  4.970157400000E-01
  28   6     3.747078500000E-01  9.093909100000E-01  4.981344300000E-01
  29   6     5.892641500000E-01  1.545867000000E-02  5.008547600000E-01
  30   6     5.366472400000E-01  7.057665000000E-02  4.992304800000E-01
  31   6     4.269410900000E-01  5.151221200000E-01  5.000017000000E-01
  32   6     5.348115200000E-01  5.684194600000E-01  4.994502100000E-01
  33   6     4.277997100000E-01  3.540426400000E-01  5.039738100000E-01
  34   6     3.739216600000E-01  4.071349200000E-01  5.033658600000E-01
  35   6     5.885890200000E-01  5.152828700000E-01  5.003885900000E-01
  36   6     5.357865700000E-01  4.074641900000E-01  5.016304500000E-01
  37   8     5.432542900000E-01  2.425218700000E-01  4.996303900000E-01
  38   8     7.022985700000E-01  2.425894600000E-01  5.026204700000E-01
  39   8     7.020810900000E-01  4.016803500000E-01  4.981007000000E-01
  40   8     2.622623500000E-01  6.816111500000E-01  5.027671500000E-01
  41   8     2.617341400000E-01  5.219745000000E-01  5.102550000000E-01
  42   8     4.209756400000E-01  6.811316800000E-01  5.052389100000E-01

 *******************************************************************************

 << INFORMATION >>: FROM NOW ON, ALL COORDINATES REFER TO THE PRIMITIVE CELL

 *******************************************************************************

 LATTICE PARAMETERS  (ANGSTROMS AND DEGREES) - PRIMITIVE CELL
       A          B          C        ALPHA      BETA     GAMMA        VOLUME
   15.02070   15.04439    3.25730    74.59294  89.99932 120.05310    606.362923

 COORDINATES OF THE EQUIVALENT ATOMS (FRACTIONAL UNITS)

 N. ATOM EQUIV AT. N.          X                  Y                  Z

   1   1   1    5 B    -4.03668660000E-01  1.89627330000E-01 -4.99339480000E-01

   2   2   1    5 B    -2.44889640000E-01  3.48653280000E-01 -4.99329490000E-01

   3   3   1    5 B    -4.04066270000E-01  3.48450480000E-01  4.99240520000E-01

   4   4   1    5 B     2.09320160000E-01 -4.24456980000E-01 -4.94544410000E-01

   5   5   1    5 B     3.67738980000E-01 -4.25268350000E-01 -4.90500460000E-01

   6   6   1    5 B     3.68241330000E-01 -2.65471710000E-01 -4.96466180000E-01

   7   7   1    1 H    -1.15013820000E-01  2.70801480000E-01 -4.95441020000E-01

   8   8   1    1 H     7.98805500000E-02 -3.46417060000E-01  4.92968480000E-01

   9   9   1    1 H    -1.14496400000E-01 -4.43705920000E-01  4.92830180000E-01

  10  10   1    1 H     7.94421800000E-02  3.68048370000E-01 -4.95872460000E-01

  11  11   1    1 H    -4.25023070000E-01 -1.35494240000E-01 -4.95750390000E-01

  12  12   1    1 H     3.89208950000E-01  6.06536100000E-02  4.94600730000E-01

  13  13   1    1 H     2.90818320000E-01 -1.33158590000E-01  4.95907590000E-01

  14  14   1    1 H    -3.26849800000E-01  5.83387200000E-02 -4.97611740000E-01

  15  15   1    1 H    -4.25177350000E-01 -3.47663490000E-01  4.97805100000E-01

  16  16   1    1 H     3.87193330000E-01  2.70087240000E-01 -4.93911650000E-01

  17  17   1    1 H     2.89843330000E-01  3.66036730000E-01 -4.94276540000E-01

  18  18   1    1 H    -3.27421890000E-01 -4.43594420000E-01  4.98738560000E-01

  19  19   1    6 C    -1.25587500000E-01  4.08101570000E-01 -4.99579480000E-01

  20  20   1    6 C    -7.11313200000E-02  3.54789460000E-01 -4.97813370000E-01

  21  21   1    6 C     3.61320100000E-02 -4.30383290000E-01  4.95793640000E-01

  22  22   1    6 C    -7.08594600000E-02 -4.83934090000E-01  4.96130810000E-01

  23  23   1    6 C     3.59241100000E-02  4.08403840000E-01 -4.98457090000E-01

  24  24   1    6 C     9.05095100000E-02 -4.83756390000E-01  4.99359620000E-01

  25  25   1    6 C     4.27267250000E-01 -1.45970320000E-01 -4.98098000000E-01

  26  26   1    6 C    -4.64874520000E-01 -9.15182500000E-02 -4.97707820000E-01

  27  27   1    6 C     4.28869250000E-01  1.64320300000E-02  4.97015740000E-01

  28  28   1    6 C     3.74707850000E-01 -9.06090900000E-02  4.98134430000E-01

  29  29   1    6 C    -4.10735850000E-01  1.54586700000E-02 -4.99145240000E-01

  30  30   1    6 C    -4.63352760000E-01  7.05766500000E-02  4.99230480000E-01

  31  31   1    6 C     4.26941090000E-01 -4.84877880000E-01 -4.99998300000E-01

  32  32   1    6 C    -4.65188480000E-01 -4.31580540000E-01  4.99450210000E-01

  33  33   1    6 C     4.27799710000E-01  3.54042640000E-01 -4.96026190000E-01

  34  34   1    6 C     3.73921660000E-01  4.07134920000E-01 -4.96634140000E-01

  35  35   1    6 C    -4.11410980000E-01 -4.84717130000E-01 -4.99611410000E-01

  36  36   1    6 C    -4.64213430000E-01  4.07464190000E-01 -4.98369550000E-01

  37  37   1    8 O    -4.56745710000E-01  2.42521870000E-01  4.99630390000E-01

  38  38   1    8 O    -2.97701430000E-01  2.42589460000E-01 -4.97379530000E-01

  39  39   1    8 O    -2.97918910000E-01  4.01680350000E-01  4.98100700000E-01

  40  40   1    8 O     2.62262350000E-01 -3.18388850000E-01 -4.97232850000E-01

  41  41   1    8 O     2.61734140000E-01 -4.78025500000E-01 -4.89745000000E-01

  42  42   1    8 O     4.20975640000E-01 -3.18868320000E-01 -4.94761090000E-01

 NUMBER OF SYMMETRY OPERATORS         :    1
 *******************************************************************************
 * GEOMETRY EDITING - INPUT COORDINATES ARE GIVEN IN ANGSTROM         
 *******************************************************************************

 GCALCO - MAX INDICES DIRECT LATTICE VECTOR     9     9    38
 NO.OF VECTORS CREATED 6999 STARS 3500 RMAX   189.95064 BOHR

 GEOMETRY FOR WAVE FUNCTION - DIMENSIONALITY OF THE SYSTEM    3
 (NON PERIODIC DIRECTION: LATTICE PARAMETER FORMALLY SET TO 500)
 *******************************************************************************
 LATTICE PARAMETERS (ANGSTROMS AND DEGREES) - BOHR = 0.5291772083 ANGSTROM
 PRIMITIVE CELL - CENTRING CODE 1/0 VOLUME=   606.362923 - DENSITY  1.068 g/cm^3
         A              B              C           ALPHA      BETA       GAMMA 
    15.02070100    15.04438700     3.25729900    74.592939  89.999321 120.053104
 *******************************************************************************
 ATOMS IN THE ASYMMETRIC UNIT   42 - ATOMS IN THE UNIT CELL:   42
     ATOM                 X/A                 Y/B                 Z/C    
 *******************************************************************************
      1 T   5 B    -4.036686600000E-01  1.896273300000E-01 -4.993394800000E-01
      2 T   5 B    -2.448896400000E-01  3.486532800000E-01 -4.993294900000E-01
      3 T   5 B    -4.040662700000E-01  3.484504800000E-01  4.992405200000E-01
      4 T   5 B     2.093201600000E-01 -4.244569800000E-01 -4.945444100000E-01
      5 T   5 B     3.677389800000E-01 -4.252683500000E-01 -4.905004600000E-01
      6 T   5 B     3.682413300000E-01 -2.654717100000E-01 -4.964661800000E-01
      7 T   1 H    -1.150138200000E-01  2.708014800000E-01 -4.954410200000E-01
      8 T   1 H     7.988055000000E-02 -3.464170600000E-01  4.929684800000E-01
      9 T   1 H    -1.144964000000E-01 -4.437059200000E-01  4.928301800000E-01
     10 T   1 H     7.944218000000E-02  3.680483700000E-01 -4.958724600000E-01
     11 T   1 H    -4.250230700000E-01 -1.354942400000E-01 -4.957503900000E-01
     12 T   1 H     3.892089500000E-01  6.065361000000E-02  4.946007300000E-01
     13 T   1 H     2.908183200000E-01 -1.331585900000E-01  4.959075900000E-01
     14 T   1 H    -3.268498000000E-01  5.833872000000E-02 -4.976117400000E-01
     15 T   1 H    -4.251773500000E-01 -3.476634900000E-01  4.978051000000E-01
     16 T   1 H     3.871933300000E-01  2.700872400000E-01 -4.939116500000E-01
     17 T   1 H     2.898433300000E-01  3.660367300000E-01 -4.942765400000E-01
     18 T   1 H    -3.274218900000E-01 -4.435944200000E-01  4.987385600000E-01
     19 T   6 C    -1.255875000000E-01  4.081015700000E-01 -4.995794800000E-01
     20 T   6 C    -7.113132000000E-02  3.547894600000E-01 -4.978133700000E-01
     21 T   6 C     3.613201000000E-02 -4.303832900000E-01  4.957936400000E-01
     22 T   6 C    -7.085946000000E-02 -4.839340900000E-01  4.961308100000E-01
     23 T   6 C     3.592411000000E-02  4.084038400000E-01 -4.984570900000E-01
     24 T   6 C     9.050951000000E-02 -4.837563900000E-01  4.993596200000E-01
     25 T   6 C     4.272672500000E-01 -1.459703200000E-01 -4.980980000000E-01
     26 T   6 C    -4.648745200000E-01 -9.151825000000E-02 -4.977078200000E-01
     27 T   6 C     4.288692500000E-01  1.643203000000E-02  4.970157400000E-01
     28 T   6 C     3.747078500000E-01 -9.060909000000E-02  4.981344300000E-01
     29 T   6 C    -4.107358500000E-01  1.545867000000E-02 -4.991452400000E-01
     30 T   6 C    -4.633527600000E-01  7.057665000000E-02  4.992304800000E-01
     31 T   6 C     4.269410900000E-01 -4.848778800000E-01 -4.999983000000E-01
     32 T   6 C    -4.651884800000E-01 -4.315805400000E-01  4.994502100000E-01
     33 T   6 C     4.277997100000E-01  3.540426400000E-01 -4.960261900000E-01
     34 T   6 C     3.739216600000E-01  4.071349200000E-01 -4.966341400000E-01
     35 T   6 C    -4.114109800000E-01 -4.847171300000E-01 -4.996114100000E-01
     36 T   6 C    -4.642134300000E-01  4.074641900000E-01 -4.983695500000E-01
     37 T   8 O    -4.567457100000E-01  2.425218700000E-01  4.996303900000E-01
     38 T   8 O    -2.977014300000E-01  2.425894600000E-01 -4.973795300000E-01
     39 T   8 O    -2.979189100000E-01  4.016803500000E-01  4.981007000000E-01
     40 T   8 O     2.622623500000E-01 -3.183888500000E-01 -4.972328500000E-01
     41 T   8 O     2.617341400000E-01 -4.780255000000E-01 -4.897450000000E-01
     42 T   8 O     4.209756400000E-01 -3.188683200000E-01 -4.947610900000E-01

 T = ATOM BELONGING TO THE ASYMMETRIC UNIT

 ****    1 SYMMOPS - TRANSLATORS IN FRACTIONAL UNITS
 **** MATRICES AND TRANSLATORS IN THE CRYSTALLOGRAPHIC REFERENCE FRAME
   V INV                    ROTATION MATRICES                   TRANSLATORS
   1   1  1.00  0.00  0.00  0.00  1.00  0.00  0.00  0.00  1.00  0.00  0.00  0.00

 DIRECT LATTICE VECTORS CARTESIAN COMPONENTS (ANGSTROM)
          X                    Y                    Z
   0.130013421718E+02  -0.752240388864E+01   0.000000000000E+00
   0.000000000000E+00   0.150443870000E+02   0.000000000000E+00
   0.500743520344E+00   0.865382678500E+00   0.310005895460E+01


 CARTESIAN COORDINATES - PRIMITIVE CELL
 *******************************************************************************
 *      ATOM          X(ANGSTROM)         Y(ANGSTROM)         Z(ANGSTROM)
 *******************************************************************************
    1     5 B    -5.498275381743E+00  5.457265899320E+00 -1.547981826359E+00
    2     5 B    -3.433930010597E+00  6.655322561853E+00 -1.547950856770E+00
    3     5 B     7.497186270571E+00  3.260210834439E-01 -1.552383910074E+00
    4     5 B     2.473803114781E+00  6.656130976310E+00 -1.533116826667E+00
    5     5 B     4.535485381808E+00  5.455733628711E+00 -1.520580343258E+00
    6     5 B    -7.961569341016E+00  1.194234178967E+00  1.560984527634E+00
    7     1 H    -1.743422908780E+00  4.510476595182E+00 -1.535896370526E+00
    8     1 H     1.285405135513E+00 -5.385919690350E+00  1.528231350759E+00
    9     1 H    -1.241825354571E+00 -5.387508708861E+00  1.527802612605E+00
   10     1 H     7.845500437897E-01  4.510346511616E+00 -1.537233859962E+00
   11     1 H    -5.273370639124E+00  1.595136289834E+00  1.563203518833E+00
   12     1 H     4.807163325628E+00 -2.452654311172E+00 -1.566767532611E+00
   13     1 H     4.029351000522E+00 -3.761792383068E+00  1.537342765033E+00
   14     1 H    -4.498661943028E+00  2.905741906872E+00 -1.542625730500E+00
   15     1 H    -5.278603532819E+00 -1.601236427519E+00  1.543225157900E+00
   16     1 H     4.786709911599E+00  7.232497644541E-01 -1.531155233363E+00
   17     1 H     3.520846534873E+00  2.898741273540E+00 -1.532286413875E+00
   18     1 H    -4.007183924153E+00 -3.779006716034E+00  1.546118938932E+00
   19     6 C    -1.882967247504E+00  6.652030424226E+00 -1.548725840508E+00
   20     6 C    -1.174079449818E+00  5.441869390409E+00 -1.543250795387E+00
   21     6 C     7.180300780216E-01 -6.317601117455E+00  1.536989513315E+00
   22     6 C    -6.728337972167E-01 -6.318115245757E+00  1.538034760193E+00
   23     6 C     2.174624883395E-01  5.442593624824E+00 -1.545246365338E+00
   24     6 C     9.260526830022E-01  6.652474052124E+00 -1.552014693053E+00
   25     6 C    -7.194970281383E+00  2.546630378264E+00  1.555925789431E+00
   26     6 C    -5.792473147005E+00  2.554812878534E+00  1.557135370434E+00
   27     6 C     5.324009757172E+00 -3.414191761566E+00 -1.559280859235E+00
   28     6 C     5.121142560382E+00 -3.750785096336E+00  1.544246100315E+00
   29     6 C    -5.590061072705E+00  2.890335524478E+00 -1.547379670907E+00
   30     6 C    -6.274964871321E+00  4.113951770872E+00 -1.552415034666E+00
   31     6 C     5.300436289372E+00  4.105383341804E+00 -1.550024207199E+00
   32     6 C    -5.797978146456E+00 -2.561313474018E+00  1.548325095887E+00
   33     6 C     5.313588510132E+00  1.679019815689E+00 -1.537710432025E+00
   34     6 C     4.612797119511E+00  2.882526966155E+00 -1.539595112866E+00
   35     6 C    -5.098328580108E+00 -3.764444915162E+00  1.551234129208E+00
   36     6 C     6.716389204712E+00  1.668365609289E+00 -1.544974986177E+00
   37     8 O     6.812478070590E+00 -8.709965087158E-01 -1.551175290089E+00
   38     8 O    -4.119577733255E+00  5.458616483145E+00 -1.541905865810E+00
   39     8 O    -3.623924990348E+00 -6.329238279292E+00  1.544141535327E+00
   40     8 O     3.661519943728E+00 -6.327722414440E+00  1.558607805435E+00
   41     8 O     3.157658476804E+00  5.460099629723E+00 -1.518238372720E+00
   42     8 O    -7.275098719744E+00 -4.298309618954E-03  1.566270407157E+00

 *******************************************************************************
 STARTING BASIS SET HANDLING 
 *******************************************************************************

 Loading internal basis set: SOLDEF2MSVP         

 Please cite in your publication:
 L. Dona', J. G. Brandenburg and B. Civalleri, J. Chem. Phys., 151, 121101 (2019
 )                                                                              
                                                                                
                    

 *******************************************************************************
 LOCAL ATOMIC FUNCTIONS BASIS SET
 *******************************************************************************
   ATOM   X(AU)   Y(AU)   Z(AU)  N. TYPE  EXPONENT  S COEF   P COEF   D/F/G COEF
 *******************************************************************************
   1 B  -10.390  10.313  -2.925
                                  1 S  
                                         2.410E+03 1.755E-03 0.000E+00 0.000E+00
                                         3.619E+02 1.344E-02 0.000E+00 0.000E+00
                                         8.231E+01 6.637E-02 0.000E+00 0.000E+00
                                         2.311E+01 2.303E-01 0.000E+00 0.000E+00
                                         7.252E+00 5.150E-01 0.000E+00 0.000E+00
                                  2 S  
                                         2.367E+00 1.000E+00 0.000E+00 0.000E+00
                                  3 S  
                                         5.533E-01 1.000E+00 0.000E+00 0.000E+00
                                  4 S  
                                         1.716E-01 1.000E+00 0.000E+00 0.000E+00
                           5-     7 P  
                                         6.002E+00 0.000E+00-3.555E-02 0.000E+00
                                         1.240E+00 0.000E+00-1.983E-01 0.000E+00
                                         3.367E-01 0.000E+00-5.048E-01 0.000E+00
                           8-    10 P  
                                         1.256E-01 0.000E+00 1.000E+00 0.000E+00
                          11-    15 D  
                                         8.880E-01 0.000E+00 0.000E+00 1.000E+00
   2 B   -6.489  12.577  -2.925
   3 B   14.168   0.616  -2.934
   4 B    4.675  12.578  -2.897
   5 B    8.571  10.310  -2.873
   6 B  -15.045   2.257   2.950
   7 H   -3.295   8.524  -2.902
                                 91 S  
                                         1.874E+01 1.968E-02 0.000E+00 0.000E+00
                                         2.826E+00 1.380E-01 0.000E+00 0.000E+00
                                         6.401E-01 4.783E-01 0.000E+00 0.000E+00
                                 92 S  
                                         1.756E-01 1.000E+00 0.000E+00 0.000E+00
   8 H    2.429 -10.178   2.888
   9 H   -2.347 -10.181   2.887
  10 H    1.483   8.523  -2.905
  11 H   -9.965   3.014   2.954
  12 H    9.084  -4.635  -2.961
  13 H    7.614  -7.109   2.905
  14 H   -8.501   5.491  -2.915
  15 H   -9.975  -3.026   2.916
  16 H    9.046   1.367  -2.893
  17 H    6.653   5.478  -2.896
  18 H   -7.572  -7.141   2.922
  19 C   -3.558  12.571  -2.927
                                115 S  
                                         3.624E+03 1.634E-03 0.000E+00 0.000E+00
                                         5.440E+02 1.252E-02 0.000E+00 0.000E+00
                                         1.237E+02 6.211E-02 0.000E+00 0.000E+00
                                         3.476E+01 2.182E-01 0.000E+00 0.000E+00
                                         1.093E+01 4.980E-01 0.000E+00 0.000E+00
                                116 S  
                                         3.574E+00 1.000E+00 0.000E+00 0.000E+00
                                117 S  
                                         7.742E-01 1.000E+00 0.000E+00 0.000E+00
                                118 S  
                                         2.330E-01 1.000E+00 0.000E+00 0.000E+00
                         119-   121 P  
                                         9.443E+00 0.000E+00 3.790E-02 0.000E+00
                                         2.002E+00 0.000E+00 2.082E-01 0.000E+00
                                         5.463E-01 0.000E+00 5.047E-01 0.000E+00
                         122-   124 P  
                                         1.820E-01 0.000E+00 1.000E+00 0.000E+00
                         125-   129 D  
                                         8.880E-01 0.000E+00 0.000E+00 1.000E+00
  20 C   -2.219  10.284  -2.916
  21 C    1.357 -11.939   2.904
  22 C   -1.271 -11.940   2.906
  23 C    0.411  10.285  -2.920
  24 C    1.750  12.571  -2.933
  25 C  -13.597   4.812   2.940
  26 C  -10.946   4.828   2.943
  27 C   10.061  -6.452  -2.947
  28 C    9.678  -7.088   2.918
  29 C  -10.564   5.462  -2.924
  30 C  -11.858   7.774  -2.934
  31 C   10.016   7.758  -2.929
  32 C  -10.957  -4.840   2.926
  33 C   10.041   3.173  -2.906
  34 C    8.717   5.447  -2.909
  35 C   -9.634  -7.114   2.931
  36 C   12.692   3.153  -2.920
  37 O   12.874  -1.646  -2.931
                                385 S  
                                         6.773E+03 1.727E-03 0.000E+00 0.000E+00
                                         1.017E+03 1.325E-02 0.000E+00 0.000E+00
                                         2.313E+02 6.603E-02 0.000E+00 0.000E+00
                                         6.501E+01 2.353E-01 0.000E+00 0.000E+00
                                         2.050E+01 5.498E-01 0.000E+00 0.000E+00
                                386 S  
                                         6.716E+00 1.000E+00 0.000E+00 0.000E+00
                                387 S  
                                         1.147E+00 1.000E+00 0.000E+00 0.000E+00
                                388 S  
                                         3.342E-01 1.000E+00 0.000E+00 0.000E+00
                         389-   391 P  
                                         1.769E+01 0.000E+00 4.359E-02 0.000E+00
                                         3.854E+00 0.000E+00 2.318E-01 0.000E+00
                                         1.047E+00 0.000E+00 5.146E-01 0.000E+00
                         392-   394 P  
                                         2.759E-01 0.000E+00 1.000E+00 0.000E+00
                         395-   399 D  
                                         8.000E-01 0.000E+00 0.000E+00 1.000E+00
  38 O   -7.785  10.315  -2.914
  39 O   -6.848 -11.961   2.918
  40 O    6.919 -11.958   2.945
  41 O    5.967  10.318  -2.869
  42 O  -13.748  -0.008   2.960

 *******************************************************************************
 FINISHED BASIS SET HANDLING 
 *******************************************************************************

 INFORMATION **** SET_MPP **** PCRYSTAL CALCULATION
 INFORMATION **** READM2 **** NEW DEFAULT: FOCK/KS MATRIX MIXING SET TO 30 %
 INFORMATION **** READM2 **** NEW DEFAULT: FULL DIRECT SCF MODE
 INFORMATION **** READM2 **** NEW DEFAULT: COULOMB BIPOLAR BUFFER SET TO 32 Mb
 INFORMATION **** READM2 **** NEW DEFAULT: EXCHANGE BIPOLAR BUFFER SET TO 32 Mb

 *******************************************************************************
 NEW DEFAULT: DFT INTEGRATION GRID INCREASED TO XLGRID
 NEW DEFAULT: DIIS ACCELERATOR ACTIVE
 USE KEYWORD NODIIS TO TURN IT OFF
 *******************************************************************************

 WARNING **** RDDFTP **** HSEsol-HJS ACTIVE
 RANGE SEPARATION - OMEGA:   0.110000000000000     
 WARNING **** RDDFTP **** HSEsol-3c has to be combined with sol-def2-mSVP basis set
 *******************************************************************************
 N. OF ATOMS PER CELL        42  COULOMB OVERLAP TOL         (T1) 10**   -6
 NUMBER OF SHELLS           234  COULOMB PENETRATION TOL     (T2) 10**   -6
 NUMBER OF AO               474  EXCHANGE OVERLAP TOL        (T3) 10**   -6
 N. OF ELECTRONS PER CELL   198  EXCHANGE PSEUDO OVP (F(G))  (T4) 10**   -6
 CORE ELECTRONS PER CELL     60  EXCHANGE PSEUDO OVP (P(G))  (T5) 10**  -12
 N. OF SYMMETRY OPERATORS     1  POLE ORDER IN MONO ZONE                  4
 *******************************************************************************
 TYPE OF CALCULATION :  RESTRICTED CLOSED SHELL
 KOHN-SHAM HAMILTONIAN

 (EXCHANGE)[CORRELATION] FUNCTIONAL:(HSEsol GGA)[PBEsol]

 RANGE-SEPARATED HYBRID FUNCTIONAL 
 OMEGA (SHORT-RANGE)[LONG-RANGE]:(    0.1100)[    0.0000]

 HYBRID EXCHANGE - PERCENTAGE OF FOCK EXCHANGE    25.0000

 CAPPA:IS1  2;IS2  2;IS3  8; K PTS MONK NET  20; SYMMOPS:K SPACE   2;G SPACE   1

 *******************************************************************************
 MAX NUMBER OF SCF CYCLES      50  CONVERGENCE ON DELTAP        10**-16
 WEIGHT OF F(I) IN F(I+1)      30% CONVERGENCE ON ENERGY        10**- 6
 SHRINK. FACT.(MONKH.)    2  2  8  NUMBER OF K POINTS IN THE IBZ     20
 SHRINKING FACTOR(GILAT NET)    8  NUMBER OF K POINTS(GILAT NET)   1028
 *******************************************************************************
 *** K POINTS COORDINATES (OBLIQUE COORDINATES IN UNITS OF IS =  2)
   1-R(  0  0  0)   2-R(  1  0  0)   3-R(  0  1  0)   4-R(  1  1  0)
   5-C(  0  0  1)   6-C(  1  0  1)   7-C(  0  1  1)   8-C(  1  1  1)
   9-C(  0  0  2)  10-C(  1  0  2)  11-C(  0  1  2)  12-C(  1  1  2)
  13-C(  0  0  3)  14-C(  1  0  3)  15-C(  0  1  3)  16-C(  1  1  3)
  17-R(  0  0  4)  18-R(  1  0  4)  19-R(  0  1  4)  20-R(  1  1  4)

 DIRECT LATTICE VECTORS COMPON. (A.U.)     RECIP. LATTICE VECTORS COMPON. (A.U.) 
        X            Y            Z              X            Y            Z
   24.5689761  -14.2152832    0.0000000      0.2557366    0.0000000   -0.0413084
    0.0000000   28.4297713    0.0000000      0.1278719    0.2210072   -0.0823490
    0.9462681    1.6353363    5.8582624      0.0000000    0.0000000    1.0725339

 DISK SPACE FOR EIGENVECTORS (FTN 10)     7189632 REALS

 SYMMETRY ADAPTION OF THE BLOCH FUNCTIONS DISABLED
 TTTTTTTTTTTTTTTTTTTTTTTTTTTTTT gordsh1     TELAPSE        0.04 TCPU        0.04

 MATRIX SIZE: P(G)  434802, F(G)   88733, P(G) IRR  219912, F(G) IRR   89681
 MAX G-VECTOR INDEX FOR 1- AND 2-ELECTRON INTEGRALS 121

 TTTTTTTTTTTTTTTTTTTTTTTTTTTTTT INPUT       TELAPSE        0.30 TCPU        0.29

 NEIGHBORS OF THE NON-EQUIVALENT ATOMS

 N = NUMBER OF NEIGHBORS AT DISTANCE R
    ATOM  N     R/ANG      R/AU   NEIGHBORS (ATOM LABELS AND CELL INDICES)
   1 B    1     1.3787     2.6054   38 O    0 0 0
   1 B    1     1.3795     2.6068   37 O   -1 0 0
   1 B    1     1.5517     2.9323   30 C    0 0 0
   1 B    1     2.3868     4.5104    2 B    0 0 0
   1 B    1     2.3912     4.5187    3 B   -1 0 0
   1 B    1     2.5629     4.8431   27 C   -1 0 0

   2 B    1     1.3792     2.6064   38 O    0 0 0
   2 B    1     1.3798     2.6075   39 O    0 1-1
   2 B    1     1.5510     2.9309   19 C    0 0 0
   2 B    1     2.3868     4.5104    1 B    0 0 0
   2 B    1     2.3894     4.5154    3 B   -1 0 0
   2 B    1     2.5618     4.8411   22 C    0 1-1

   3 B    1     1.3790     2.6060   37 O    0 0 0
   3 B    1     1.3795     2.6069   39 O    1 1-1
   3 B    1     1.5529     2.9346   36 C    0 0 0
   3 B    1     2.3894     4.5154    2 B    1 0 0
   3 B    1     2.3912     4.5187    1 B    1 0 0
   3 B    1     2.5679     4.8526   35 C    1 1-1

   4 B    1     1.3778     2.6037   41 O    0 0 0
   4 B    1     1.3785     2.6051   40 O    0 1-1
   4 B    1     1.5479     2.9251   24 C    0 0 0
   4 B    1     2.3857     4.5084    5 B    0 0 0
   4 B    1     2.3859     4.5087    6 B    1 1-1
   4 B    1     2.5584     4.8347   21 C    0 1-1

   5 B    1     1.3778     2.6037   41 O    0 0 0
   5 B    1     1.3813     2.6103   42 O    1 1-1
   5 B    1     1.5522     2.9333   31 C    0 0 0
   5 B    1     2.3857     4.5084    4 B    0 0 0
   5 B    1     2.3952     4.5262    6 B    1 1-1
   5 B    1     2.5590     4.8357   32 C    1 1-1

   6 B    1     1.3783     2.6045   40 O   -1 0 0
   6 B    1     1.3812     2.6101   42 O    0 0 0
   6 B    1     1.5546     2.9377   25 C    0 0 0
   6 B    1     2.3859     4.5087    4 B   -1-1 1
   6 B    1     2.3952     4.5262    5 B   -1-1 1
   6 B    1     2.5605     4.8386   26 C    0 0 0

   7 H    1     1.0916     2.0629   20 C    0 0 0
   7 H    1     2.1461     4.0556   19 C    0 0 0
   7 H    1     2.1712     4.1029   23 C    0 0 0
   7 H    1     2.5280     4.7772   10 H    0 0 0
   7 H    1     2.5583     4.8346   38 O    0 0 0
   7 H    1     2.7310     5.1608    2 B    0 0 0

   8 H    1     1.0909     2.0615   21 C    0 0 0
   8 H    1     2.1454     4.0542   24 C    0-1 1
   8 H    1     2.1688     4.0985   22 C    0 0 0
   8 H    1     2.5272     4.7758    9 H    0 0 0
   8 H    1     2.5561     4.8304   40 O    0 0 0
   8 H    1     2.7242     5.1480    4 B    0-1 1

   9 H    1     1.0908     2.0613   22 C    0 0 0
   9 H    1     2.1442     4.0519   19 C    0-1 1
   9 H    1     2.1694     4.0995   21 C    0 0 0
   9 H    1     2.5272     4.7758    8 H    0 0 0
   9 H    1     2.5615     4.8406   39 O    0 0 0
   9 H    1     2.7248     5.1491    2 B    0-1 1

  10 H    1     1.0912     2.0621   23 C    0 0 0
  10 H    1     2.1468     4.0570   24 C    0 0 0
  10 H    1     2.1689     4.0986   20 C    0 0 0
  10 H    1     2.5280     4.7772    7 H    0 0 0
  10 H    1     2.5562     4.8305   41 O    0 0 0
  10 H    1     2.7309     5.1607    4 B    0 0 0

  11 H    1     1.0911     2.0619   26 C    0 0 0
  11 H    1     2.1443     4.0521   25 C    0 0 0
  11 H    1     2.1684     4.0977   29 C    0 0 1
  11 H    1     2.5222     4.7664   14 H    0 0 1
  11 H    1     2.5622     4.8419   42 O    0 0 0
  11 H    1     2.7179     5.1361    6 B    0 0 0

  12 H    1     1.0917     2.0630   27 C    0 0 0
  12 H    1     2.1441     4.0517   30 C    1 0 0
  12 H    1     2.1716     4.1037   28 C    0 0-1
  12 H    1     2.5226     4.7669   13 H    0 0-1
  12 H    1     2.5541     4.8265   37 O    0 0 0
  12 H    1     2.7237     5.1470    1 B    1 0 0

  13 H    1     1.0919     2.0633   28 C    0 0 0
  13 H    1     2.1522     4.0670   25 C    1 0 0
  13 H    1     2.1668     4.0946   27 C    0 0 1
  13 H    1     2.5226     4.7669   12 H    0 0 1
  13 H    1     2.5922     4.8986   40 O    0 0 0
  13 H    1     2.7582     5.2123    6 B    1 0 0

  14 H    1     1.0915     2.0627   29 C    0 0 0
  14 H    1     2.1483     4.0597   30 C    0 0 0
  14 H    1     2.1679     4.0968   26 C    0 0-1
  14 H    1     2.5222     4.7664   11 H    0 0-1
  14 H    1     2.5809     4.8771   38 O    0 0 0
  14 H    1     2.7404     5.1785    1 B    0 0 0

  15 H    1     1.0916     2.0628   32 C    0 0 0
  15 H    1     2.1436     4.0508   31 C   -1-1 1
  15 H    1     2.1707     4.1021   35 C    0 0 0
  15 H    1     2.5217     4.7654   18 H    0 0 0
  15 H    1     2.5567     4.8315   42 O    0 0 0
  15 H    1     2.7164     5.1333    5 B   -1-1 1

  16 H    1     1.0914     2.0624   33 C    0 0 0
  16 H    1     2.1487     4.0605   36 C    0 0 0
  16 H    1     2.1663     4.0937   34 C    0 0 0
  16 H    1     2.5170     4.7564   17 H    0 0 0
  16 H    1     2.5779     4.8716   37 O    0 0 0
  16 H    1     2.7395     5.1769    3 B    0 0 0

  17 H    1     1.0921     2.0638   34 C    0 0 0
  17 H    1     2.1502     4.0632   31 C    0 0 0
  17 H    1     2.1683     4.0976   33 C    0 0 0
  17 H    1     2.5170     4.7564   16 H    0 0 0
  17 H    1     2.5870     4.8888   41 O    0 0 0
  17 H    1     2.7510     5.1986    5 B    0 0 0

  18 H    1     1.0913     2.0622   35 C    0 0 0
  18 H    1     2.1494     4.0619   36 C   -1-1 1
  18 H    1     2.1656     4.0923   32 C    0 0 0
  18 H    1     2.5217     4.7654   15 H    0 0 0
  18 H    1     2.5789     4.8734   39 O    0 0 0
  18 H    1     2.7392     5.1763    3 B   -1-1 1

  19 C    1     1.4017     2.6488   22 C    0 1-1
  19 C    1     1.4025     2.6504   20 C    0 0 0
  19 C    1     1.5510     2.9309    2 B    0 0 0
  19 C    1     2.1442     4.0519    9 H    0 1-1
  19 C    1     2.1461     4.0556    7 H    0 0 0
  19 C    1     2.4236     4.5799   21 C    0 1-1

  20 C    1     1.0916     2.0629    7 H    0 0 0
  20 C    1     1.3915     2.6296   23 C    0 0 0
  20 C    1     1.4025     2.6504   19 C    0 0 0
  20 C    1     2.1689     4.0986   10 H    0 0 0
  20 C    1     2.4191     4.5714   22 C    0 1-1
  20 C    1     2.4241     4.5809   24 C    0 0 0

  21 C    1     1.0909     2.0615    8 H    0 0 0
  21 C    1     1.3909     2.6284   22 C    0 0 0
  21 C    1     1.4014     2.6483   24 C    0-1 1
  21 C    1     2.1694     4.0995    9 H    0 0 0
  21 C    1     2.4189     4.5710   23 C    0-1 1
  21 C    1     2.4236     4.5799   19 C    0-1 1

  22 C    1     1.0908     2.0613    9 H    0 0 0
  22 C    1     1.3909     2.6284   21 C    0 0 0
  22 C    1     1.4017     2.6488   19 C    0-1 1
  22 C    1     2.1688     4.0985    8 H    0 0 0
  22 C    1     2.4191     4.5714   20 C    0-1 1
  22 C    1     2.4226     4.5780   24 C    0-1 1

  23 C    1     1.0912     2.0621   10 H    0 0 0
  23 C    1     1.3915     2.6296   20 C    0 0 0
  23 C    1     1.4021     2.6496   24 C    0 0 0
  23 C    1     2.1712     4.1029    7 H    0 0 0
  23 C    1     2.4189     4.5710   21 C    0 1-1
  23 C    1     2.4237     4.5802   19 C    0 0 0

  24 C    1     1.4014     2.6483   21 C    0 1-1
  24 C    1     1.4021     2.6496   23 C    0 0 0
  24 C    1     1.5479     2.9251    4 B    0 0 0
  24 C    1     2.1454     4.0542    8 H    0 1-1
  24 C    1     2.1468     4.0570   10 H    0 0 0
  24 C    1     2.4226     4.5780   22 C    0 1-1

  25 C    1     1.4025     2.6504   26 C    0 0 0
  25 C    1     1.4037     2.6525   28 C   -1 0 0
  25 C    1     1.5546     2.9377    6 B    0 0 0
  25 C    1     2.1443     4.0521   11 H    0 0 0
  25 C    1     2.1522     4.0670   13 H   -1 0 0
  25 C    1     2.4271     4.5865   27 C   -1 0 1

  26 C    1     1.0911     2.0619   11 H    0 0 0
  26 C    1     1.3916     2.6298   29 C    0 0 1
  26 C    1     1.4025     2.6504   25 C    0 0 0
  26 C    1     2.1679     4.0968   14 H    0 0 1
  26 C    1     2.4165     4.5665   28 C   -1 0 0
  26 C    1     2.4246     4.5818   30 C    0 0 1

  27 C    1     1.0917     2.0630   12 H    0 0 0
  27 C    1     1.3928     2.6320   28 C    0 0-1
  27 C    1     1.4024     2.6501   30 C    1 0 0
  27 C    1     2.1668     4.0946   13 H    0 0-1
  27 C    1     2.4166     4.5668   29 C    1 0 0
  27 C    1     2.4271     4.5865   25 C    1 0-1

  28 C    1     1.0919     2.0633   13 H    0 0 0
  28 C    1     1.3928     2.6320   27 C    0 0 1
  28 C    1     1.4037     2.6525   25 C    1 0 0
  28 C    1     2.1716     4.1037   12 H    0 0 1
  28 C    1     2.4165     4.5665   26 C    1 0 0
  28 C    1     2.4277     4.5877   30 C    1 0 1

  29 C    1     1.0915     2.0627   14 H    0 0 0
  29 C    1     1.3916     2.6298   26 C    0 0-1
  29 C    1     1.4023     2.6499   30 C    0 0 0
  29 C    1     2.1684     4.0977   11 H    0 0-1
  29 C    1     2.4166     4.5668   27 C   -1 0 0
  29 C    1     2.4281     4.5884   25 C    0 0-1

  30 C    1     1.4023     2.6499   29 C    0 0 0
  30 C    1     1.4024     2.6501   27 C   -1 0 0
  30 C    1     1.5517     2.9323    1 B    0 0 0
  30 C    1     2.1441     4.0517   12 H   -1 0 0
  30 C    1     2.1483     4.0597   14 H    0 0 0
  30 C    1     2.4246     4.5818   26 C    0 0-1

  31 C    1     1.4022     2.6498   32 C    1 1-1
  31 C    1     1.4030     2.6512   34 C    0 0 0
  31 C    1     1.5522     2.9333    5 B    0 0 0
  31 C    1     2.1436     4.0508   15 H    1 1-1
  31 C    1     2.1502     4.0632   17 H    0 0 0
  31 C    1     2.4264     4.5853   33 C    0 0 0

  32 C    1     1.0916     2.0628   15 H    0 0 0
  32 C    1     1.3918     2.6301   35 C    0 0 0
  32 C    1     1.4022     2.6498   31 C   -1-1 1
  32 C    1     2.1656     4.0923   18 H    0 0 0
  32 C    1     2.4163     4.5661   34 C   -1-1 1
  32 C    1     2.4270     4.5863   36 C   -1-1 1

  33 C    1     1.0914     2.0624   16 H    0 0 0
  33 C    1     1.3927     2.6318   34 C    0 0 0
  33 C    1     1.4029     2.6510   36 C    0 0 0
  33 C    1     2.1683     4.0976   17 H    0 0 0
  33 C    1     2.4155     4.5645   35 C    1 1-1
  33 C    1     2.4264     4.5853   31 C    0 0 0

  34 C    1     1.0921     2.0638   17 H    0 0 0
  34 C    1     1.3927     2.6318   33 C    0 0 0
  34 C    1     1.4030     2.6512   31 C    0 0 0
  34 C    1     2.1663     4.0937   16 H    0 0 0
  34 C    1     2.4163     4.5661   32 C    1 1-1
  34 C    1     2.4289     4.5899   36 C    0 0 0

  35 C    1     1.0913     2.0622   18 H    0 0 0
  35 C    1     1.3918     2.6301   32 C    0 0 0
  35 C    1     1.4029     2.6511   36 C   -1-1 1
  35 C    1     2.1707     4.1021   15 H    0 0 0
  35 C    1     2.4155     4.5645   33 C   -1-1 1
  35 C    1     2.4269     4.5861   31 C   -1-1 1

  36 C    1     1.4029     2.6510   33 C    0 0 0
  36 C    1     1.4029     2.6511   35 C    1 1-1
  36 C    1     1.5529     2.9346    3 B    0 0 0
  36 C    1     2.1487     4.0605   16 H    0 0 0
  36 C    1     2.1494     4.0619   18 H    1 1-1
  36 C    1     2.4270     4.5863   32 C    1 1-1

  37 O    1     1.3790     2.6060    3 B    0 0 0
  37 O    1     1.3795     2.6068    1 B    1 0 0
  37 O    1     2.3868     4.5105   39 O    1 1-1
  37 O    1     2.3885     4.5136   38 O    1 0 0
  37 O    1     2.5389     4.7979   30 C    1 0 0
  37 O    1     2.5412     4.8021   36 C    0 0 0

  38 O    1     1.3787     2.6054    1 B    0 0 0
  38 O    1     1.3792     2.6064    2 B    0 0 0
  38 O    1     2.3885     4.5136   37 O   -1 0 0
  38 O    1     2.3912     4.5187   39 O    0 1-1
  38 O    1     2.5351     4.7906   19 C    0 0 0
  38 O    1     2.5405     4.8008   30 C    0 0 0

  39 O    1     1.3795     2.6069    3 B   -1-1 1
  39 O    1     1.3798     2.6075    2 B    0-1 1
  39 O    1     2.3868     4.5105   37 O   -1-1 1
  39 O    1     2.3912     4.5187   38 O    0-1 1
  39 O    1     2.5416     4.8030   19 C    0-1 1
  39 O    1     2.5427     4.8050   36 C   -1-1 1

  40 O    1     1.3783     2.6045    6 B    1 0 0
  40 O    1     1.3785     2.6051    4 B    0-1 1
  40 O    1     2.3876     4.5119   42 O    1 0 0
  40 O    1     2.3913     4.5189   41 O    0-1 1
  40 O    1     2.5354     4.7912   25 C    1 0 0
  40 O    1     2.5360     4.7923   24 C    0-1 1

  41 O    1     1.3778     2.6037    4 B    0 0 0
  41 O    1     1.3778     2.6037    5 B    0 0 0
  41 O    1     2.3870     4.5107   42 O    1 1-1
  41 O    1     2.3913     4.5189   40 O    0 1-1
  41 O    1     2.5304     4.7818   24 C    0 0 0
  41 O    1     2.5353     4.7910   31 C    0 0 0

  42 O    1     1.3812     2.6101    6 B    0 0 0
  42 O    1     1.3813     2.6103    5 B   -1-1 1
  42 O    1     2.3870     4.5107   41 O   -1-1 1
  42 O    1     2.3876     4.5119   40 O   -1 0 0
  42 O    1     2.5481     4.8152   31 C   -1-1 1
  42 O    1     2.5522     4.8230   25 C    0 0 0


 SYMMETRY ALLOWED INTERNAL DEGREE(S) OF FREEDOM: 123
 TTTTTTTTTTTTTTTTTTTTTTTTTTTTTT SYMM        TELAPSE        0.30 TCPU        0.30
 TTTTTTTTTTTTTTTTTTTTTTTTTTTTTT INT_SCREEN  TELAPSE        0.33 TCPU        0.32

 DFT PARAMETERS

     ATOM       ELECTRONS   NET CHARGE   R(ANGSTROM)
   1   5  B       5.0000      0.0000     0.89000000
   7   1  H       1.0000      0.0000     1.11000000
  19   6  C       6.0000      0.0000     0.77000000
  37   8  O       8.0000      0.0000     0.74000000

 SIZE OF GRID=    1211888
 TTTTTTTTTTTTTTTTTTTTTTTTTTTTTT MAKE_GRID2  TELAPSE       14.03 TCPU       14.02
 BECKE WEIGHT FUNCTION
 RADSAFE =     2.00
 TOLERANCES - DENSITY:10**- 6; POTENTIAL:10**- 9; GRID WGT:10**-14

 RADIAL INTEGRATION  - INTERVALS (POINTS,UPPER LIMIT):            1( 75,  4.0*R)

 ANGULAR INTEGRATION - INTERVALS (ACCURACY LEVEL [N. POINTS] UPPER LIMIT):
  1(  4[  86]   0.2)  2(  8[ 194]   0.5)  3( 12[ 350]   0.9)  4( 16[ 974]   3.5)
  5( 12[ 350]9999.0)
 TTTTTTTTTTTTTTTTTTTTTTTTTTTTTT INT_CALC    TELAPSE       14.16 TCPU       14.15
 EEEEEEEEEE INT_CALC TERMINATION  DATE 02 12 2025 TIME 07:55:05.1

 *******************************************************************************
 COF-5_z31_inc_L010                                                              
 CRYSTAL - SCF - TYPE OF CALCULATION :  RESTRICTED CLOSED SHELL
 *******************************************************************************

 CAPPA:IS1  2;IS2  2;IS3  8; K PTS MONK NET  20; SYMMOPS:K SPACE   2;G SPACE   1

 TTTTTTTTTTTTTTTTTTTTTTTTTTTTTT SDIK        TELAPSE       15.03 TCPU       23.26

 AAAAAAAAAAAAAAAAAAAAAAAAAAAAAAAAAAAAAAAAAAAAAAAAAAAAAAAAAAAAAAAAAAAAAAAAAAAAAAA
         ATOMIC WAVEFUNCTION(S)


 NUCLEAR CHARGE  5.0  SYMMETRY SPECIES            S    P
 N. ELECTRONS    5.0  NUMBER OF PRIMITIVE GTOS    8    4
                      NUMBER OF CONTRACTED GTOS   4    2
                      NUMBER OF CLOSED SHELLS     2    0
                      OPEN SHELL OCCUPATION       0    1

  ZNUC  SCFIT    TOTAL HF ENERGY   KINETIC ENERGY   VIRIAL THEOREM ACCURACY
   5.0    11    -2.451164084E+01  2.462155050E+01 -1.995536038E+00  1.5E-06

 NUCLEAR CHARGE  1.0  SYMMETRY SPECIES            S
 N. ELECTRONS    1.0  NUMBER OF PRIMITIVE GTOS    4
                      NUMBER OF CONTRACTED GTOS   2
                      NUMBER OF CLOSED SHELLS     0
                      OPEN SHELL OCCUPATION       1

  ZNUC  SCFIT    TOTAL HF ENERGY   KINETIC ENERGY   VIRIAL THEOREM ACCURACY
   1.0     1    -4.977266687E-01  5.190767460E-01 -1.958869132E+00  0.0E+00

 NUCLEAR CHARGE  6.0  SYMMETRY SPECIES            S    P
 N. ELECTRONS    6.0  NUMBER OF PRIMITIVE GTOS    8    4
                      NUMBER OF CONTRACTED GTOS   4    2
                      NUMBER OF CLOSED SHELLS     2    0
                      OPEN SHELL OCCUPATION       0    2

  ZNUC  SCFIT    TOTAL HF ENERGY   KINETIC ENERGY   VIRIAL THEOREM ACCURACY
   6.0     9    -3.766704647E+01  3.775180683E+01 -1.997754800E+00  1.1E-06

 NUCLEAR CHARGE  8.0  SYMMETRY SPECIES            S    P
 N. ELECTRONS    8.0  NUMBER OF PRIMITIVE GTOS    8    4
                      NUMBER OF CONTRACTED GTOS   4    2
                      NUMBER OF CLOSED SHELLS     2    0
                      OPEN SHELL OCCUPATION       0    4

  ZNUC  SCFIT    TOTAL HF ENERGY   KINETIC ENERGY   VIRIAL THEOREM ACCURACY
   8.0    12    -7.477373220E+01  7.477365593E+01 -2.000001020E+00  3.8E-06

 AAAAAAAAAAAAAAAAAAAAAAAAAAAAAAAAAAAAAAAAAAAAAAAAAAAAAAAAAAAAAAAAAAAAAAAAAAAAAAA

 CHARGE NORMALIZATION FACTOR   1.00000000
 TOTAL ATOMIC CHARGES:
   5.0000000   5.0000000   5.0000000   5.0000000   5.0000000   5.0000000
   1.0000000   1.0000000   1.0000000   1.0000000   1.0000000   1.0000000
   1.0000000   1.0000000   1.0000000   1.0000000   1.0000000   1.0000000
   6.0000000   6.0000000   6.0000000   6.0000000   6.0000000   6.0000000
   6.0000000   6.0000000   6.0000000   6.0000000   6.0000000   6.0000000
   6.0000000   6.0000000   6.0000000   6.0000000   6.0000000   6.0000000
   8.0000000   8.0000000   8.0000000   8.0000000   8.0000000   8.0000000
 TTTTTTTTTTTTTTTTTTTTTTTTTTTTTT MOQGAD      TELAPSE       15.09 TCPU       25.19
 TTTTTTTTTTTTTTTTTTTTTTTTTTTTTT SHELLXN     TELAPSE       29.50 TCPU      485.97
 TTTTTTTTTTTTTTTTTTTTTTTTTTTTTT MONMO3      TELAPSE       29.70 TCPU      492.38
 NUMERICALLY INTEGRATED DENSITY    198.0000780913
 TTTTTTTTTTTTTTTTTTTTTTTTTTTTTT NUMDFT      TELAPSE       30.40 TCPU      514.54
 CYC   0 ETOT(AU) -1.296067658106E+03 DETOT -1.30E+03 tst  0.00E+00 PX  1.00E+00
 TTTTTTTTTTTTTTTTTTTTTTTTTTTTTT DIIS        TELAPSE       30.43 TCPU      515.74
 TTTTTTTTTTTTTTTTTTTTTTTTTTTTTT FDIK        TELAPSE       30.92 TCPU      531.38
 INSULATING STATE
 TOP OF VALENCE BANDS -    BAND     99; K    1; EIG -2.7553321E-01 AU
 BOTTOM OF VIRTUAL BANDS - BAND    100; K   17; EIG -1.8611346E-01 AU
 INDIRECT ENERGY BAND GAP:   2.4332 eV
 BOTTOM OF VIRTUAL BANDS - BAND    100; K    1; EIG -1.3031872E-01 AU
 TTTTTTTTTTTTTTTTTTTTTTTTTTTTTT PDIG        TELAPSE       31.21 TCPU      537.52
 CHARGE NORMALIZATION FACTOR   1.00000000
 TOTAL ATOMIC CHARGES:
   4.1183214   4.1098815   4.1111339   4.1123948   4.1101137   4.1172246
   0.7866776   0.7866341   0.7863150   0.7863464   0.7861971   0.7860930
   0.7871268   0.7866700   0.7863827   0.7869826   0.7865286   0.7867440
   6.0605687   6.2742249   6.2741674   6.2714028   6.2699012   6.0633745
   6.0566527   6.2711323   6.2690276   6.2722476   6.2718161   6.0603300
   6.0594823   6.2741010   6.2751658   6.2709842   6.2724962   6.0568707
   8.7108898   8.7103074   8.7081471   8.7099650   8.7069571   8.7120196
 TTTTTTTTTTTTTTTTTTTTTTTTTTTTTT MOQGAD      TELAPSE       31.27 TCPU      537.58
 TTTTTTTTTTTTTTTTTTTTTTTTTTTTTT SHELLXN     TELAPSE       46.19 TCPU     1013.70
 TTTTTTTTTTTTTTTTTTTTTTTTTTTTTT MONMO3      TELAPSE       46.39 TCPU     1020.11
 NUMERICALLY INTEGRATED DENSITY    198.0000415947
 TTTTTTTTTTTTTTTTTTTTTTTTTTTTTT NUMDFT      TELAPSE       47.10 TCPU     1042.90
 CYC   1 ETOT(AU) -1.288798187589E+03 DETOT  7.27E+00 tst  0.00E+00 PX  1.00E+00
 TTTTTTTTTTTTTTTTTTTTTTTTTTTTTT DIIS        TELAPSE       47.15 TCPU     1044.49
 DIIS TEST: 0.11069E+01 AT SCF   CYCLE   1 - MIX   30 %
 TTTTTTTTTTTTTTTTTTTTTTTTTTTTTT FDIK        TELAPSE       47.65 TCPU     1060.21
 INSULATING STATE
 TOP OF VALENCE BANDS -    BAND     99; K    1; EIG -1.7156711E-01 AU
 BOTTOM OF VIRTUAL BANDS - BAND    100; K   17; EIG -1.0895951E-01 AU
 INDIRECT ENERGY BAND GAP:   1.7036 eV
 BOTTOM OF VIRTUAL BANDS - BAND    100; K    1; EIG -4.6646197E-02 AU
 TTTTTTTTTTTTTTTTTTTTTTTTTTTTTT PDIG        TELAPSE       47.95 TCPU     1066.37
 CHARGE NORMALIZATION FACTOR   1.00000000
 TOTAL ATOMIC CHARGES:
   4.6863359   4.6708935   4.6703443   4.6700570   4.6693824   4.6868606
   0.9275815   0.9279631   0.9280908   0.9277984   0.9241846   0.9237594
   0.9249222   0.9251118   0.9270113   0.9276231   0.9274636   0.9277639
   5.8660951   6.1149666   6.1124905   6.1289500   6.1311617   5.8624432
   5.8742289   6.1176792   6.1198023   6.1233860   6.1206502   5.8690096
   5.8690826   6.1088382   6.1123354   6.1314328   6.1286034   5.8686837
   8.3602608   8.3587890   8.3650097   8.3572512   8.3620063   8.3636961
 TTTTTTTTTTTTTTTTTTTTTTTTTTTTTT MOQGAD      TELAPSE       48.01 TCPU     1066.43
 TTTTTTTTTTTTTTTTTTTTTTTTTTTTTT SHELLXN     TELAPSE       62.93 TCPU     1542.52
 TTTTTTTTTTTTTTTTTTTTTTTTTTTTTT MONMO3      TELAPSE       63.13 TCPU     1548.91
 NUMERICALLY INTEGRATED DENSITY    198.0000426542
 TTTTTTTTTTTTTTTTTTTTTTTTTTTTTT NUMDFT      TELAPSE       63.84 TCPU     1571.66
 CYC   2 ETOT(AU) -1.288986649323E+03 DETOT -1.88E-01 tst  4.41E-03 PX  1.53E-01
 TTTTTTTTTTTTTTTTTTTTTTTTTTTTTT DIIS        TELAPSE       63.89 TCPU     1573.24
 DIIS TEST: 0.50188E+00 AT SCF   CYCLE   2 - DIIS ACTIVE - HISTORY:     2 CYCLES
 TTTTTTTTTTTTTTTTTTTTTTTTTTTTTT FDIK        TELAPSE       64.38 TCPU     1589.06
 INSULATING STATE
 TOP OF VALENCE BANDS -    BAND     99; K    1; EIG -1.9051219E-01 AU
 BOTTOM OF VIRTUAL BANDS - BAND    100; K   17; EIG -1.0287770E-01 AU
 INDIRECT ENERGY BAND GAP:   2.3847 eV
 BOTTOM OF VIRTUAL BANDS - BAND    100; K    1; EIG -3.8068868E-02 AU
 TTTTTTTTTTTTTTTTTTTTTTTTTTTTTT PDIG        TELAPSE       64.68 TCPU     1595.21
 CHARGE NORMALIZATION FACTOR   1.00000000
 TOTAL ATOMIC CHARGES:
   4.4559224   4.4413444   4.4416769   4.4433564   4.4412388   4.4545764
   0.8949113   0.8946660   0.8945629   0.8945709   0.8925523   0.8923782
   0.8944002   0.8935322   0.8935995   0.8949684   0.8949802   0.8945031
   5.9009744   6.1731518   6.1749185   6.1674982   6.1677231   5.9054681
   5.9075995   6.1653849   6.1657186   6.1688828   6.1691716   5.9101471
   5.9027767   6.1733611   6.1737701   6.1686780   6.1696515   5.9012305
   8.5231121   8.5226887   8.5176071   8.5223074   8.5158852   8.5245522
 TTTTTTTTTTTTTTTTTTTTTTTTTTTTTT MOQGAD      TELAPSE       64.74 TCPU     1595.27
 TTTTTTTTTTTTTTTTTTTTTTTTTTTTTT SHELLXN     TELAPSE       79.64 TCPU     2070.72
 TTTTTTTTTTTTTTTTTTTTTTTTTTTTTT MONMO3      TELAPSE       79.84 TCPU     2077.13
 NUMERICALLY INTEGRATED DENSITY    198.0000445763
 TTTTTTTTTTTTTTTTTTTTTTTTTTTTTT NUMDFT      TELAPSE       80.55 TCPU     2099.86
 CYC   3 ETOT(AU) -1.289092811384E+03 DETOT -1.06E-01 tst  7.16E-04 PX  5.55E-02
 TTTTTTTTTTTTTTTTTTTTTTTTTTTTTT DIIS        TELAPSE       80.61 TCPU     2101.79
 DIIS TEST: 0.10115E-01 AT SCF   CYCLE   3 - DIIS ACTIVE - HISTORY:     3 CYCLES
 TTTTTTTTTTTTTTTTTTTTTTTTTTTTTT FDIK        TELAPSE       81.10 TCPU     2117.30
 INSULATING STATE
 TOP OF VALENCE BANDS -    BAND     99; K    1; EIG -1.9835970E-01 AU
 BOTTOM OF VIRTUAL BANDS - BAND    100; K   17; EIG -1.1412547E-01 AU
 INDIRECT ENERGY BAND GAP:   2.2921 eV
 BOTTOM OF VIRTUAL BANDS - BAND    100; K    1; EIG -5.0311450E-02 AU
 TTTTTTTTTTTTTTTTTTTTTTTTTTTTTT PDIG        TELAPSE       81.38 TCPU     2123.44
 CHARGE NORMALIZATION FACTOR   1.00000000
 TOTAL ATOMIC CHARGES:
   4.4691167   4.4539726   4.4534101   4.4539839   4.4525791   4.4690516
   0.8816350   0.8822635   0.8809827   0.8809570   0.8783651   0.8782648
   0.8796690   0.8797418   0.8811876   0.8819096   0.8809229   0.8811574
   5.9619742   6.1537729   6.1494325   6.1655600   6.1652300   5.9564738
   5.9660397   6.1564356   6.1559421   6.1585956   6.1564549   5.9622361
   5.9613072   6.1489489   6.1516208   6.1659923   6.1646738   5.9602652
   8.5023817   8.5010402   8.5070808   8.4996344   8.5045118   8.5052248
 TTTTTTTTTTTTTTTTTTTTTTTTTTTTTT MOQGAD      TELAPSE       81.44 TCPU     2123.51
 TTTTTTTTTTTTTTTTTTTTTTTTTTTTTT SHELLXN     TELAPSE       96.40 TCPU     2600.96
 TTTTTTTTTTTTTTTTTTTTTTTTTTTTTT MONMO3      TELAPSE       96.60 TCPU     2607.34
 NUMERICALLY INTEGRATED DENSITY    198.0000435911
 TTTTTTTTTTTTTTTTTTTTTTTTTTTTTT NUMDFT      TELAPSE       97.31 TCPU     2629.95
 CYC   4 ETOT(AU) -1.289094691980E+03 DETOT -1.88E-03 tst  4.11E-05 PX  1.32E-02
 TTTTTTTTTTTTTTTTTTTTTTTTTTTTTT DIIS        TELAPSE       97.37 TCPU     2631.91
 DIIS TEST: 0.36230E-02 AT SCF   CYCLE   4 - DIIS ACTIVE - HISTORY:     4 CYCLES
 TTTTTTTTTTTTTTTTTTTTTTTTTTTTTT FDIK        TELAPSE       97.86 TCPU     2647.61
 INSULATING STATE
 TOP OF VALENCE BANDS -    BAND     99; K    1; EIG -1.9827746E-01 AU
 BOTTOM OF VIRTUAL BANDS - BAND    100; K   17; EIG -1.1204009E-01 AU
 INDIRECT ENERGY BAND GAP:   2.3466 eV
 BOTTOM OF VIRTUAL BANDS - BAND    100; K    1; EIG -4.7917799E-02 AU
 TTTTTTTTTTTTTTTTTTTTTTTTTTTTTT PDIG        TELAPSE       98.15 TCPU     2653.75
 CHARGE NORMALIZATION FACTOR   1.00000000
 TOTAL ATOMIC CHARGES:
   4.4686464   4.4536644   4.4539220   4.4553190   4.4533404   4.4678170
   0.8833324   0.8830604   0.8829149   0.8827361   0.8806755   0.8803491
   0.8822161   0.8815072   0.8821730   0.8833638   0.8830309   0.8827762
   5.9263052   6.1678778   6.1700994   6.1700464   6.1715761   5.9316853
   5.9327138   6.1652595   6.1665686   6.1691326   6.1685599   5.9339549
   5.9301263   6.1673943   6.1685454   6.1719448   6.1716968   5.9281353
   8.5093876   8.5083722   8.5063345   8.5079849   8.5045906   8.5108630
 TTTTTTTTTTTTTTTTTTTTTTTTTTTTTT MOQGAD      TELAPSE       98.21 TCPU     2653.81
 TTTTTTTTTTTTTTTTTTTTTTTTTTTTTT SHELLXN     TELAPSE      113.05 TCPU     3127.34
 TTTTTTTTTTTTTTTTTTTTTTTTTTTTTT MONMO3      TELAPSE      113.25 TCPU     3133.73
 NUMERICALLY INTEGRATED DENSITY    198.0000435445
 TTTTTTTTTTTTTTTTTTTTTTTTTTTTTT NUMDFT      TELAPSE      113.96 TCPU     3156.32
 CYC   5 ETOT(AU) -1.289095496511E+03 DETOT -8.05E-04 tst  9.55E-06 PX  7.71E-03
 TTTTTTTTTTTTTTTTTTTTTTTTTTTTTT DIIS        TELAPSE      114.03 TCPU     3158.56
 DIIS TEST: 0.18072E-03 AT SCF   CYCLE   5 - DIIS ACTIVE - HISTORY:     5 CYCLES
 TTTTTTTTTTTTTTTTTTTTTTTTTTTTTT FDIK        TELAPSE      114.52 TCPU     3174.25
 INSULATING STATE
 TOP OF VALENCE BANDS -    BAND     99; K    1; EIG -1.9761620E-01 AU
 BOTTOM OF VIRTUAL BANDS - BAND    100; K   17; EIG -1.1159476E-01 AU
 INDIRECT ENERGY BAND GAP:   2.3408 eV
 BOTTOM OF VIRTUAL BANDS - BAND    100; K    1; EIG -4.7479090E-02 AU
 TTTTTTTTTTTTTTTTTTTTTTTTTTTTTT PDIG        TELAPSE      114.81 TCPU     3180.39
 CHARGE NORMALIZATION FACTOR   1.00000000
 TOTAL ATOMIC CHARGES:
   4.4681899   4.4537003   4.4532307   4.4536674   4.4522877   4.4675278
   0.8846115   0.8851123   0.8842896   0.8843887   0.8819262   0.8818855
   0.8833855   0.8832003   0.8840056   0.8848986   0.8844314   0.8844599
   5.9357594   6.1662238   6.1618644   6.1702658   6.1683947   5.9294159
   5.9381158   6.1638548   6.1625919   6.1657105   6.1653859   5.9367960
   5.9330542   6.1622069   6.1638544   6.1696685   6.1701956   5.9329943
   8.5079647   8.5074858   8.5093525   8.5060057   8.5067537   8.5108858
 TTTTTTTTTTTTTTTTTTTTTTTTTTTTTT MOQGAD      TELAPSE      114.87 TCPU     3180.45
 TTTTTTTTTTTTTTTTTTTTTTTTTTTTTT SHELLXN     TELAPSE      129.74 TCPU     3655.14
 TTTTTTTTTTTTTTTTTTTTTTTTTTTTTT MONMO3      TELAPSE      129.94 TCPU     3661.53
 NUMERICALLY INTEGRATED DENSITY    198.0000435940
 TTTTTTTTTTTTTTTTTTTTTTTTTTTTTT NUMDFT      TELAPSE      130.66 TCPU     3684.38
 CYC   6 ETOT(AU) -1.289095518891E+03 DETOT -2.24E-05 tst  1.05E-06 PX  2.02E-03
 TTTTTTTTTTTTTTTTTTTTTTTTTTTTTT DIIS        TELAPSE      130.73 TCPU     3686.76
 DIIS TEST: 0.76442E-04 AT SCF   CYCLE   6 - DIIS ACTIVE - HISTORY:     6 CYCLES
 TTTTTTTTTTTTTTTTTTTTTTTTTTTTTT FDIK        TELAPSE      131.23 TCPU     3702.73
 INSULATING STATE
 TOP OF VALENCE BANDS -    BAND     99; K    1; EIG -1.9775125E-01 AU
 BOTTOM OF VIRTUAL BANDS - BAND    100; K   17; EIG -1.1170120E-01 AU
 INDIRECT ENERGY BAND GAP:   2.3415 eV
 BOTTOM OF VIRTUAL BANDS - BAND    100; K    1; EIG -4.7577891E-02 AU
 TTTTTTTTTTTTTTTTTTTTTTTTTTTTTT PDIG        TELAPSE      131.52 TCPU     3708.88
 CHARGE NORMALIZATION FACTOR   1.00000000
 TOTAL ATOMIC CHARGES:
   4.4682248   4.4532692   4.4533086   4.4546767   4.4528428   4.4677490
   0.8846320   0.8846689   0.8841916   0.8840680   0.8818512   0.8816041
   0.8833216   0.8828978   0.8837081   0.8847572   0.8842782   0.8841766
   5.9314229   6.1644613   6.1648226   6.1683445   6.1697063   5.9343272
   5.9381841   6.1628283   6.1635852   6.1665854   6.1648505   5.9371239
   5.9344348   6.1627321   6.1644687   6.1703138   6.1691840   5.9320965
   8.5085192   8.5073010   8.5076890   8.5067139   8.5057962   8.5102821
 TTTTTTTTTTTTTTTTTTTTTTTTTTTTTT MOQGAD      TELAPSE      131.58 TCPU     3708.94
 TTTTTTTTTTTTTTTTTTTTTTTTTTTTTT SHELLXN     TELAPSE      146.53 TCPU     4186.36
 TTTTTTTTTTTTTTTTTTTTTTTTTTTTTT MONMO3      TELAPSE      146.73 TCPU     4192.75
 NUMERICALLY INTEGRATED DENSITY    198.0000436022
 TTTTTTTTTTTTTTTTTTTTTTTTTTTTTT NUMDFT      TELAPSE      147.45 TCPU     4215.51
 CYC   7 ETOT(AU) -1.289095535094E+03 DETOT -1.62E-05 tst  7.15E-07 PX  1.15E-03
 TTTTTTTTTTTTTTTTTTTTTTTTTTTTTT DIIS        TELAPSE      147.53 TCPU     4218.21
 DIIS TEST: 0.11470E-04 AT SCF   CYCLE   7 - DIIS ACTIVE - HISTORY:     7 CYCLES
 TTTTTTTTTTTTTTTTTTTTTTTTTTTTTT FDIK        TELAPSE      148.03 TCPU     4234.28
 INSULATING STATE
 TOP OF VALENCE BANDS -    BAND     99; K    1; EIG -1.9781804E-01 AU
 BOTTOM OF VIRTUAL BANDS - BAND    100; K   17; EIG -1.1175921E-01 AU
 INDIRECT ENERGY BAND GAP:   2.3418 eV
 BOTTOM OF VIRTUAL BANDS - BAND    100; K    1; EIG -4.7636506E-02 AU
 TTTTTTTTTTTTTTTTTTTTTTTTTTTTTT PDIG        TELAPSE      148.32 TCPU     4240.42
 CHARGE NORMALIZATION FACTOR   1.00000000
 TOTAL ATOMIC CHARGES:
   4.4685354   4.4536603   4.4536309   4.4546191   4.4528580   4.4677247
   0.8844860   0.8845248   0.8840330   0.8839567   0.8817166   0.8814979
   0.8832368   0.8827356   0.8835488   0.8846172   0.8841613   0.8840135
   5.9324465   6.1652026   6.1647786   6.1690016   6.1691723   5.9329402
   5.9371950   6.1631547   6.1635978   6.1661509   6.1657235   5.9375747
   5.9335286   6.1632161   6.1646818   6.1697821   6.1699232   5.9325939
   8.5083679   8.5074785   8.5074917   8.5066476   8.5053753   8.5104181
 TTTTTTTTTTTTTTTTTTTTTTTTTTTTTT MOQGAD      TELAPSE      148.38 TCPU     4240.48
 TTTTTTTTTTTTTTTTTTTTTTTTTTTTTT SHELLXN     TELAPSE      163.34 TCPU     4717.81
 TTTTTTTTTTTTTTTTTTTTTTTTTTTTTT MONMO3      TELAPSE      163.54 TCPU     4724.27
 NUMERICALLY INTEGRATED DENSITY    198.0000436061
 TTTTTTTTTTTTTTTTTTTTTTTTTTTTTT NUMDFT      TELAPSE      164.26 TCPU     4747.18
 CYC   8 ETOT(AU) -1.289095537784E+03 DETOT -2.69E-06 tst  6.66E-08 PX  3.57E-04
 TTTTTTTTTTTTTTTTTTTTTTTTTTTTTT DIIS        TELAPSE      164.34 TCPU     4749.86
 DIIS TEST: 0.14037E-05 AT SCF   CYCLE   8 - DIIS ACTIVE - HISTORY:     8 CYCLES
 TTTTTTTTTTTTTTTTTTTTTTTTTTTTTT FDIK        TELAPSE      164.84 TCPU     4765.69
 INSULATING STATE
 TOP OF VALENCE BANDS -    BAND     99; K    1; EIG -1.9781267E-01 AU
 BOTTOM OF VIRTUAL BANDS - BAND    100; K   17; EIG -1.1176562E-01 AU
 INDIRECT ENERGY BAND GAP:   2.3415 eV
 BOTTOM OF VIRTUAL BANDS - BAND    100; K    1; EIG -4.7643334E-02 AU
 TTTTTTTTTTTTTTTTTTTTTTTTTTTTTT PDIG        TELAPSE      165.14 TCPU     4771.85
 CHARGE NORMALIZATION FACTOR   1.00000000
 TOTAL ATOMIC CHARGES:
   4.4684692   4.4536479   4.4535633   4.4546379   4.4529210   4.4678636
   0.8844412   0.8845522   0.8840212   0.8839556   0.8816949   0.8814991
   0.8831855   0.8827663   0.8835585   0.8845932   0.8841289   0.8840346
   5.9323750   6.1652904   6.1645653   6.1689984   6.1693551   5.9328487
   5.9376305   6.1633381   6.1634936   6.1664165   6.1654804   5.9369812
   5.9337860   6.1631481   6.1646359   6.1701105   6.1697322   5.9321899
   8.5083325   8.5074318   8.5077029   8.5065806   8.5056033   8.5104389
 TTTTTTTTTTTTTTTTTTTTTTTTTTTTTT MOQGAD      TELAPSE      165.20 TCPU     4771.91
 TTTTTTTTTTTTTTTTTTTTTTTTTTTTTT SHELLXN     TELAPSE      180.16 TCPU     5249.24
 TTTTTTTTTTTTTTTTTTTTTTTTTTTTTT MONMO3      TELAPSE      180.36 TCPU     5255.63
 NUMERICALLY INTEGRATED DENSITY    198.0000436036
 TTTTTTTTTTTTTTTTTTTTTTTTTTTTTT NUMDFT      TELAPSE      181.07 TCPU     5278.45
 CYC   9 ETOT(AU) -1.289095538018E+03 DETOT -2.34E-07 tst  1.16E-08 PX  1.47E-04
 TTTTTTTTTTTTTTTTTTTTTTTTTTTTTT DIIS        TELAPSE      181.16 TCPU     5281.33
 DIIS TEST: 0.15325E-06 AT SCF   CYCLE   9 - DIIS ACTIVE - HISTORY:     9 CYCLES
 TTTTTTTTTTTTTTTTTTTTTTTTTTTTTT FDIK        TELAPSE      181.65 TCPU     5296.75
 INSULATING STATE
 TOP OF VALENCE BANDS -    BAND     99; K    1; EIG -1.9780823E-01 AU
 BOTTOM OF VIRTUAL BANDS - BAND    100; K   17; EIG -1.1176397E-01 AU
 INDIRECT ENERGY BAND GAP:   2.3414 eV
 BOTTOM OF VIRTUAL BANDS - BAND    100; K    1; EIG -4.7641361E-02 AU
 TTTTTTTTTTTTTTTTTTTTTTTTTTTTTT PDIG        TELAPSE      181.94 TCPU     5302.90
 CHARGE NORMALIZATION FACTOR   1.00000000
 TOTAL ATOMIC CHARGES:
   4.4684767   4.4536181   4.4535612   4.4546162   4.4528720   4.4678085
   0.8844590   0.8845535   0.8840343   0.8839604   0.8817083   0.8814966
   0.8831967   0.8827666   0.8835677   0.8846049   0.8841450   0.8840384
   5.9323346   6.1651886   6.1645907   6.1689919   6.1693590   5.9329228
   5.9375095   6.1631948   6.1636055   6.1663959   6.1654531   5.9371763
   5.9336657   6.1630347   6.1646727   6.1700632   6.1697637   5.9323500
   8.5083869   8.5074147   8.5077503   8.5066098   8.5056671   8.5104143
 TTTTTTTTTTTTTTTTTTTTTTTTTTTTTT MOQGAD      TELAPSE      182.00 TCPU     5302.96
 TTTTTTTTTTTTTTTTTTTTTTTTTTTTTT SHELLXN     TELAPSE      196.97 TCPU     5780.92
 +++ ENERGIES IN A.U. +++
 ::: EXT EL-POLE                                  -1.6436345832366E+03
 ::: EXT EL-SPHEROPOLE                             1.8412192282779E+01
 ::: BIELET ZONE E-E                               2.6178048322965E+03
 ::: TOTAL E-E                                     9.9258244134264E+02
 ::: TOTAL E-N + N-E                              -3.8059241931124E+03
 ::: TOTAL N-N                                     3.7791462889228E+02
 ::: KINETIC ENERGY                                1.2801040816881E+03
 ::: PSEUDO TOTAL   ENERGY                        -1.1553230411894E+03
 ::: VIRIAL COEFFICIENT                            1.0512357932317E+00
 TTTTTTTTTTTTTTTTTTTTTTTTTTTTTT MONMO3      TELAPSE      197.17 TCPU     5787.33
 NUMERICALLY INTEGRATED DENSITY    198.0000436037
 EXCHANGE ENERGY: -0.126037516513E+03  CORRELATION ENERGY: -0.773498032289E+01
 TTTTTTTTTTTTTTTTTTTTTTTTTTTTTT NUMDFT      TELAPSE      197.89 TCPU     5810.21
 CYC  10 ETOT(AU) -1.289095538025E+03 DETOT -7.05E-09 tst  1.15E-09 PX  1.47E-04

 == SCF ENDED - CONVERGENCE ON ENERGY      E(AU) -1.2890955380249E+03 CYCLES  10


 ENERGY EXPRESSION=HARTREE+FOCK EXCH*0.00000+(HSESOL     EXCH)*1.00000+PBESOL     CORR


 TOTAL ENERGY(DFT)(AU)( 10) -1.2890955380249E+03 DE-7.1E-09 tester 1.2E-09
 TTTTTTTTTTTTTTTTTTTTTTTTTTTTTT EDFT        TELAPSE      197.89 TCPU     5810.22
 
 INFORMATION **** DFTD3 ENERGY **** CALCULATE DFTD3 ENERGY

           DFT-D V3(BJ)
 DF                                         hsesol3c  
 parameters
 s6       :    1.0000
 s8       :    0.0000
 a1       :    0.5196
 a2       :    4.9385
 k1 k3    :   16.0000   -4.0000
 Cutoff   :   50.2022
 CN-Cutoff:   21.1671
 ABC-Cutoff:   21.1671
 
 Edisp /kcal,au:   -34.6777 -0.05526237

 E6    /kcal :   -37.2565
 E8    /kcal :     0.0000
 E6(ABC) "   :   2.578851
 
 INFORMATION **** DFTD3 ENERGY **** NORMAL TERMINATION OF DFTD3 MODULE

 GCP ENERGY CALCULATION
  level        hsesol3c            basis:hsesol3c
  Nbf            474
  Atoms           42

  Parameters: 
  sigma     1.0000
  eta       1.4281
  alpha     0.2936
  beta      1.9467

  dmp_scal      4.0000
  dmp_exp       6.0000
 cutoffs: 
   distance [bohr] 60.0
   noise    [a.u.] 2.2E-16
 SR-damping   T
 ** gCP correction **
  Egcp:        0.0867302370 / (a.u.) ||      54.4241 / (kcal/mol)
 INFORMATION **** GCP **** NORMAL TERMINATION OF GCP MODULE

 *******************************************************************************

 DFT-D3-GCP DISPERSION AND COUNTERPOISE CORRECTION

 D3 DISPERSION ENERGY (AU)      -5.5262370394365E-02
 GCP ENERGY (AU)                 8.6730236979711E-02
 TOTAL ENERGY + DISP + GCP (AU) -1.2890640701583E+03

 *******************************************************************************

 EIGENVECTORS IN FORTRAN UNIT  8
 TTTTTTTTTTTTTTTTTTTTTTTTTTTTTT END         TELAPSE      199.65 TCPU     5817.83
 EEEEEEEEEE TERMINATION  DATE 02 12 2025 TIME 07:58:10.6
