 Default number of threads is:           32

         
 *******************************************************************************
 *                                                                             *
 *                               CRYSTAL23                                     *
 *                      public : 1.0.1 - October 2022                          *
 *                       HTTP://WWW.CRYSTAL.UNITO.IT                           *
 *                                                                             *
 *                              MAIN AUTHORS                                   *
 *                                                                             *
 *  R. DOVESI(1,11), V.R. SAUNDERS(2), C. ROETTI(1,11), R. ORLANDO(1,11),      *
 *  C.M. ZICOVICH-WILSON(1,3), F. PASCALE(4), B. CIVALLERI(1,11),              *
 *  K. DOLL(5), N.M. HARRISON(6), I.J. BUSH(7), Ph. D'ARCO(8),                 *
 *  M. LLUNELL(9), M. CAUSA'(10), Y. NOEL(8), L. MASCHIO(1,11), A. ERBA(1,11)  *
 *  M. RE'RAT(14), S. CASASSA(1,11), B.G. SEARLE(2), J.K. DESMARAIS(1)         *
 *                                                                             *
 *        CONTRIBUTIONS TO THE CODE HAVE ALSO BEEN GIVEN BY                    *
 *                                                                             *
 *  M. FERRABONE(1,11), M. DE LA PIERRE(1,11), M. FERRERO(1,11),               *
 *  J. BAIMA(1,11), E. ALBANESE(1,11), M.F. PEINTINGER(12), R. BAST(13),       *
 *  B. KIRTMAN(15), V. LACIVITA(1,11), R. DEMICHELIS(1,16)                     *
 *  G. BRANDEBURG(17), S. SALUSTRO(1,11), G. SANSONE(1,11)                     *
 *  M.T. RUGGIERO(18), L.E. DAGA(1), L. DONA'(1), A. COSSARD(1)                *
 *                                                                             *
 * (1) THEORETICAL CHEMISTRY GROUP - UNIVERSITA' DI TORINO - TORINO (ITALY)    *
 * (2) SCIENTIFIC COMPUTING DEPARTMENT - STFC DARESBURY (UK)                   *
 * (3) UNIVERSIDAD AUTONOMA DEL ESTADO DE MORELOS - CUERNAVACA (MEXICO)        *
 * (4) UNIVERSITE' DE LORRAINE - NANCY (FRANCE)                                *
 * (5) UNIVERSITAET STUTTGART- STUTTGART (GERMANY)                             *
 * (6) IMPERIAL COLLEGE - LONDON (UK)                                          *
 * (7) SCIENTIFIC COMPUTING DEPARTMENT - STFC RAL (UK)                         *
 * (8) UPMC - SORBONNE UNIVERSITES - PARIS (FRANCE)                            *
 * (9) UNIVERSIDAD DE BARCELONA - BARCELONA (SPAIN)                            *
 *(10) UNIVERSITA' DI NAPOLI "FEDERICO II" - NAPOLI (ITALY)                    *
 *(11) NIS - NANOSTRUCTURED INTERFACES AND SURFACES - TORINO (ITALY)           *
 *(12) MPI FUER CHEMISCHE ENERGIEKONVERSION - MUELHEIM AN DER RUHR (GERMANY)   *
 *(13) UNIVERSITY OF TROMSO - TROMSO (NORWAY)                                  *
 *(14) UNIVERSITE' DE PAU ET DES PAYS DE L'ADOUR - PAU (FRANCE)                *
 *(15) UNIVERSITY OF CALIFORNIA SANTA BARBARA - SANTA BARBARA (USA)            *
 *(16) CURTIN UNIVERSITY - PERTH (AUSTRALIA)                                   *
 *(17) UNIVERSITY COLLEGE LONDON - LONDON (UK)                                 *
 *(18) UNIVERSITY OF VERMONT - BURLINGTON (USA)                                *
 *                                                                             *
 *******************************************************************************
 EEEEEEEEEE STARTING  DATE 19 02 2026 TIME 19:18:46.4
 cof-1_z44_L040_incl                                                             

 CRYSTAL CALCULATION
 (INPUT ACCORDING TO THE INTERNATIONAL TABLES FOR X-RAY CRYSTALLOGRAPHY)
 CRYSTAL FAMILY                       :  TRICLINIC   
 CRYSTAL CLASS  (GROTH - 1921)        :  TRICLINIC PEDIAL                     

 SPACE GROUP (NONCENTROSYMMETRIC)     :  P 1             

 LATTICE PARAMETERS  (ANGSTROMS AND DEGREES) - CONVENTIONAL CELL
        A           B           C        ALPHA        BETA       GAMMA
    15.02361    15.02392     5.94643    54.36841    89.99996   119.99596


 NUMBER OF IRREDUCIBLE ATOMS IN THE CONVENTIONAL CELL:   42

 INPUT COORDINATES

 ATOM AT. N.              COORDINATES
   1   5     5.366675500000E-01  7.327658000000E-02  5.010829200000E-01
   2   5     6.957232100000E-01  2.323362400000E-01  5.010829300000E-01
   3   5     5.370140900000E-01  2.330207100000E-01  4.988004000000E-01
   4   5     1.502422600000E-01  4.595915800000E-01  5.010829300000E-01
   5   5     3.093502300000E-01  4.595708100000E-01  5.010829200000E-01
   6   5     3.096813200000E-01  6.194116900000E-01  4.988004000000E-01
   7   1     8.267579200000E-01  1.563431500000E-01  4.963507800000E-01
   8   1     2.046005000000E-02  5.386889900000E-01  4.956271600000E-01
   9   1     8.268140600000E-01  4.417422200000E-01  4.955157900000E-01
  10   1     2.057455000000E-02  2.533461900000E-01  4.955435700000E-01
  11   1     6.136258100000E-01 -5.782480000000E-02  5.036438500000E-01
  12   1     2.314119100000E-01  7.483859200000E-01  5.043675300000E-01
  13   1     3.283350500000E-01 -5.803567000000E-02  5.044789700000E-01
  14   1     5.167815700000E-01  7.482702700000E-01  5.044510000000E-01
  15   1     6.147870400000E-01  4.414673000000E-01  4.963508200000E-01
  16   1     2.327873600000E-01  2.532449000000E-01  4.956271100000E-01
  17   1     3.296832200000E-01  1.564930700000E-01  4.955157000000E-01
  18   1     5.181292300000E-01  5.386191500000E-01  4.955436600000E-01
  19   6     8.152409600000E-01  2.926294100000E-01  4.987168800000E-01
  20   6     8.701863000000E-01  2.401645000000E-01  4.964621400000E-01
  21   6    -2.288475000000E-02  4.546240400000E-01  4.962673600000E-01
  22   6     8.700893900000E-01  4.009512300000E-01  4.968519100000E-01
  23   6    -2.270535000000E-02  2.939711200000E-01  4.953487200000E-01
  24   6     3.166890000000E-02  4.012861200000E-01  4.968797200000E-01
  25   6     4.769964800000E-01 -4.593309000000E-02  5.012777900000E-01
  26   6     5.297883800000E-01 -1.012387400000E-01  5.035324800000E-01
  27   6     3.153792500000E-01  7.918085800000E-01  5.037273300000E-01
  28   6     3.689580000000E-01 -1.010720300000E-01  5.031428100000E-01
  29   6     4.761562500000E-01  7.914866000000E-01  5.046458900000E-01
  30   6     3.686026100000E-01  7.373257400000E-01  5.031149400000E-01
  31   6     4.773955200000E-01  2.925602700000E-01  4.987168800000E-01
  32   6     5.309074000000E-01  4.010046300000E-01  4.964621900000E-01
  33   6     3.165505000000E-01  2.936107900000E-01  4.962673100000E-01
  34   6     3.699245500000E-01  2.399490500000E-01  4.968518500000E-01
  35   6     4.776112700000E-01  4.548191300000E-01  4.953487800000E-01
  36   6     3.695929900000E-01  4.012087200000E-01  4.968797200000E-01
  37   8     4.839803800000E-01  1.268424200000E-01  4.994127800000E-01
  38   8     6.421852700000E-01  1.253697200000E-01  5.042283600000E-01
  39   8     6.432995900000E-01  2.865482800000E-01  4.969632500000E-01
  40   8     2.035682000000E-01  5.661228900000E-01  4.994128000000E-01
  41   8     2.028475500000E-01  4.056870100000E-01  5.042283500000E-01
  42   8     3.628840200000E-01  5.668602400000E-01  4.969632300000E-01

 *******************************************************************************

 << INFORMATION >>: FROM NOW ON, ALL COORDINATES REFER TO THE PRIMITIVE CELL

 *******************************************************************************

 LATTICE PARAMETERS  (ANGSTROMS AND DEGREES) - PRIMITIVE CELL
       A          B          C        ALPHA      BETA     GAMMA        VOLUME
   15.02361   15.02392    5.94643    54.36841  89.99996 119.99596    860.123517

 COORDINATES OF THE EQUIVALENT ATOMS (FRACTIONAL UNITS)

 N. ATOM EQUIV AT. N.          X                  Y                  Z

   1   1   1    5 B    -4.63332450000E-01  7.32765800000E-02 -4.98917080000E-01

   2   2   1    5 B    -3.04276790000E-01  2.32336240000E-01 -4.98917070000E-01

   3   3   1    5 B    -4.62985910000E-01  2.33020710000E-01  4.98800400000E-01

   4   4   1    5 B     1.50242260000E-01  4.59591580000E-01 -4.98917070000E-01

   5   5   1    5 B     3.09350230000E-01  4.59570810000E-01 -4.98917080000E-01

   6   6   1    5 B     3.09681320000E-01 -3.80588310000E-01  4.98800400000E-01

   7   7   1    1 H    -1.73242080000E-01  1.56343150000E-01  4.96350780000E-01

   8   8   1    1 H     2.04600500000E-02 -4.61311010000E-01  4.95627160000E-01

   9   9   1    1 H    -1.73185940000E-01  4.41742220000E-01  4.95515790000E-01

  10  10   1    1 H     2.05745500000E-02  2.53346190000E-01  4.95543570000E-01

  11  11   1    1 H    -3.86374190000E-01 -5.78248000000E-02 -4.96356150000E-01

  12  12   1    1 H     2.31411910000E-01 -2.51614080000E-01 -4.95632470000E-01

  13  13   1    1 H     3.28335050000E-01 -5.80356700000E-02 -4.95521030000E-01

  14  14   1    1 H    -4.83218430000E-01 -2.51729730000E-01 -4.95549000000E-01

  15  15   1    1 H    -3.85212960000E-01  4.41467300000E-01  4.96350820000E-01

  16  16   1    1 H     2.32787360000E-01  2.53244900000E-01  4.95627110000E-01

  17  17   1    1 H     3.29683220000E-01  1.56493070000E-01  4.95515700000E-01

  18  18   1    1 H    -4.81870770000E-01 -4.61380850000E-01  4.95543660000E-01

  19  19   1    6 C    -1.84759040000E-01  2.92629410000E-01  4.98716880000E-01

  20  20   1    6 C    -1.29813700000E-01  2.40164500000E-01  4.96462140000E-01

  21  21   1    6 C    -2.28847500000E-02  4.54624040000E-01  4.96267360000E-01

  22  22   1    6 C    -1.29910610000E-01  4.00951230000E-01  4.96851910000E-01

  23  23   1    6 C    -2.27053500000E-02  2.93971120000E-01  4.95348720000E-01

  24  24   1    6 C     3.16689000000E-02  4.01286120000E-01  4.96879720000E-01

  25  25   1    6 C     4.76996480000E-01 -4.59330900000E-02 -4.98722210000E-01

  26  26   1    6 C    -4.70211620000E-01 -1.01238740000E-01 -4.96467520000E-01

  27  27   1    6 C     3.15379250000E-01 -2.08191420000E-01 -4.96272670000E-01

  28  28   1    6 C     3.68958000000E-01 -1.01072030000E-01 -4.96857190000E-01

  29  29   1    6 C     4.76156250000E-01 -2.08513400000E-01 -4.95354110000E-01

  30  30   1    6 C     3.68602610000E-01 -2.62674260000E-01 -4.96885060000E-01

  31  31   1    6 C     4.77395520000E-01  2.92560270000E-01  4.98716880000E-01

  32  32   1    6 C    -4.69092600000E-01  4.01004630000E-01  4.96462190000E-01

  33  33   1    6 C     3.16550500000E-01  2.93610790000E-01  4.96267310000E-01

  34  34   1    6 C     3.69924550000E-01  2.39949050000E-01  4.96851850000E-01

  35  35   1    6 C     4.77611270000E-01  4.54819130000E-01  4.95348780000E-01

  36  36   1    6 C     3.69592990000E-01  4.01208720000E-01  4.96879720000E-01

  37  37   1    8 O     4.83980380000E-01  1.26842420000E-01  4.99412780000E-01

  38  38   1    8 O    -3.57814730000E-01  1.25369720000E-01 -4.95771640000E-01

  39  39   1    8 O    -3.56700410000E-01  2.86548280000E-01  4.96963250000E-01

  40  40   1    8 O     2.03568200000E-01 -4.33877110000E-01  4.99412800000E-01

  41  41   1    8 O     2.02847550000E-01  4.05687010000E-01 -4.95771650000E-01

  42  42   1    8 O     3.62884020000E-01 -4.33139760000E-01  4.96963230000E-01

 NUMBER OF SYMMETRY OPERATORS         :    1
 *******************************************************************************
 * GEOMETRY EDITING - INPUT COORDINATES ARE GIVEN IN ANGSTROM         
 *******************************************************************************

 GCALCO - MAX INDICES DIRECT LATTICE VECTOR    10    12    26
 NO.OF VECTORS CREATED 6999 STARS 3500 RMAX   213.09418 BOHR

 GEOMETRY FOR WAVE FUNCTION - DIMENSIONALITY OF THE SYSTEM    3
 (NON PERIODIC DIRECTION: LATTICE PARAMETER FORMALLY SET TO 500)
 *******************************************************************************
 LATTICE PARAMETERS (ANGSTROMS AND DEGREES) - BOHR = 0.5291772083 ANGSTROM
 PRIMITIVE CELL - CENTRING CODE 1/0 VOLUME=   860.123517 - DENSITY  0.753 g/cm^3
         A              B              C           ALPHA      BETA       GAMMA 
    15.02361100    15.02391600     5.94642800    54.368405  89.999958 119.995964
 *******************************************************************************
 ATOMS IN THE ASYMMETRIC UNIT   42 - ATOMS IN THE UNIT CELL:   42
     ATOM                 X/A                 Y/B                 Z/C    
 *******************************************************************************
      1 T   5 B    -4.633324500000E-01  7.327658000000E-02 -4.989170800000E-01
      2 T   5 B    -3.042767900000E-01  2.323362400000E-01 -4.989170700000E-01
      3 T   5 B    -4.629859100000E-01  2.330207100000E-01  4.988004000000E-01
      4 T   5 B     1.502422600000E-01  4.595915800000E-01 -4.989170700000E-01
      5 T   5 B     3.093502300000E-01  4.595708100000E-01 -4.989170800000E-01
      6 T   5 B     3.096813200000E-01 -3.805883100000E-01  4.988004000000E-01
      7 T   1 H    -1.732420800000E-01  1.563431500000E-01  4.963507800000E-01
      8 T   1 H     2.046005000000E-02 -4.613110100000E-01  4.956271600000E-01
      9 T   1 H    -1.731859400000E-01  4.417422200000E-01  4.955157900000E-01
     10 T   1 H     2.057455000000E-02  2.533461900000E-01  4.955435700000E-01
     11 T   1 H    -3.863741900000E-01 -5.782480000000E-02 -4.963561500000E-01
     12 T   1 H     2.314119100000E-01 -2.516140800000E-01 -4.956324700000E-01
     13 T   1 H     3.283350500000E-01 -5.803567000000E-02 -4.955210300000E-01
     14 T   1 H    -4.832184300000E-01 -2.517297300000E-01 -4.955490000000E-01
     15 T   1 H    -3.852129600000E-01  4.414673000000E-01  4.963508200000E-01
     16 T   1 H     2.327873600000E-01  2.532449000000E-01  4.956271100000E-01
     17 T   1 H     3.296832200000E-01  1.564930700000E-01  4.955157000000E-01
     18 T   1 H    -4.818707700000E-01 -4.613808500000E-01  4.955436600000E-01
     19 T   6 C    -1.847590400000E-01  2.926294100000E-01  4.987168800000E-01
     20 T   6 C    -1.298137000000E-01  2.401645000000E-01  4.964621400000E-01
     21 T   6 C    -2.288475000000E-02  4.546240400000E-01  4.962673600000E-01
     22 T   6 C    -1.299106100000E-01  4.009512300000E-01  4.968519100000E-01
     23 T   6 C    -2.270535000000E-02  2.939711200000E-01  4.953487200000E-01
     24 T   6 C     3.166890000000E-02  4.012861200000E-01  4.968797200000E-01
     25 T   6 C     4.769964800000E-01 -4.593309000000E-02 -4.987222100000E-01
     26 T   6 C    -4.702116200000E-01 -1.012387400000E-01 -4.964675200000E-01
     27 T   6 C     3.153792500000E-01 -2.081914200000E-01 -4.962726700000E-01
     28 T   6 C     3.689580000000E-01 -1.010720300000E-01 -4.968571900000E-01
     29 T   6 C     4.761562500000E-01 -2.085134000000E-01 -4.953541100000E-01
     30 T   6 C     3.686026100000E-01 -2.626742600000E-01 -4.968850600000E-01
     31 T   6 C     4.773955200000E-01  2.925602700000E-01  4.987168800000E-01
     32 T   6 C    -4.690926000000E-01  4.010046300000E-01  4.964621900000E-01
     33 T   6 C     3.165505000000E-01  2.936107900000E-01  4.962673100000E-01
     34 T   6 C     3.699245500000E-01  2.399490500000E-01  4.968518500000E-01
     35 T   6 C     4.776112700000E-01  4.548191300000E-01  4.953487800000E-01
     36 T   6 C     3.695929900000E-01  4.012087200000E-01  4.968797200000E-01
     37 T   8 O     4.839803800000E-01  1.268424200000E-01  4.994127800000E-01
     38 T   8 O    -3.578147300000E-01  1.253697200000E-01 -4.957716400000E-01
     39 T   8 O    -3.567004100000E-01  2.865482800000E-01  4.969632500000E-01
     40 T   8 O     2.035682000000E-01 -4.338771100000E-01  4.994128000000E-01
     41 T   8 O     2.028475500000E-01  4.056870100000E-01 -4.957716500000E-01
     42 T   8 O     3.628840200000E-01 -4.331397600000E-01  4.969632300000E-01

 T = ATOM BELONGING TO THE ASYMMETRIC UNIT

 ****    1 SYMMOPS - TRANSLATORS IN FRACTIONAL UNITS
 **** MATRICES AND TRANSLATORS IN THE CRYSTALLOGRAPHIC REFERENCE FRAME
   V INV                    ROTATION MATRICES                   TRANSLATORS
   1   1  1.00 -0.00  0.00  0.00  1.00  0.00 -0.00  0.00  1.00  0.00  0.00  0.00

 DIRECT LATTICE VECTORS CARTESIAN COMPONENTS (ANGSTROM)
          X                    Y                    Z
   0.130113578931E+02  -0.751088897922E+01   0.000000000000E+00
   0.000000000000E+00   0.150239160000E+02   0.000000000000E+00
   0.199974688904E+01   0.346421802446E+01   0.440002407016E+01


 CARTESIAN COORDINATES - PRIMITIVE CELL
 *******************************************************************************
 *      ATOM          X(ANGSTROM)         Y(ANGSTROM)         Z(ANGSTROM)
 *******************************************************************************
    1     5 B    -7.026292209035E+00  2.852582233860E+00 -2.195247161014E+00
    2     5 B    -4.956762071861E+00  4.047631835555E+00 -2.195247117014E+00
    3     5 B     5.985010177716E+00 -2.268834325136E+00 -2.205290303954E+00
    4     5 B     9.571479569007E-01  4.048054850777E+00 -2.195247117014E+00
    5     5 B     3.027358678211E+00  2.852700471021E+00 -2.195247161014E+00
    6     5 B     3.027102146427E+00  5.243742498350E+00 -2.205290303954E+00
    7     1 H    -3.261285665879E+00  1.905337676256E+00 -2.216068690917E+00
    8     1 H     1.257341904393E+00 -5.367410487092E+00  2.180771433825E+00
    9     1 H    -1.262478087863E+00 -5.369862893844E+00  2.180281403144E+00
   10     1 H    -7.410823430096E-01  1.904171659273E+00 -2.219620434347E+00
   11     1 H    -4.020092644509E+00  3.777990810685E+00  2.216045062788E+00
   12     1 H     4.019590580776E+00 -3.771098878438E+00  2.219229272207E+00
   13     1 H     5.280915095228E+00 -1.590385998785E+00  2.219719610889E+00
   14     1 H    -5.278553615328E+00  1.594961908874E+00  2.219596542216E+00
   15     1 H    -4.019567679437E+00 -3.778589135039E+00  2.183955555243E+00
   16     1 H     2.020261536247E+00  3.090324317176E-01 -2.219252856336E+00
   17     1 H     3.280785457261E+00 -1.872718930584E+00 -2.219743063018E+00
   18     1 H    -5.278831154205E+00 -1.595797999731E+00  2.180404031815E+00
   19     6 C    -3.406405353165E+00  4.047590292656E+00 -2.205657793965E+00
   20     6 C    -2.696000779170E+00  2.838862632254E+00 -2.215578704237E+00
   21     6 C    -1.305099452291E+00  5.257078514112E+00 -2.216435740925E+00
   22     6 C    -2.696482268519E+00  5.256587086199E+00 -2.213863706855E+00
   23     6 C    -1.304602262167E+00  2.838912716148E+00 -2.220477779037E+00
   24     6 C    -5.940578227630E-01  4.048109024406E+00 -2.213741342185E+00
   25     6 C     7.208800616105E+00 -2.536226935159E+00  2.205634341836E+00
   26     6 C    -5.111154162884E+00  3.755051241968E+00  2.215555032107E+00
   27     6 C     5.110839454885E+00 -3.751607643101E+00  2.216412376797E+00
   28     6 C     5.806802854546E+00 -2.546703873385E+00  2.213840474728E+00
   29     6 C    -5.806754462697E+00  2.550047830339E+00  2.220454062907E+00
   30     6 C     1.802629237041E+00  3.123450495845E+00 -6.586330294262E+00
   31     6 C     5.209124607514E+00 -9.268178481384E-01 -2.205657793965E+00
   32     6 C     5.900878020411E+00  2.927085796886E-01 -2.215578484235E+00
   33     6 C     3.111413966991E+00  2.885683196316E-01 -2.216435960926E+00
   34     6 C     3.807051765790E+00 -9.165027444594E-01 -2.213863970856E+00
   35     6 C     5.205196460483E+00  1.497657327732E+00 -2.220477515035E+00
   36     6 C     3.802793452912E+00  1.508835849915E+00 -2.213741342185E+00
   37     8 O     5.296194201510E+00 -3.463596309319E+00 -2.202595817214E+00
   38     8 O    -5.647073306201E+00  2.853589803079E+00 -2.181407149303E+00
   39     8 O    -1.647609092917E+00 -2.853894460384E+00  6.586674332144E+00
   40     8 O     1.647651009953E+00  5.242261394085E+00 -2.202595729214E+00
   41     8 O     1.647904256018E+00  2.853981046830E+00 -2.181407193303E+00
   42     8 O     3.715667642011E+00  4.048249997349E+00 -2.213373896175E+00

 *******************************************************************************
 STARTING BASIS SET HANDLING 
 *******************************************************************************

 Loading internal basis set: SOLDEF2MSVP         

 Please cite in your publication:
 L. Dona', J. G. Brandenburg and B. Civalleri, J. Chem. Phys., 151, 121101 (2019
 )                                                                              
                                                                                
                    

 *******************************************************************************
 LOCAL ATOMIC FUNCTIONS BASIS SET
 *******************************************************************************
   ATOM   X(AU)   Y(AU)   Z(AU)  N. TYPE  EXPONENT  S COEF   P COEF   D/F/G COEF
 *******************************************************************************
   1 B  -13.278   5.391  -4.148
                                  1 S  
                                         2.410E+03 1.755E-03 0.000E+00 0.000E+00
                                         3.619E+02 1.344E-02 0.000E+00 0.000E+00
                                         8.231E+01 6.637E-02 0.000E+00 0.000E+00
                                         2.311E+01 2.303E-01 0.000E+00 0.000E+00
                                         7.252E+00 5.150E-01 0.000E+00 0.000E+00
                                  2 S  
                                         2.367E+00 1.000E+00 0.000E+00 0.000E+00
                                  3 S  
                                         5.533E-01 1.000E+00 0.000E+00 0.000E+00
                                  4 S  
                                         1.716E-01 1.000E+00 0.000E+00 0.000E+00
                           5-     7 P  
                                         6.002E+00 0.000E+00-3.555E-02 0.000E+00
                                         1.240E+00 0.000E+00-1.983E-01 0.000E+00
                                         3.367E-01 0.000E+00-5.048E-01 0.000E+00
                           8-    10 P  
                                         1.256E-01 0.000E+00 1.000E+00 0.000E+00
                          11-    15 D  
                                         8.880E-01 0.000E+00 0.000E+00 1.000E+00
   2 B   -9.367   7.649  -4.148
   3 B   11.310  -4.287  -4.167
   4 B    1.809   7.650  -4.148
   5 B    5.721   5.391  -4.148
   6 B    5.720   9.909  -4.167
   7 H   -6.163   3.601  -4.188
                                 91 S  
                                         1.874E+01 1.968E-02 0.000E+00 0.000E+00
                                         2.826E+00 1.380E-01 0.000E+00 0.000E+00
                                         6.401E-01 4.783E-01 0.000E+00 0.000E+00
                                 92 S  
                                         1.756E-01 1.000E+00 0.000E+00 0.000E+00
   8 H    2.376 -10.143   4.121
   9 H   -2.386 -10.148   4.120
  10 H   -1.400   3.598  -4.194
  11 H   -7.597   7.139   4.188
  12 H    7.596  -7.126   4.194
  13 H    9.979  -3.005   4.195
  14 H   -9.975   3.014   4.194
  15 H   -7.596  -7.140   4.127
  16 H    3.818   0.584  -4.194
  17 H    6.200  -3.539  -4.195
  18 H   -9.976  -3.016   4.120
  19 C   -6.437   7.649  -4.168
                                115 S  
                                         3.624E+03 1.634E-03 0.000E+00 0.000E+00
                                         5.440E+02 1.252E-02 0.000E+00 0.000E+00
                                         1.237E+02 6.211E-02 0.000E+00 0.000E+00
                                         3.476E+01 2.182E-01 0.000E+00 0.000E+00
                                         1.093E+01 4.980E-01 0.000E+00 0.000E+00
                                116 S  
                                         3.574E+00 1.000E+00 0.000E+00 0.000E+00
                                117 S  
                                         7.742E-01 1.000E+00 0.000E+00 0.000E+00
                                118 S  
                                         2.330E-01 1.000E+00 0.000E+00 0.000E+00
                         119-   121 P  
                                         9.443E+00 0.000E+00 3.790E-02 0.000E+00
                                         2.002E+00 0.000E+00 2.082E-01 0.000E+00
                                         5.463E-01 0.000E+00 5.047E-01 0.000E+00
                         122-   124 P  
                                         1.820E-01 0.000E+00 1.000E+00 0.000E+00
                         125-   129 D  
                                         8.880E-01 0.000E+00 0.000E+00 1.000E+00
  20 C   -5.095   5.365  -4.187
  21 C   -2.466   9.934  -4.188
  22 C   -5.096   9.934  -4.184
  23 C   -2.465   5.365  -4.196
  24 C   -1.123   7.650  -4.183
  25 C   13.623  -4.793   4.168
  26 C   -9.659   7.096   4.187
  27 C    9.658  -7.090   4.188
  28 C   10.973  -4.813   4.184
  29 C  -10.973   4.819   4.196
  30 C    3.406   5.902 -12.446
  31 C    9.844  -1.751  -4.168
  32 C   11.151   0.553  -4.187
  33 C    5.880   0.545  -4.188
  34 C    7.194  -1.732  -4.184
  35 C    9.836   2.830  -4.196
  36 C    7.186   2.851  -4.183
  37 O   10.008  -6.545  -4.162
                                385 S  
                                         6.773E+03 1.727E-03 0.000E+00 0.000E+00
                                         1.017E+03 1.325E-02 0.000E+00 0.000E+00
                                         2.313E+02 6.603E-02 0.000E+00 0.000E+00
                                         6.501E+01 2.353E-01 0.000E+00 0.000E+00
                                         2.050E+01 5.498E-01 0.000E+00 0.000E+00
                                386 S  
                                         6.716E+00 1.000E+00 0.000E+00 0.000E+00
                                387 S  
                                         1.147E+00 1.000E+00 0.000E+00 0.000E+00
                                388 S  
                                         3.342E-01 1.000E+00 0.000E+00 0.000E+00
                         389-   391 P  
                                         1.769E+01 0.000E+00 4.359E-02 0.000E+00
                                         3.854E+00 0.000E+00 2.318E-01 0.000E+00
                                         1.047E+00 0.000E+00 5.146E-01 0.000E+00
                         392-   394 P  
                                         2.759E-01 0.000E+00 1.000E+00 0.000E+00
                         395-   399 D  
                                         8.000E-01 0.000E+00 0.000E+00 1.000E+00
  38 O  -10.671   5.393  -4.122
  39 O   -3.114  -5.393  12.447
  40 O    3.114   9.906  -4.162
  41 O    3.114   5.393  -4.122
  42 O    7.022   7.650  -4.183

 *******************************************************************************
 FINISHED BASIS SET HANDLING 
 *******************************************************************************

 INFORMATION **** SET_MPP **** PCRYSTAL CALCULATION
 INFORMATION **** READM2 **** NEW DEFAULT: FOCK/KS MATRIX MIXING SET TO 30 %
 INFORMATION **** READM2 **** NEW DEFAULT: FULL DIRECT SCF MODE
 INFORMATION **** READM2 **** NEW DEFAULT: COULOMB BIPOLAR BUFFER SET TO 32 Mb
 INFORMATION **** READM2 **** NEW DEFAULT: EXCHANGE BIPOLAR BUFFER SET TO 32 Mb

 *******************************************************************************
 NEW DEFAULT: DFT INTEGRATION GRID INCREASED TO XLGRID
 NEW DEFAULT: DIIS ACCELERATOR ACTIVE
 USE KEYWORD NODIIS TO TURN IT OFF
 *******************************************************************************

 WARNING **** RDDFTP **** HSEsol-HJS ACTIVE
 RANGE SEPARATION - OMEGA:   0.110000000000000     
 WARNING **** RDDFTP **** HSEsol-3c has to be combined with sol-def2-mSVP basis set
 *******************************************************************************
 N. OF ATOMS PER CELL        42  COULOMB OVERLAP TOL         (T1) 10**   -6
 NUMBER OF SHELLS           234  COULOMB PENETRATION TOL     (T2) 10**   -6
 NUMBER OF AO               474  EXCHANGE OVERLAP TOL        (T3) 10**   -6
 N. OF ELECTRONS PER CELL   198  EXCHANGE PSEUDO OVP (F(G))  (T4) 10**   -6
 CORE ELECTRONS PER CELL     60  EXCHANGE PSEUDO OVP (P(G))  (T5) 10**  -12
 N. OF SYMMETRY OPERATORS     1  POLE ORDER IN MONO ZONE                  4
 *******************************************************************************
 TYPE OF CALCULATION :  RESTRICTED CLOSED SHELL
 KOHN-SHAM HAMILTONIAN

 (EXCHANGE)[CORRELATION] FUNCTIONAL:(HSEsol GGA)[PBEsol]

 RANGE-SEPARATED HYBRID FUNCTIONAL 
 OMEGA (SHORT-RANGE)[LONG-RANGE]:(    0.1100)[    0.0000]

 HYBRID EXCHANGE - PERCENTAGE OF FOCK EXCHANGE    25.0000

 CAPPA:IS1  2;IS2  2;IS3  8; K PTS MONK NET  20; SYMMOPS:K SPACE   2;G SPACE   1

 *******************************************************************************
 MAX NUMBER OF SCF CYCLES      50  CONVERGENCE ON DELTAP        10**-16
 WEIGHT OF F(I) IN F(I+1)      30% CONVERGENCE ON ENERGY        10**- 6
 SHRINK. FACT.(MONKH.)    2  2  8  NUMBER OF K POINTS IN THE IBZ     20
 SHRINKING FACTOR(GILAT NET)    8  NUMBER OF K POINTS(GILAT NET)   1028
 *******************************************************************************
 *** K POINTS COORDINATES (OBLIQUE COORDINATES IN UNITS OF IS =  2)
   1-R(  0  0  0)   2-R(  1  0  0)   3-R(  0  1  0)   4-R(  1  1  0)
   5-C(  0  0  1)   6-C(  1  0  1)   7-C(  0  1  1)   8-C(  1  1  1)
   9-C(  0  0  2)  10-C(  1  0  2)  11-C(  0  1  2)  12-C(  1  1  2)
  13-C(  0  0  3)  14-C(  1  0  3)  15-C(  0  1  3)  16-C(  1  1  3)
  17-R(  0  0  4)  18-R(  1  0  4)  19-R(  0  1  4)  20-R(  1  1  4)

 DIRECT LATTICE VECTORS COMPON. (A.U.)     RECIP. LATTICE VECTORS COMPON. (A.U.) 
        X            Y            Z              X            Y            Z
   24.5879030  -14.1935232    0.0000000      0.2555397    0.0000000   -0.1161391
    0.0000000   28.3910867    0.0000000      0.1277517    0.2213084   -0.2323013
    3.7789740    6.5464233    8.3148405      0.0000000    0.0000000    0.7556592

 DISK SPACE FOR EIGENVECTORS (FTN 10)     7189632 REALS

 SYMMETRY ADAPTION OF THE BLOCH FUNCTIONS DISABLED
 TTTTTTTTTTTTTTTTTTTTTTTTTTTTTT gordsh1     TELAPSE        0.04 TCPU        0.04

 MATRIX SIZE: P(G)  285878, F(G)   58138, P(G) IRR  144022, F(G) IRR   58762
 MAX G-VECTOR INDEX FOR 1- AND 2-ELECTRON INTEGRALS  47

 TTTTTTTTTTTTTTTTTTTTTTTTTTTTTT INPUT       TELAPSE        0.33 TCPU        0.33

 NEIGHBORS OF THE NON-EQUIVALENT ATOMS

 N = NUMBER OF NEIGHBORS AT DISTANCE R
    ATOM  N     R/ANG      R/AU   NEIGHBORS (ATOM LABELS AND CELL INDICES)
   1 B    1     1.3791     2.6061   37 O   -1 0 0
   1 B    1     1.3793     2.6065   38 O    0 0 0
   1 B    1     1.5503     2.9297   25 C   -1 0-1
   1 B    1     2.3895     4.5155    3 B   -1 0 0
   1 B    1     2.3898     4.5160    2 B    0 0 0
   1 B    1     2.5632     4.8437   26 C    0 0-1

   2 B    1     1.3793     2.6065   39 O    0 1-2
   2 B    1     1.3793     2.6065   38 O    0 0 0
   2 B    1     1.5504     2.9298   19 C    0 0 0
   2 B    1     2.3895     4.5156    3 B   -1 0 0
   2 B    1     2.3898     4.5160    1 B    0 0 0
   2 B    1     2.5634     4.8440   22 C    0 0 0

   3 B    1     1.3791     2.6061   37 O    0 0 0
   3 B    1     1.3793     2.6064   39 O    1 1-2
   3 B    1     1.5502     2.9294   31 C    0 0 0
   3 B    1     2.3895     4.5155    1 B    1 0 0
   3 B    1     2.3895     4.5156    2 B    1 0 0
   3 B    1     2.5629     4.8433   32 C    0 0 0

   4 B    1     1.3795     2.6068   40 O    0 0 0
   4 B    1     1.3795     2.6070   41 O    0 0 0
   4 B    1     1.5513     2.9316   24 C    0 0 0
   4 B    1     2.3905     4.5174    6 B    0 0 0
   4 B    1     2.3905     4.5175    5 B    0 0 0
   4 B    1     2.5648     4.8468   23 C    0 0 0

   5 B    1     1.3795     2.6069   41 O    0 0 0
   5 B    1     1.3797     2.6072   42 O    0 0 0
   5 B    1     1.5516     2.9322   36 C    0 0 0
   5 B    1     2.3905     4.5175    4 B    0 0 0
   5 B    1     2.3911     4.5185    6 B    0 0 0
   5 B    1     2.5651     4.8473   35 C    0 0 0

   6 B    1     1.3795     2.6068   40 O    0 0 0
   6 B    1     1.3796     2.6071   42 O    0 0 0
   6 B    1     1.5516     2.9322   30 C    0 0 1
   6 B    1     2.3905     4.5174    4 B    0 0 0
   6 B    1     2.3911     4.5185    5 B    0 0 0
   6 B    1     2.5651     4.8473   29 C    1 1-1

   7 H    1     1.0913     2.0623   20 C    0 0 0
   7 H    1     2.1472     4.0576   19 C    0 0 0
   7 H    1     2.1680     4.0969   23 C    0 0 0
   7 H    1     2.5202     4.7625   10 H    0 0 0
   7 H    1     2.5676     4.8520   38 O    0 0 0
   7 H    1     2.7321     5.1630    2 B    0 0 0

   8 H    1     1.0914     2.0625   21 C    0-1 1
   8 H    1     2.1493     4.0616   24 C    0-1 1
   8 H    1     2.1666     4.0942   22 C    0-1 1
   8 H    1     2.5198     4.7618    9 H    0 0 0
   8 H    1     2.5720     4.8604   40 O    0-1 1
   8 H    1     2.7362     5.1707    4 B    0-1 1

   9 H    1     1.0914     2.0624   22 C    0-1 1
   9 H    1     2.1471     4.0575   19 C    0-1 1
   9 H    1     2.1680     4.0970   21 C    0-1 1
   9 H    1     2.5198     4.7618    8 H    0 0 0
   9 H    1     2.5665     4.8500   39 O    0 0-1
   9 H    1     2.7315     5.1618    2 B    0-1 1

  10 H    1     1.0915     2.0626   23 C    0 0 0
  10 H    1     2.1490     4.0610   24 C    0 0 0
  10 H    1     2.1669     4.0948   20 C    0 0 0
  10 H    1     2.5202     4.7625    7 H    0 0 0
  10 H    1     2.5712     4.8588   41 O    0 0 0
  10 H    1     2.7351     5.1686    4 B    0 0 0

  11 H    1     1.0913     2.0623   26 C    0 0 0
  11 H    1     2.1469     4.0571   25 C   -1 0 0
  11 H    1     2.1680     4.0968   29 C    0 0 0
  11 H    1     2.5198     4.7617   14 H    0 0 0
  11 H    1     2.5670     4.8510   38 O    0 0 1
  11 H    1     2.7310     5.1609    1 B    0 0 1

  12 H    1     1.0914     2.0625   27 C    0 0 0
  12 H    1     2.1493     4.0617   30 C    0-1 2
  12 H    1     2.1664     4.0939   28 C    0 0 0
  12 H    1     2.5192     4.7606   13 H    0 0 0
  12 H    1     2.5735     4.8632   40 O    0-1 1
  12 H    1     2.7371     5.1723    6 B    0-1 1

  13 H    1     1.0914     2.0624   28 C    0 0 0
  13 H    1     2.1475     4.0581   25 C    0 0 0
  13 H    1     2.1679     4.0967   27 C    0 0 0
  13 H    1     2.5192     4.7606   12 H    0 0 0
  13 H    1     2.5675     4.8519   37 O    0 0 1
  13 H    1     2.7328     5.1643    1 B    1 0 1

  14 H    1     1.0914     2.0625   29 C    0 0 0
  14 H    1     2.1491     4.0612   30 C   -1-1 2
  14 H    1     2.1666     4.0942   26 C    0 0 0
  14 H    1     2.5198     4.7617   11 H    0 0 0
  14 H    1     2.5723     4.8609   42 O   -1-1 1
  14 H    1     2.7355     5.1693    6 B   -1-1 1

  15 H    1     1.0914     2.0624   32 C   -1-1 1
  15 H    1     2.1475     4.0582   31 C   -1-1 1
  15 H    1     2.1678     4.0966   35 C   -1-1 1
  15 H    1     2.5200     4.7621   18 H    0 0 0
  15 H    1     2.5667     4.8503   39 O    0 0-1
  15 H    1     2.7315     5.1618    3 B   -1-1 1

  16 H    1     1.0913     2.0623   33 C    0 0 0
  16 H    1     2.1487     4.0605   36 C    0 0 0
  16 H    1     2.1667     4.0945   34 C    0 0 0
  16 H    1     2.5197     4.7616   17 H    0 0 0
  16 H    1     2.5723     4.8610   41 O    0 0 0
  16 H    1     2.7359     5.1701    5 B    0 0 0

  17 H    1     1.0915     2.0626   34 C    0 0 0
  17 H    1     2.1479     4.0589   31 C    0 0 0
  17 H    1     2.1679     4.0968   33 C    0 0 0
  17 H    1     2.5197     4.7616   16 H    0 0 0
  17 H    1     2.5677     4.8522   37 O    0 0 0
  17 H    1     2.7331     5.1648    3 B    0 0 0

  18 H    1     1.0914     2.0624   35 C   -1-1 1
  18 H    1     2.1486     4.0602   36 C   -1-1 1
  18 H    1     2.1668     4.0947   32 C   -1-1 1
  18 H    1     2.5200     4.7621   15 H    0 0 0
  18 H    1     2.5717     4.8598   42 O   -1-1 1
  18 H    1     2.7349     5.1682    5 B   -1-1 1

  19 C    1     1.4020     2.6495   22 C    0 0 0
  19 C    1     1.4021     2.6495   20 C    0 0 0
  19 C    1     1.5504     2.9298    2 B    0 0 0
  19 C    1     2.1471     4.0575    9 H    0 1-1
  19 C    1     2.1472     4.0576    7 H    0 0 0
  19 C    1     2.4246     4.5817   21 C    0 0 0

  20 C    1     1.0913     2.0623    7 H    0 0 0
  20 C    1     1.3914     2.6294   23 C    0 0 0
  20 C    1     1.4021     2.6495   19 C    0 0 0
  20 C    1     2.1669     4.0948   10 H    0 0 0
  20 C    1     2.4177     4.5688   22 C    0 0 0
  20 C    1     2.4250     4.5825   24 C    0 0 0

  21 C    1     1.0914     2.0625    8 H    0 1-1
  21 C    1     1.3914     2.6293   22 C    0 0 0
  21 C    1     1.4026     2.6505   24 C    0 0 0
  21 C    1     2.1680     4.0970    9 H    0 1-1
  21 C    1     2.4182     4.5697   23 C    0 0 0
  21 C    1     2.4246     4.5817   19 C    0 0 0

  22 C    1     1.0914     2.0624    9 H    0 1-1
  22 C    1     1.3914     2.6293   21 C    0 0 0
  22 C    1     1.4020     2.6495   19 C    0 0 0
  22 C    1     2.1666     4.0942    8 H    0 1-1
  22 C    1     2.4177     4.5688   20 C    0 0 0
  22 C    1     2.4250     4.5826   24 C    0 0 0

  23 C    1     1.0915     2.0626   10 H    0 0 0
  23 C    1     1.3914     2.6294   20 C    0 0 0
  23 C    1     1.4025     2.6504   24 C    0 0 0
  23 C    1     2.1680     4.0969    7 H    0 0 0
  23 C    1     2.4182     4.5697   21 C    0 0 0
  23 C    1     2.4246     4.5818   19 C    0 0 0

  24 C    1     1.4025     2.6504   23 C    0 0 0
  24 C    1     1.4026     2.6505   21 C    0 0 0
  24 C    1     1.5513     2.9316    4 B    0 0 0
  24 C    1     2.1490     4.0610   10 H    0 0 0
  24 C    1     2.1493     4.0616    8 H    0 1-1
  24 C    1     2.4250     4.5825   20 C    0 0 0

  25 C    1     1.4020     2.6494   26 C    1 0 0
  25 C    1     1.4021     2.6495   28 C    0 0 0
  25 C    1     1.5503     2.9297    1 B    1 0 1
  25 C    1     2.1469     4.0571   11 H    1 0 0
  25 C    1     2.1475     4.0581   13 H    0 0 0
  25 C    1     2.4246     4.5818   27 C    0 0 0

  26 C    1     1.0913     2.0623   11 H    0 0 0
  26 C    1     1.3914     2.6293   29 C    0 0 0
  26 C    1     1.4020     2.6494   25 C   -1 0 0
  26 C    1     2.1666     4.0942   14 H    0 0 0
  26 C    1     2.4175     4.5684   28 C   -1 0 0
  26 C    1     2.4251     4.5828   30 C   -1-1 2

  27 C    1     1.0914     2.0625   12 H    0 0 0
  27 C    1     1.3915     2.6295   28 C    0 0 0
  27 C    1     1.4026     2.6505   30 C    0-1 2
  27 C    1     2.1679     4.0967   13 H    0 0 0
  27 C    1     2.4179     4.5691   29 C    1 0 0
  27 C    1     2.4246     4.5818   25 C    0 0 0

  28 C    1     1.0914     2.0624   13 H    0 0 0
  28 C    1     1.3915     2.6295   27 C    0 0 0
  28 C    1     1.4021     2.6495   25 C    0 0 0
  28 C    1     2.1664     4.0939   12 H    0 0 0
  28 C    1     2.4175     4.5684   26 C    1 0 0
  28 C    1     2.4253     4.5832   30 C    0-1 2

  29 C    1     1.0914     2.0625   14 H    0 0 0
  29 C    1     1.3914     2.6293   26 C    0 0 0
  29 C    1     1.4025     2.6504   30 C   -1-1 2
  29 C    1     2.1680     4.0968   11 H    0 0 0
  29 C    1     2.4179     4.5691   27 C   -1 0 0
  29 C    1     2.4247     4.5819   25 C   -1 0 0

  30 C    1     1.4025     2.6504   29 C    1 1-2
  30 C    1     1.4026     2.6505   27 C    0 1-2
  30 C    1     1.5516     2.9322    6 B    0 0-1
  30 C    1     2.1491     4.0612   14 H    1 1-2
  30 C    1     2.1493     4.0617   12 H    0 1-2
  30 C    1     2.4251     4.5828   26 C    1 1-2

  31 C    1     1.4021     2.6496   32 C    0 0 0
  31 C    1     1.4021     2.6497   34 C    0 0 0
  31 C    1     1.5502     2.9294    3 B    0 0 0
  31 C    1     2.1475     4.0582   15 H    1 1-1
  31 C    1     2.1479     4.0589   17 H    0 0 0
  31 C    1     2.4244     4.5814   33 C    0 0 0

  32 C    1     1.0914     2.0624   15 H    1 1-1
  32 C    1     1.3914     2.6293   35 C    0 0 0
  32 C    1     1.4021     2.6496   31 C    0 0 0
  32 C    1     2.1668     4.0947   18 H    1 1-1
  32 C    1     2.4179     4.5692   34 C    0 0 0
  32 C    1     2.4251     4.5827   36 C    0 0 0

  33 C    1     1.0913     2.0623   16 H    0 0 0
  33 C    1     1.3914     2.6294   34 C    0 0 0
  33 C    1     1.4025     2.6504   36 C    0 0 0
  33 C    1     2.1679     4.0968   17 H    0 0 0
  33 C    1     2.4178     4.5690   35 C    0 0 0
  33 C    1     2.4244     4.5814   31 C    0 0 0

  34 C    1     1.0915     2.0626   17 H    0 0 0
  34 C    1     1.3914     2.6294   33 C    0 0 0
  34 C    1     1.4021     2.6497   31 C    0 0 0
  34 C    1     2.1667     4.0945   16 H    0 0 0
  34 C    1     2.4179     4.5692   32 C    0 0 0
  34 C    1     2.4253     4.5832   36 C    0 0 0

  35 C    1     1.0914     2.0624   18 H    1 1-1
  35 C    1     1.3914     2.6293   32 C    0 0 0
  35 C    1     1.4025     2.6503   36 C    0 0 0
  35 C    1     2.1678     4.0966   15 H    1 1-1
  35 C    1     2.4178     4.5690   33 C    0 0 0
  35 C    1     2.4245     4.5817   31 C    0 0 0

  36 C    1     1.4025     2.6503   35 C    0 0 0
  36 C    1     1.4025     2.6504   33 C    0 0 0
  36 C    1     1.5516     2.9322    5 B    0 0 0
  36 C    1     2.1486     4.0602   18 H    1 1-1
  36 C    1     2.1487     4.0605   16 H    0 0 0
  36 C    1     2.4251     4.5827   32 C    0 0 0

  37 O    1     1.3791     2.6061    3 B    0 0 0
  37 O    1     1.3791     2.6061    1 B    1 0 0
  37 O    1     2.3880     4.5126   38 O    1 0 0
  37 O    1     2.3882     4.5130   39 O    1 1-2
  37 O    1     2.5383     4.7966   31 C    0 0 0
  37 O    1     2.5384     4.7968   25 C    0 0-1

  38 O    1     1.3793     2.6065    1 B    0 0 0
  38 O    1     1.3793     2.6065    2 B    0 0 0
  38 O    1     2.3880     4.5126   37 O   -1 0 0
  38 O    1     2.3882     4.5131   39 O    0 1-2
  38 O    1     2.5391     4.7981   19 C    0 0 0
  38 O    1     2.5395     4.7990   25 C   -1 0-1

  39 O    1     1.3793     2.6064    3 B   -1-1 2
  39 O    1     1.3793     2.6065    2 B    0-1 2
  39 O    1     2.3882     4.5130   37 O   -1-1 2
  39 O    1     2.3882     4.5131   38 O    0-1 2
  39 O    1     2.5390     4.7980   19 C    0-1 2
  39 O    1     2.5391     4.7982   31 C   -1-1 2

  40 O    1     1.3795     2.6068    6 B    0 0 0
  40 O    1     1.3795     2.6068    4 B    0 0 0
  40 O    1     2.3880     4.5126   42 O    0 0 0
  40 O    1     2.3884     4.5134   41 O    0 0 0
  40 O    1     2.5400     4.7998   24 C    0 0 0
  40 O    1     2.5403     4.8005   30 C    0 0 1

  41 O    1     1.3795     2.6069    5 B    0 0 0
  41 O    1     1.3795     2.6070    4 B    0 0 0
  41 O    1     2.3881     4.5128   42 O    0 0 0
  41 O    1     2.3884     4.5134   40 O    0 0 0
  41 O    1     2.5404     4.8006   24 C    0 0 0
  41 O    1     2.5405     4.8008   36 C    0 0 0

  42 O    1     1.3796     2.6071    6 B    0 0 0
  42 O    1     1.3797     2.6072    5 B    0 0 0
  42 O    1     2.3880     4.5126   40 O    0 0 0
  42 O    1     2.3881     4.5128   41 O    0 0 0
  42 O    1     2.5409     4.8016   36 C    0 0 0
  42 O    1     2.5410     4.8019   30 C    0 0 1


 SYMMETRY ALLOWED INTERNAL DEGREE(S) OF FREEDOM: 123
 TTTTTTTTTTTTTTTTTTTTTTTTTTTTTT SYMM        TELAPSE        0.33 TCPU        0.33
 TTTTTTTTTTTTTTTTTTTTTTTTTTTTTT INT_SCREEN  TELAPSE        0.36 TCPU        0.36

 DFT PARAMETERS

     ATOM       ELECTRONS   NET CHARGE   R(ANGSTROM)
   1   5  B       5.0000      0.0000     0.89000000
   7   1  H       1.0000      0.0000     1.11000000
  19   6  C       6.0000      0.0000     0.77000000
  37   8  O       8.0000      0.0000     0.74000000

 SIZE OF GRID=    1336241
 TTTTTTTTTTTTTTTTTTTTTTTTTTTTTT MAKE_GRID2  TELAPSE        7.73 TCPU        7.72
 BECKE WEIGHT FUNCTION
 RADSAFE =     2.00
 TOLERANCES - DENSITY:10**- 6; POTENTIAL:10**- 9; GRID WGT:10**-14

 RADIAL INTEGRATION  - INTERVALS (POINTS,UPPER LIMIT):            1( 75,  4.0*R)

 ANGULAR INTEGRATION - INTERVALS (ACCURACY LEVEL [N. POINTS] UPPER LIMIT):
  1(  4[  86]   0.2)  2(  8[ 194]   0.5)  3( 12[ 350]   0.9)  4( 16[ 974]   3.5)
  5( 12[ 350]9999.0)
 TTTTTTTTTTTTTTTTTTTTTTTTTTTTTT INT_CALC    TELAPSE        7.80 TCPU        7.79
 EEEEEEEEEE INT_CALC TERMINATION  DATE 19 02 2026 TIME 19:18:54.2

 *******************************************************************************
 cof-1_z44_L040_incl                                                             
 CRYSTAL - SCF - TYPE OF CALCULATION :  RESTRICTED CLOSED SHELL
 *******************************************************************************

 CAPPA:IS1  2;IS2  2;IS3  8; K PTS MONK NET  20; SYMMOPS:K SPACE   2;G SPACE   1

 TTTTTTTTTTTTTTTTTTTTTTTTTTTTTT SDIK        TELAPSE        8.65 TCPU       18.83

 AAAAAAAAAAAAAAAAAAAAAAAAAAAAAAAAAAAAAAAAAAAAAAAAAAAAAAAAAAAAAAAAAAAAAAAAAAAAAAA
         ATOMIC WAVEFUNCTION(S)


 NUCLEAR CHARGE  5.0  SYMMETRY SPECIES            S    P
 N. ELECTRONS    5.0  NUMBER OF PRIMITIVE GTOS    8    4
                      NUMBER OF CONTRACTED GTOS   4    2
                      NUMBER OF CLOSED SHELLS     2    0
                      OPEN SHELL OCCUPATION       0    1

  ZNUC  SCFIT    TOTAL HF ENERGY   KINETIC ENERGY   VIRIAL THEOREM ACCURACY
   5.0    11    -2.451164084E+01  2.462155050E+01 -1.995536038E+00  1.5E-06

 NUCLEAR CHARGE  1.0  SYMMETRY SPECIES            S
 N. ELECTRONS    1.0  NUMBER OF PRIMITIVE GTOS    4
                      NUMBER OF CONTRACTED GTOS   2
                      NUMBER OF CLOSED SHELLS     0
                      OPEN SHELL OCCUPATION       1

  ZNUC  SCFIT    TOTAL HF ENERGY   KINETIC ENERGY   VIRIAL THEOREM ACCURACY
   1.0     1    -4.977266687E-01  5.190767460E-01 -1.958869132E+00  0.0E+00

 NUCLEAR CHARGE  6.0  SYMMETRY SPECIES            S    P
 N. ELECTRONS    6.0  NUMBER OF PRIMITIVE GTOS    8    4
                      NUMBER OF CONTRACTED GTOS   4    2
                      NUMBER OF CLOSED SHELLS     2    0
                      OPEN SHELL OCCUPATION       0    2

  ZNUC  SCFIT    TOTAL HF ENERGY   KINETIC ENERGY   VIRIAL THEOREM ACCURACY
   6.0     9    -3.766704647E+01  3.775180683E+01 -1.997754800E+00  1.1E-06

 NUCLEAR CHARGE  8.0  SYMMETRY SPECIES            S    P
 N. ELECTRONS    8.0  NUMBER OF PRIMITIVE GTOS    8    4
                      NUMBER OF CONTRACTED GTOS   4    2
                      NUMBER OF CLOSED SHELLS     2    0
                      OPEN SHELL OCCUPATION       0    4

  ZNUC  SCFIT    TOTAL HF ENERGY   KINETIC ENERGY   VIRIAL THEOREM ACCURACY
   8.0    12    -7.477373220E+01  7.477365593E+01 -2.000001020E+00  3.8E-06

 AAAAAAAAAAAAAAAAAAAAAAAAAAAAAAAAAAAAAAAAAAAAAAAAAAAAAAAAAAAAAAAAAAAAAAAAAAAAAAA

 CHARGE NORMALIZATION FACTOR   1.00000000
 TOTAL ATOMIC CHARGES:
   5.0000000   5.0000000   5.0000000   5.0000000   5.0000000   5.0000000
   1.0000000   1.0000000   1.0000000   1.0000000   1.0000000   1.0000000
   1.0000000   1.0000000   1.0000000   1.0000000   1.0000000   1.0000000
   6.0000000   6.0000000   6.0000000   6.0000000   6.0000000   6.0000000
   6.0000000   6.0000000   6.0000000   6.0000000   6.0000000   6.0000000
   6.0000000   6.0000000   6.0000000   6.0000000   6.0000000   6.0000000
   8.0000000   8.0000000   8.0000000   8.0000000   8.0000000   8.0000000
 TTTTTTTTTTTTTTTTTTTTTTTTTTTTTT MOQGAD      TELAPSE        8.70 TCPU       19.86
 TTTTTTTTTTTTTTTTTTTTTTTTTTTTTT SHELLXN     TELAPSE       13.94 TCPU      185.19
 TTTTTTTTTTTTTTTTTTTTTTTTTTTTTT MONMO3      TELAPSE       14.07 TCPU      189.40
 NUMERICALLY INTEGRATED DENSITY    197.9999470259
 TTTTTTTTTTTTTTTTTTTTTTTTTTTTTT NUMDFT      TELAPSE       14.58 TCPU      205.55
 CYC   0 ETOT(AU) -1.295954197416E+03 DETOT -1.30E+03 tst  0.00E+00 PX  1.00E+00
 TTTTTTTTTTTTTTTTTTTTTTTTTTTTTT DIIS        TELAPSE       14.61 TCPU      206.62
 TTTTTTTTTTTTTTTTTTTTTTTTTTTTTT FDIK        TELAPSE       15.11 TCPU      222.32
 INSULATING STATE
 TOP OF VALENCE BANDS -    BAND     99; K   17; EIG -3.1459855E-01 AU
 TOP OF VALENCE BANDS -    BAND     99; K    1; EIG -3.1534915E-01 AU
 BOTTOM OF VIRTUAL BANDS - BAND    100; K   17; EIG -1.5698056E-01 AU
 DIRECT ENERGY BAND GAP:   4.2890 eV
 BOTTOM OF VIRTUAL BANDS - BAND    100; K    1; EIG -1.5652975E-01 AU
 TTTTTTTTTTTTTTTTTTTTTTTTTTTTTT PDIG        TELAPSE       15.41 TCPU      228.48
 CHARGE NORMALIZATION FACTOR   1.00000000
 TOTAL ATOMIC CHARGES:
   4.1626646   4.1666224   4.1668514   4.1664833   4.1662521   4.1624528
   0.7850793   0.7851974   0.7850083   0.7851189   0.7852508   0.7854210
   0.7852406   0.7853850   0.7850059   0.7851832   0.7850319   0.7851906
   6.0429896   6.2652847   6.2652484   6.2649706   6.2649332   6.0422951
   6.0438365   6.2649412   6.2650141   6.2648558   6.2650341   6.0426041
   6.0433623   6.2647434   6.2653022   6.2649107   6.2655223   6.0418439
   8.6911103   8.6912311   8.6913984   8.6915671   8.6918113   8.6917499
 TTTTTTTTTTTTTTTTTTTTTTTTTTTTTT MOQGAD      TELAPSE       15.45 TCPU      228.52
 TTTTTTTTTTTTTTTTTTTTTTTTTTTTTT SHELLXN     TELAPSE       20.90 TCPU      402.09
 TTTTTTTTTTTTTTTTTTTTTTTTTTTTTT MONMO3      TELAPSE       21.03 TCPU      406.24
 NUMERICALLY INTEGRATED DENSITY    197.9999622159
 TTTTTTTTTTTTTTTTTTTTTTTTTTTTTT NUMDFT      TELAPSE       21.54 TCPU      422.51
 CYC   1 ETOT(AU) -1.288813973097E+03 DETOT  7.14E+00 tst  0.00E+00 PX  1.00E+00
 TTTTTTTTTTTTTTTTTTTTTTTTTTTTTT DIIS        TELAPSE       21.59 TCPU      423.98
 DIIS TEST: 0.11034E+01 AT SCF   CYCLE   1 - MIX   30 %
 TTTTTTTTTTTTTTTTTTTTTTTTTTTTTT FDIK        TELAPSE       22.08 TCPU      439.81
 INSULATING STATE
 TOP OF VALENCE BANDS -    BAND     99; K   17; EIG -2.2706637E-01 AU
 TOP OF VALENCE BANDS -    BAND     99; K    1; EIG -2.2892278E-01 AU
 BOTTOM OF VIRTUAL BANDS - BAND    100; K   17; EIG -7.9189560E-02 AU
 DIRECT ENERGY BAND GAP:   4.0239 eV
 BOTTOM OF VIRTUAL BANDS - BAND    100; K    1; EIG -7.8236989E-02 AU
 TTTTTTTTTTTTTTTTTTTTTTTTTTTTTT PDIG        TELAPSE       22.38 TCPU      445.96
 CHARGE NORMALIZATION FACTOR   1.00000000
 TOTAL ATOMIC CHARGES:
   4.6958945   4.7044918   4.7044727   4.7047038   4.7048008   4.6956135
   0.9083883   0.9084336   0.9144651   0.9146808   0.9057295   0.9055735
   0.9057337   0.9055311   0.9144830   0.9147458   0.9083311   0.9083528
   5.8674442   6.1312959   6.1317019   6.1394889   6.1399396   5.8698211
   5.8777253   6.1389168   6.1398473   6.1395010   6.1391148   5.8802892
   5.8671972   6.1392518   6.1401486   6.1316811   6.1314268   5.8700037
   8.3305201   8.3307431   8.3394867   8.3302588   8.3393419   8.3304286
 TTTTTTTTTTTTTTTTTTTTTTTTTTTTTT MOQGAD      TELAPSE       22.42 TCPU      446.00
 TTTTTTTTTTTTTTTTTTTTTTTTTTTTTT SHELLXN     TELAPSE       27.82 TCPU      618.10
 TTTTTTTTTTTTTTTTTTTTTTTTTTTTTT MONMO3      TELAPSE       27.95 TCPU      622.25
 NUMERICALLY INTEGRATED DENSITY    197.9999580836
 TTTTTTTTTTTTTTTTTTTTTTTTTTTTTT NUMDFT      TELAPSE       28.46 TCPU      638.60
 CYC   2 ETOT(AU) -1.289009520029E+03 DETOT -1.96E-01 tst  3.85E-03 PX  1.59E-01
 TTTTTTTTTTTTTTTTTTTTTTTTTTTTTT DIIS        TELAPSE       28.51 TCPU      640.04
 DIIS TEST: 0.45249E+00 AT SCF   CYCLE   2 - DIIS ACTIVE - HISTORY:     2 CYCLES
 TTTTTTTTTTTTTTTTTTTTTTTTTTTTTT FDIK        TELAPSE       29.02 TCPU      656.29
 INSULATING STATE
 TOP OF VALENCE BANDS -    BAND     99; K   17; EIG -2.3939204E-01 AU
 TOP OF VALENCE BANDS -    BAND     99; K    1; EIG -2.4000988E-01 AU
 BOTTOM OF VIRTUAL BANDS - BAND    100; K   17; EIG -7.4993081E-02 AU
 DIRECT ENERGY BAND GAP:   4.4735 eV
 BOTTOM OF VIRTUAL BANDS - BAND    100; K    1; EIG -7.4067735E-02 AU
 TTTTTTTTTTTTTTTTTTTTTTTTTTTTTT PDIG        TELAPSE       29.32 TCPU      662.45
 CHARGE NORMALIZATION FACTOR   1.00000000
 TOTAL ATOMIC CHARGES:
   4.4934748   4.5013021   4.5013715   4.5011593   4.5010343   4.4930674
   0.8872230   0.8873991   0.8919995   0.8922027   0.8857418   0.8858656
   0.8858565   0.8857097   0.8919651   0.8923056   0.8872166   0.8872838
   5.8914940   6.1608509   6.1606003   6.1577724   6.1569020   5.8909975
   5.8981568   6.1612258   6.1607485   6.1610541   6.1608306   5.8977807
   5.8917356   6.1577186   6.1570132   6.1606645   6.1608333   5.8906836
   8.5121666   8.5124277   8.5104774   8.5124918   8.5104164   8.5127792
 TTTTTTTTTTTTTTTTTTTTTTTTTTTTTT MOQGAD      TELAPSE       29.36 TCPU      662.49
 TTTTTTTTTTTTTTTTTTTTTTTTTTTTTT SHELLXN     TELAPSE       34.80 TCPU      835.73
 TTTTTTTTTTTTTTTTTTTTTTTTTTTTTT MONMO3      TELAPSE       34.93 TCPU      839.87
 NUMERICALLY INTEGRATED DENSITY    197.9999588509
 TTTTTTTTTTTTTTTTTTTTTTTTTTTTTT NUMDFT      TELAPSE       35.44 TCPU      856.14
 CYC   3 ETOT(AU) -1.289103066999E+03 DETOT -9.35E-02 tst  6.93E-04 PX  6.46E-02
 TTTTTTTTTTTTTTTTTTTTTTTTTTTTTT DIIS        TELAPSE       35.50 TCPU      857.96
 DIIS TEST: 0.13933E-01 AT SCF   CYCLE   3 - DIIS ACTIVE - HISTORY:     3 CYCLES
 TTTTTTTTTTTTTTTTTTTTTTTTTTTTTT FDIK        TELAPSE       36.01 TCPU      874.22
 INSULATING STATE
 TOP OF VALENCE BANDS -    BAND     99; K   17; EIG -2.4942348E-01 AU
 TOP OF VALENCE BANDS -    BAND     99; K    1; EIG -2.5146055E-01 AU
 BOTTOM OF VIRTUAL BANDS - BAND    100; K   17; EIG -8.3684179E-02 AU
 DIRECT ENERGY BAND GAP:   4.5100 eV
 BOTTOM OF VIRTUAL BANDS - BAND    100; K    1; EIG -8.2229284E-02 AU
 TTTTTTTTTTTTTTTTTTTTTTTTTTTTTT PDIG        TELAPSE       36.31 TCPU      880.37
 CHARGE NORMALIZATION FACTOR   1.00000000
 TOTAL ATOMIC CHARGES:
   4.4995210   4.5059692   4.5059976   4.5059726   4.5059031   4.4992712
   0.8702728   0.8703787   0.8742296   0.8743505   0.8672947   0.8672065
   0.8672979   0.8671600   0.8742735   0.8743964   0.8702397   0.8702977
   5.9374111   6.1645848   6.1647692   6.1689557   6.1697214   5.9395398
   5.9463105   6.1700604   6.1710623   6.1705659   6.1704073   5.9480393
   5.9373704   6.1685493   6.1701376   6.1647231   6.1646990   5.9394944
   8.4751831   8.4753090   8.4812941   8.4750738   8.4815117   8.4751942
 TTTTTTTTTTTTTTTTTTTTTTTTTTTTTT MOQGAD      TELAPSE       36.35 TCPU      880.41
 TTTTTTTTTTTTTTTTTTTTTTTTTTTTTT SHELLXN     TELAPSE       41.75 TCPU     1052.32
 TTTTTTTTTTTTTTTTTTTTTTTTTTTTTT MONMO3      TELAPSE       41.88 TCPU     1056.46
 NUMERICALLY INTEGRATED DENSITY    197.9999590036
 TTTTTTTTTTTTTTTTTTTTTTTTTTTTTT NUMDFT      TELAPSE       42.40 TCPU     1072.89
 CYC   4 ETOT(AU) -1.289106026837E+03 DETOT -2.96E-03 tst  2.61E-05 PX  1.39E-02
 TTTTTTTTTTTTTTTTTTTTTTTTTTTTTT DIIS        TELAPSE       42.46 TCPU     1074.83
 DIIS TEST: 0.41290E-02 AT SCF   CYCLE   4 - DIIS ACTIVE - HISTORY:     4 CYCLES
 TTTTTTTTTTTTTTTTTTTTTTTTTTTTTT FDIK        TELAPSE       42.97 TCPU     1091.41
 INSULATING STATE
 TOP OF VALENCE BANDS -    BAND     99; K   17; EIG -2.4762482E-01 AU
 TOP OF VALENCE BANDS -    BAND     99; K    1; EIG -2.4930619E-01 AU
 BOTTOM OF VIRTUAL BANDS - BAND    100; K   17; EIG -8.3174839E-02 AU
 DIRECT ENERGY BAND GAP:   4.4749 eV
 BOTTOM OF VIRTUAL BANDS - BAND    100; K    1; EIG -8.2040658E-02 AU
 TTTTTTTTTTTTTTTTTTTTTTTTTTTTTT PDIG        TELAPSE       43.28 TCPU     1097.56
 CHARGE NORMALIZATION FACTOR   1.00000000
 TOTAL ATOMIC CHARGES:
   4.5003844   4.5081906   4.5082458   4.5081887   4.5081065   4.5000213
   0.8731160   0.8732553   0.8777269   0.8779833   0.8708439   0.8709256
   0.8709250   0.8708013   0.8777120   0.8780808   0.8730919   0.8731588
   5.9213779   6.1659297   6.1657814   6.1676751   6.1668394   5.9210136
   5.9291876   6.1696282   6.1693378   6.1695744   6.1692710   5.9290667
   5.9214656   6.1675597   6.1669809   6.1658359   6.1659432   5.9208350
   8.4869116   8.4871641   8.4888000   8.4870757   8.4886457   8.4873417
 TTTTTTTTTTTTTTTTTTTTTTTTTTTTTT MOQGAD      TELAPSE       43.32 TCPU     1097.60
 TTTTTTTTTTTTTTTTTTTTTTTTTTTTTT SHELLXN     TELAPSE       48.75 TCPU     1270.32
 TTTTTTTTTTTTTTTTTTTTTTTTTTTTTT MONMO3      TELAPSE       48.88 TCPU     1274.47
 NUMERICALLY INTEGRATED DENSITY    197.9999590775
 TTTTTTTTTTTTTTTTTTTTTTTTTTTTTT NUMDFT      TELAPSE       49.40 TCPU     1290.95
 CYC   5 ETOT(AU) -1.289106970700E+03 DETOT -9.44E-04 tst  7.05E-06 PX  6.33E-03
 TTTTTTTTTTTTTTTTTTTTTTTTTTTTTT DIIS        TELAPSE       49.47 TCPU     1293.19
 DIIS TEST: 0.57508E-04 AT SCF   CYCLE   5 - DIIS ACTIVE - HISTORY:     5 CYCLES
 TTTTTTTTTTTTTTTTTTTTTTTTTTTTTT FDIK        TELAPSE       49.97 TCPU     1309.26
 INSULATING STATE
 TOP OF VALENCE BANDS -    BAND     99; K   17; EIG -2.4741413E-01 AU
 TOP OF VALENCE BANDS -    BAND     99; K    1; EIG -2.4907769E-01 AU
 BOTTOM OF VIRTUAL BANDS - BAND    100; K   17; EIG -8.2626893E-02 AU
 DIRECT ENERGY BAND GAP:   4.4841 eV
 BOTTOM OF VIRTUAL BANDS - BAND    100; K    1; EIG -8.1516514E-02 AU
 TTTTTTTTTTTTTTTTTTTTTTTTTTTTTT PDIG        TELAPSE       50.27 TCPU     1315.42
 CHARGE NORMALIZATION FACTOR   1.00000000
 TOTAL ATOMIC CHARGES:
   4.5007674   4.5078497   4.5078934   4.5077813   4.5077094   4.5004378
   0.8740886   0.8742025   0.8786975   0.8787851   0.8719262   0.8718260
   0.8719405   0.8717708   0.8787265   0.8788369   0.8740513   0.8741191
   5.9198126   6.1650318   6.1652105   6.1662674   6.1672565   5.9222240
   5.9280334   6.1683000   6.1693029   6.1687620   6.1687113   5.9298733
   5.9198966   6.1659130   6.1676408   6.1651503   6.1651547   5.9220552
   8.4860696   8.4861905   8.4895940   8.4860494   8.4899205   8.4861697
 TTTTTTTTTTTTTTTTTTTTTTTTTTTTTT MOQGAD      TELAPSE       50.32 TCPU     1315.46
 TTTTTTTTTTTTTTTTTTTTTTTTTTTTTT SHELLXN     TELAPSE       55.66 TCPU     1485.57
 TTTTTTTTTTTTTTTTTTTTTTTTTTTTTT MONMO3      TELAPSE       55.79 TCPU     1489.73
 NUMERICALLY INTEGRATED DENSITY    197.9999590525
 TTTTTTTTTTTTTTTTTTTTTTTTTTTTTT NUMDFT      TELAPSE       56.32 TCPU     1506.52
 CYC   6 ETOT(AU) -1.289106986550E+03 DETOT -1.58E-05 tst  1.17E-07 PX  7.74E-04
 TTTTTTTTTTTTTTTTTTTTTTTTTTTTTT DIIS        TELAPSE       56.39 TCPU     1508.90
 DIIS TEST: 0.11362E-04 AT SCF   CYCLE   6 - DIIS ACTIVE - HISTORY:     6 CYCLES
 TTTTTTTTTTTTTTTTTTTTTTTTTTTTTT FDIK        TELAPSE       56.91 TCPU     1525.35
 INSULATING STATE
 TOP OF VALENCE BANDS -    BAND     99; K   17; EIG -2.4741055E-01 AU
 TOP OF VALENCE BANDS -    BAND     99; K    1; EIG -2.4907602E-01 AU
 BOTTOM OF VIRTUAL BANDS - BAND    100; K   17; EIG -8.2684527E-02 AU
 DIRECT ENERGY BAND GAP:   4.4824 eV
 BOTTOM OF VIRTUAL BANDS - BAND    100; K    1; EIG -8.1553135E-02 AU
 TTTTTTTTTTTTTTTTTTTTTTTTTTTTTT PDIG        TELAPSE       57.21 TCPU     1531.51
 CHARGE NORMALIZATION FACTOR   1.00000000
 TOTAL ATOMIC CHARGES:
   4.5005875   4.5080705   4.5081237   4.5080653   4.5079802   4.5002462
   0.8740447   0.8741870   0.8785781   0.8788272   0.8717657   0.8718312
   0.8718400   0.8717157   0.8785725   0.8789142   0.8740225   0.8740881
   5.9212436   6.1651845   6.1650617   6.1670217   6.1662315   5.9210034
   5.9290574   6.1688603   6.1686842   6.1688704   6.1685481   5.9290524
   5.9212962   6.1668547   6.1664261   6.1651051   6.1652083   5.9208631
   8.4863583   8.4866002   8.4889422   8.4865030   8.4888074   8.4867560
 TTTTTTTTTTTTTTTTTTTTTTTTTTTTTT MOQGAD      TELAPSE       57.26 TCPU     1531.56
 TTTTTTTTTTTTTTTTTTTTTTTTTTTTTT SHELLXN     TELAPSE       62.67 TCPU     1703.81
 TTTTTTTTTTTTTTTTTTTTTTTTTTTTTT MONMO3      TELAPSE       62.81 TCPU     1708.18
 NUMERICALLY INTEGRATED DENSITY    197.9999590537
 TTTTTTTTTTTTTTTTTTTTTTTTTTTTTT NUMDFT      TELAPSE       63.33 TCPU     1724.73
 CYC   7 ETOT(AU) -1.289106988376E+03 DETOT -1.83E-06 tst  7.84E-08 PX  4.11E-04
 TTTTTTTTTTTTTTTTTTTTTTTTTTTTTT DIIS        TELAPSE       63.41 TCPU     1727.40
 DIIS TEST: 0.21396E-05 AT SCF   CYCLE   7 - DIIS ACTIVE - HISTORY:     7 CYCLES
 TTTTTTTTTTTTTTTTTTTTTTTTTTTTTT FDIK        TELAPSE       63.93 TCPU     1743.86
 INSULATING STATE
 TOP OF VALENCE BANDS -    BAND     99; K   17; EIG -2.4741063E-01 AU
 TOP OF VALENCE BANDS -    BAND     99; K    1; EIG -2.4908255E-01 AU
 BOTTOM OF VIRTUAL BANDS - BAND    100; K   17; EIG -8.2707369E-02 AU
 DIRECT ENERGY BAND GAP:   4.4818 eV
 BOTTOM OF VIRTUAL BANDS - BAND    100; K    1; EIG -8.1572312E-02 AU
 TTTTTTTTTTTTTTTTTTTTTTTTTTTTTT PDIG        TELAPSE       64.24 TCPU     1750.02
 CHARGE NORMALIZATION FACTOR   1.00000000
 TOTAL ATOMIC CHARGES:
   4.5006391   4.5081275   4.5081770   4.5080964   4.5080172   4.5002956
   0.8740210   0.8741523   0.8785893   0.8787664   0.8717547   0.8717589
   0.8718097   0.8716624   0.8785915   0.8788457   0.8739923   0.8740603
   5.9206610   6.1651079   6.1650939   6.1666662   6.1666419   5.9215161
   5.9286713   6.1686670   6.1689295   6.1688266   6.1686447   5.9294011
   5.9207535   6.1664567   6.1668789   6.1651039   6.1651643   5.9213363
   8.4863990   8.4865966   8.4889530   8.4864802   8.4890076   8.4866855
 TTTTTTTTTTTTTTTTTTTTTTTTTTTTTT MOQGAD      TELAPSE       64.28 TCPU     1750.06
 TTTTTTTTTTTTTTTTTTTTTTTTTTTTTT SHELLXN     TELAPSE       69.66 TCPU     1921.13
 TTTTTTTTTTTTTTTTTTTTTTTTTTTTTT MONMO3      TELAPSE       69.79 TCPU     1925.28
 NUMERICALLY INTEGRATED DENSITY    197.9999590533
 TTTTTTTTTTTTTTTTTTTTTTTTTTTTTT NUMDFT      TELAPSE       70.29 TCPU     1941.50
 CYC   8 ETOT(AU) -1.289106988715E+03 DETOT -3.39E-07 tst  1.29E-08 PX  1.49E-04
 TTTTTTTTTTTTTTTTTTTTTTTTTTTTTT DIIS        TELAPSE       70.38 TCPU     1944.12
 DIIS TEST: 0.12205E-06 AT SCF   CYCLE   8 - DIIS ACTIVE - HISTORY:     8 CYCLES
 TTTTTTTTTTTTTTTTTTTTTTTTTTTTTT FDIK        TELAPSE       70.87 TCPU     1960.04
 INSULATING STATE
 TOP OF VALENCE BANDS -    BAND     99; K   17; EIG -2.4741388E-01 AU
 TOP OF VALENCE BANDS -    BAND     99; K    1; EIG -2.4908505E-01 AU
 BOTTOM OF VIRTUAL BANDS - BAND    100; K   17; EIG -8.2700687E-02 AU
 DIRECT ENERGY BAND GAP:   4.4821 eV
 BOTTOM OF VIRTUAL BANDS - BAND    100; K    1; EIG -8.1569318E-02 AU
 TTTTTTTTTTTTTTTTTTTTTTTTTTTTTT PDIG        TELAPSE       71.17 TCPU     1966.19
 CHARGE NORMALIZATION FACTOR   1.00000000
 TOTAL ATOMIC CHARGES:
   4.5006734   4.5080892   4.5081390   4.5080630   4.5079834   4.5003312
   0.8740129   0.8741449   0.8785758   0.8787724   0.8717556   0.8717672
   0.8718104   0.8716710   0.8785810   0.8788488   0.8739852   0.8740517
   5.9207572   6.1651290   6.1651064   6.1667781   6.1665756   5.9213865
   5.9287228   6.1687020   6.1689088   6.1688577   6.1686271   5.9293204
   5.9208248   6.1665537   6.1668279   6.1651160   6.1651853   5.9212317
   8.4863258   8.4865278   8.4891083   8.4864185   8.4891248   8.4866279
 TTTTTTTTTTTTTTTTTTTTTTTTTTTTTT MOQGAD      TELAPSE       71.21 TCPU     1966.23
 TTTTTTTTTTTTTTTTTTTTTTTTTTTTTT SHELLXN     TELAPSE       76.46 TCPU     2132.98
 +++ ENERGIES IN A.U. +++
 ::: EXT EL-POLE                                  -1.1792613511309E+03
 ::: EXT EL-SPHEROPOLE                             1.2992513918393E+01
 ::: BIELET ZONE E-E                               1.9767699788209E+03
 ::: TOTAL E-E                                     8.1050114160839E+02
 ::: TOTAL E-N + N-E                              -3.4531250510013E+03
 ::: TOTAL N-N                                     2.0729534387073E+02
 ::: KINETIC ENERGY                                1.2799410575000E+03
 ::: PSEUDO TOTAL   ENERGY                        -1.1553875080222E+03
 ::: VIRIAL COEFFICIENT                            1.0511444538701E+00
 TTTTTTTTTTTTTTTTTTTTTTTTTTTTTT MONMO3      TELAPSE       76.59 TCPU     2137.12
 NUMERICALLY INTEGRATED DENSITY    197.9999590529
 EXCHANGE ENERGY: -0.126030126723E+03  CORRELATION ENERGY: -0.768935404315E+01
 TTTTTTTTTTTTTTTTTTTTTTTTTTTTTT NUMDFT      TELAPSE       77.10 TCPU     2153.37
 CYC   9 ETOT(AU) -1.289106988788E+03 DETOT -7.28E-08 tst  5.07E-10 PX  1.49E-04

 == SCF ENDED - CONVERGENCE ON ENERGY      E(AU) -1.2891069887880E+03 CYCLES   9


 ENERGY EXPRESSION=HARTREE+FOCK EXCH*0.00000+(HSESOL     EXCH)*1.00000+PBESOL     CORR


 TOTAL ENERGY(DFT)(AU)(  9) -1.2891069887880E+03 DE-7.3E-08 tester 5.1E-10
 TTTTTTTTTTTTTTTTTTTTTTTTTTTTTT EDFT        TELAPSE       77.10 TCPU     2153.38
 
 INFORMATION **** DFTD3 ENERGY **** CALCULATE DFTD3 ENERGY

           DFT-D V3(BJ)
 DF                                         hsesol3c  
 parameters
 s6       :    1.0000
 s8       :    0.0000
 a1       :    0.5196
 a2       :    4.9385
 k1 k3    :   16.0000   -4.0000
 Cutoff   :   50.2022
 CN-Cutoff:   21.1671
 ABC-Cutoff:   21.1671
 
 Edisp /kcal,au:   -22.2327 -0.03543003

 E6    /kcal :   -23.3985
 E8    /kcal :     0.0000
 E6(ABC) "   :   1.165805
 
 INFORMATION **** DFTD3 ENERGY **** NORMAL TERMINATION OF DFTD3 MODULE

 GCP ENERGY CALCULATION
  level        hsesol3c            basis:hsesol3c
  Nbf            474
  Atoms           42

  Parameters: 
  sigma     1.0000
  eta       1.4281
  alpha     0.2936
  beta      1.9467

  dmp_scal      4.0000
  dmp_exp       6.0000
 cutoffs: 
   distance [bohr] 60.0
   noise    [a.u.] 2.2E-16
 SR-damping   T
 ** gCP correction **
  Egcp:        0.0829206445 / (a.u.) ||      52.0335 / (kcal/mol)
 INFORMATION **** GCP **** NORMAL TERMINATION OF GCP MODULE

 *******************************************************************************

 DFT-D3-GCP DISPERSION AND COUNTERPOISE CORRECTION

 D3 DISPERSION ENERGY (AU)      -3.5430032191914E-02
 GCP ENERGY (AU)                 8.2920644496546E-02
 TOTAL ENERGY + DISP + GCP (AU) -1.2890594981757E+03

 *******************************************************************************

 EIGENVECTORS IN FORTRAN UNIT 10
 TTTTTTTTTTTTTTTTTTTTTTTTTTTTTT END         TELAPSE       78.12 TCPU     2160.39
 EEEEEEEEEE TERMINATION  DATE 19 02 2026 TIME 19:20:04.5
