 Default number of threads is:           32

         
 *******************************************************************************
 *                                                                             *
 *                               CRYSTAL23                                     *
 *                      public : 1.0.1 - October 2022                          *
 *                       HTTP://WWW.CRYSTAL.UNITO.IT                           *
 *                                                                             *
 *                              MAIN AUTHORS                                   *
 *                                                                             *
 *  R. DOVESI(1,11), V.R. SAUNDERS(2), C. ROETTI(1,11), R. ORLANDO(1,11),      *
 *  C.M. ZICOVICH-WILSON(1,3), F. PASCALE(4), B. CIVALLERI(1,11),              *
 *  K. DOLL(5), N.M. HARRISON(6), I.J. BUSH(7), Ph. D'ARCO(8),                 *
 *  M. LLUNELL(9), M. CAUSA'(10), Y. NOEL(8), L. MASCHIO(1,11), A. ERBA(1,11)  *
 *  M. RE'RAT(14), S. CASASSA(1,11), B.G. SEARLE(2), J.K. DESMARAIS(1)         *
 *                                                                             *
 *        CONTRIBUTIONS TO THE CODE HAVE ALSO BEEN GIVEN BY                    *
 *                                                                             *
 *  M. FERRABONE(1,11), M. DE LA PIERRE(1,11), M. FERRERO(1,11),               *
 *  J. BAIMA(1,11), E. ALBANESE(1,11), M.F. PEINTINGER(12), R. BAST(13),       *
 *  B. KIRTMAN(15), V. LACIVITA(1,11), R. DEMICHELIS(1,16)                     *
 *  G. BRANDEBURG(17), S. SALUSTRO(1,11), G. SANSONE(1,11)                     *
 *  M.T. RUGGIERO(18), L.E. DAGA(1), L. DONA'(1), A. COSSARD(1)                *
 *                                                                             *
 * (1) THEORETICAL CHEMISTRY GROUP - UNIVERSITA' DI TORINO - TORINO (ITALY)    *
 * (2) SCIENTIFIC COMPUTING DEPARTMENT - STFC DARESBURY (UK)                   *
 * (3) UNIVERSIDAD AUTONOMA DEL ESTADO DE MORELOS - CUERNAVACA (MEXICO)        *
 * (4) UNIVERSITE' DE LORRAINE - NANCY (FRANCE)                                *
 * (5) UNIVERSITAET STUTTGART- STUTTGART (GERMANY)                             *
 * (6) IMPERIAL COLLEGE - LONDON (UK)                                          *
 * (7) SCIENTIFIC COMPUTING DEPARTMENT - STFC RAL (UK)                         *
 * (8) UPMC - SORBONNE UNIVERSITES - PARIS (FRANCE)                            *
 * (9) UNIVERSIDAD DE BARCELONA - BARCELONA (SPAIN)                            *
 *(10) UNIVERSITA' DI NAPOLI "FEDERICO II" - NAPOLI (ITALY)                    *
 *(11) NIS - NANOSTRUCTURED INTERFACES AND SURFACES - TORINO (ITALY)           *
 *(12) MPI FUER CHEMISCHE ENERGIEKONVERSION - MUELHEIM AN DER RUHR (GERMANY)   *
 *(13) UNIVERSITY OF TROMSO - TROMSO (NORWAY)                                  *
 *(14) UNIVERSITE' DE PAU ET DES PAYS DE L'ADOUR - PAU (FRANCE)                *
 *(15) UNIVERSITY OF CALIFORNIA SANTA BARBARA - SANTA BARBARA (USA)            *
 *(16) CURTIN UNIVERSITY - PERTH (AUSTRALIA)                                   *
 *(17) UNIVERSITY COLLEGE LONDON - LONDON (UK)                                 *
 *(18) UNIVERSITY OF VERMONT - BURLINGTON (USA)                                *
 *                                                                             *
 *******************************************************************************
 EEEEEEEEEE STARTING  DATE 02 12 2025 TIME 07:56:47.3
 COF-5_z32_inc_L075                                                              

 CRYSTAL CALCULATION
 (INPUT ACCORDING TO THE INTERNATIONAL TABLES FOR X-RAY CRYSTALLOGRAPHY)
 CRYSTAL FAMILY                       :  TRICLINIC   
 CRYSTAL CLASS  (GROTH - 1921)        :  TRICLINIC PEDIAL                     

 SPACE GROUP (NONCENTROSYMMETRIC)     :  P 1             

 LATTICE PARAMETERS  (ANGSTROMS AND DEGREES) - CONVENTIONAL CELL
        A           B           C        ALPHA        BETA       GAMMA
    15.02070    15.04439     8.15414    37.24053    89.99972   120.05310


 NUMBER OF IRREDUCIBLE ATOMS IN THE CONVENTIONAL CELL:   42

 INPUT COORDINATES

 ATOM AT. N.              COORDINATES
   1   5     4.709956500000E-01 -6.024837000000E-02  5.006003900000E-01
   2   5     6.297721600000E-01  9.877259000000E-02  5.006103800000E-01
   3   5     4.709535200000E-01  9.928350000000E-02  4.991805600000E-01
   4   5     8.278406000000E-02  3.232741400000E-01  5.053948800000E-01
   5   5     2.401905200000E-01  3.204444700000E-01  5.094383500000E-01
   6   5     2.421863300000E-01  4.832185600000E-01  5.034733400000E-01
   7   1     7.586745400000E-01  1.898009000000E-02  5.044983700000E-01
   8   1    -4.352951000000E-02  4.075462800000E-01  4.929092700000E-01
   9   1     7.621281600000E-01  3.103264400000E-01  4.927709900000E-01
  10   1    -4.676146000000E-02  1.164423100000E-01  5.040669900000E-01
  11   1     4.487427400000E-01  6.128387700000E-01  5.041890500000E-01
  12   1     2.653902700000E-01 -1.861976900000E-01  4.945413200000E-01
  13   1     1.666724800000E-01  6.193378600000E-01  4.958480300000E-01
  14   1     5.473819800000E-01 -1.923992800000E-01  5.023279200000E-01
  15   1     4.502017800000E-01  4.038859300000E-01  4.977453100000E-01
  16   1     2.604988200000E-01  1.750256000000E-02  5.060275600000E-01
  17   1     1.632401700000E-01  1.136341600000E-01  5.056627200000E-01
  18   1     5.477235500000E-01  3.074891200000E-01  4.986786600000E-01
  19   6     7.491368800000E-01  1.583456500000E-01  5.003604100000E-01
  20   6     8.031509300000E-01  1.041520900000E-01  5.021263100000E-01
  21   6    -8.798531000000E-02  3.221700300000E-01  4.957341000000E-01
  22   6     8.049388200000E-01  2.684509600000E-01  4.960712200000E-01
  23   6    -8.963248000000E-02  1.580877500000E-01  5.014826700000E-01
  24   6    -3.450052000000E-02  2.670171800000E-01  4.992996400000E-01
  25   6     3.016207600000E-01  6.035343700000E-01  5.018417100000E-01
  26   6     4.093813100000E-01  6.577917100000E-01  5.022318500000E-01
  27   6     3.044459900000E-01 -2.316245800000E-01  4.969560500000E-01
  28   6     2.500045300000E-01  6.607759600000E-01  4.980746000000E-01
  29   6     4.638798300000E-01 -2.345139700000E-01  5.007946000000E-01
  30   6     4.116695400000E-01 -1.785853300000E-01  4.991705200000E-01
  31   6     3.017703200000E-01  2.655752300000E-01  4.999416500000E-01
  32   6     4.097788100000E-01  3.191478200000E-01  4.993902300000E-01
  33   6     3.016345600000E-01  1.025133000000E-01  5.039132800000E-01
  34   6     2.479087100000E-01  1.559090100000E-01  5.033054000000E-01
  35   6     4.633214000000E-01  2.655428900000E-01  5.003284900000E-01
  36   6     4.102080600000E-01  1.571044100000E-01  5.015702000000E-01
  37   8     4.181764800000E-01 -6.839690000000E-03  4.995703800000E-01
  38   8     5.764722100000E-01 -8.264430000000E-03  5.025601000000E-01
  39   8     5.773862300000E-01  1.530822300000E-01  4.980408700000E-01
  40   8     1.363992700000E-01  4.306840500000E-01  5.027067600000E-01
  41   8     1.339965600000E-01  2.673102700000E-01  5.101937100000E-01
  42   8     2.944937800000E-01  4.289709500000E-01  5.051782300000E-01

 *******************************************************************************

 << INFORMATION >>: FROM NOW ON, ALL COORDINATES REFER TO THE PRIMITIVE CELL

 *******************************************************************************

 LATTICE PARAMETERS  (ANGSTROMS AND DEGREES) - PRIMITIVE CELL
       A          B          C        ALPHA      BETA     GAMMA        VOLUME
   15.02070   15.04439    8.15414    37.24053  89.99972 120.05310    625.998299

 COORDINATES OF THE EQUIVALENT ATOMS (FRACTIONAL UNITS)

 N. ATOM EQUIV AT. N.          X                  Y                  Z

   1   1   1    5 B     4.70995650000E-01 -6.02483700000E-02 -4.99399610000E-01

   2   2   1    5 B    -3.70227840000E-01  9.87725900000E-02 -4.99389620000E-01

   3   3   1    5 B     4.70953520000E-01  9.92835000000E-02  4.99180560000E-01

   4   4   1    5 B     8.27840600000E-02  3.23274140000E-01 -4.94605120000E-01

   5   5   1    5 B     2.40190520000E-01  3.20444470000E-01 -4.90561650000E-01

   6   6   1    5 B     2.42186330000E-01  4.83218560000E-01 -4.96526660000E-01

   7   7   1    1 H    -2.41325460000E-01  1.89800900000E-02 -4.95501630000E-01

   8   8   1    1 H    -4.35295100000E-02  4.07546280000E-01  4.92909270000E-01

   9   9   1    1 H    -2.37871840000E-01  3.10326440000E-01  4.92770990000E-01

  10  10   1    1 H    -4.67614600000E-02  1.16442310000E-01 -4.95933010000E-01

  11  11   1    1 H     4.48742740000E-01 -3.87161230000E-01 -4.95810950000E-01

  12  12   1    1 H     2.65390270000E-01 -1.86197690000E-01  4.94541320000E-01

  13  13   1    1 H     1.66672480000E-01 -3.80662140000E-01  4.95848030000E-01

  14  14   1    1 H    -4.52618020000E-01 -1.92399280000E-01 -4.97672080000E-01

  15  15   1    1 H     4.50201780000E-01  4.03885930000E-01  4.97745310000E-01

  16  16   1    1 H     2.60498820000E-01  1.75025600000E-02 -4.93972440000E-01

  17  17   1    1 H     1.63240170000E-01  1.13634160000E-01 -4.94337280000E-01

  18  18   1    1 H    -4.52276450000E-01  3.07489120000E-01  4.98678660000E-01

  19  19   1    6 C    -2.50863120000E-01  1.58345650000E-01 -4.99639590000E-01

  20  20   1    6 C    -1.96849070000E-01  1.04152090000E-01 -4.97873690000E-01

  21  21   1    6 C    -8.79853100000E-02  3.22170030000E-01  4.95734100000E-01

  22  22   1    6 C    -1.95061180000E-01  2.68450960000E-01  4.96071220000E-01

  23  23   1    6 C    -8.96324800000E-02  1.58087750000E-01 -4.98517330000E-01

  24  24   1    6 C    -3.45005200000E-02  2.67017180000E-01  4.99299640000E-01

  25  25   1    6 C     3.01620760000E-01 -3.96465630000E-01 -4.98158290000E-01

  26  26   1    6 C     4.09381310000E-01 -3.42208290000E-01 -4.97768150000E-01

  27  27   1    6 C     3.04445990000E-01 -2.31624580000E-01  4.96956050000E-01

  28  28   1    6 C     2.50004530000E-01 -3.39224040000E-01  4.98074600000E-01

  29  29   1    6 C     4.63879830000E-01 -2.34513970000E-01 -4.99205400000E-01

  30  30   1    6 C     4.11669540000E-01 -1.78585330000E-01  4.99170520000E-01

  31  31   1    6 C     3.01770320000E-01  2.65575230000E-01  4.99941650000E-01

  32  32   1    6 C     4.09778810000E-01  3.19147820000E-01  4.99390230000E-01

  33  33   1    6 C     3.01634560000E-01  1.02513300000E-01 -4.96086720000E-01

  34  34   1    6 C     2.47908710000E-01  1.55909010000E-01 -4.96694600000E-01

  35  35   1    6 C     4.63321400000E-01  2.65542890000E-01 -4.99671510000E-01

  36  36   1    6 C     4.10208060000E-01  1.57104410000E-01 -4.98429800000E-01

  37  37   1    8 O     4.18176480000E-01 -6.83969000000E-03  4.99570380000E-01

  38  38   1    8 O    -4.23527790000E-01 -8.26443000000E-03 -4.97439900000E-01

  39  39   1    8 O    -4.22613770000E-01  1.53082230000E-01  4.98040870000E-01

  40  40   1    8 O     1.36399270000E-01  4.30684050000E-01 -4.97293240000E-01

  41  41   1    8 O     1.33996560000E-01  2.67310270000E-01 -4.89806290000E-01

  42  42   1    8 O     2.94493780000E-01  4.28970950000E-01 -4.94821770000E-01

 NUMBER OF SYMMETRY OPERATORS         :    1
 *******************************************************************************
 * GEOMETRY EDITING - INPUT COORDINATES ARE GIVEN IN ANGSTROM         
 *******************************************************************************

 GCALCO - MAX INDICES DIRECT LATTICE VECTOR     9    15    23
 NO.OF VECTORS CREATED 6999 STARS 3500 RMAX   207.81999 BOHR

 GEOMETRY FOR WAVE FUNCTION - DIMENSIONALITY OF THE SYSTEM    3
 (NON PERIODIC DIRECTION: LATTICE PARAMETER FORMALLY SET TO 500)
 *******************************************************************************
 LATTICE PARAMETERS (ANGSTROMS AND DEGREES) - BOHR = 0.5291772083 ANGSTROM
 PRIMITIVE CELL - CENTRING CODE 1/0 VOLUME=   625.998299 - DENSITY  1.035 g/cm^3
         A              B              C           ALPHA      BETA       GAMMA 
    15.02070100    15.04438700     8.15414000    37.240530  89.999720 120.053104
 *******************************************************************************
 ATOMS IN THE ASYMMETRIC UNIT   42 - ATOMS IN THE UNIT CELL:   42
     ATOM                 X/A                 Y/B                 Z/C    
 *******************************************************************************
      1 T   5 B     4.709956500000E-01 -6.024837000000E-02 -4.993996100000E-01
      2 T   5 B    -3.702278400000E-01  9.877259000000E-02 -4.993896200000E-01
      3 T   5 B     4.709535200000E-01  9.928350000000E-02  4.991805600000E-01
      4 T   5 B     8.278406000000E-02  3.232741400000E-01 -4.946051200000E-01
      5 T   5 B     2.401905200000E-01  3.204444700000E-01 -4.905616500000E-01
      6 T   5 B     2.421863300000E-01  4.832185600000E-01 -4.965266600000E-01
      7 T   1 H    -2.413254600000E-01  1.898009000000E-02 -4.955016300000E-01
      8 T   1 H    -4.352951000000E-02  4.075462800000E-01  4.929092700000E-01
      9 T   1 H    -2.378718400000E-01  3.103264400000E-01  4.927709900000E-01
     10 T   1 H    -4.676146000000E-02  1.164423100000E-01 -4.959330100000E-01
     11 T   1 H     4.487427400000E-01 -3.871612300000E-01 -4.958109500000E-01
     12 T   1 H     2.653902700000E-01 -1.861976900000E-01  4.945413200000E-01
     13 T   1 H     1.666724800000E-01 -3.806621400000E-01  4.958480300000E-01
     14 T   1 H    -4.526180200000E-01 -1.923992800000E-01 -4.976720800000E-01
     15 T   1 H     4.502017800000E-01  4.038859300000E-01  4.977453100000E-01
     16 T   1 H     2.604988200000E-01  1.750256000000E-02 -4.939724400000E-01
     17 T   1 H     1.632401700000E-01  1.136341600000E-01 -4.943372800000E-01
     18 T   1 H    -4.522764500000E-01  3.074891200000E-01  4.986786600000E-01
     19 T   6 C    -2.508631200000E-01  1.583456500000E-01 -4.996395900000E-01
     20 T   6 C    -1.968490700000E-01  1.041520900000E-01 -4.978736900000E-01
     21 T   6 C    -8.798531000000E-02  3.221700300000E-01  4.957341000000E-01
     22 T   6 C    -1.950611800000E-01  2.684509600000E-01  4.960712200000E-01
     23 T   6 C    -8.963248000000E-02  1.580877500000E-01 -4.985173300000E-01
     24 T   6 C    -3.450052000000E-02  2.670171800000E-01  4.992996400000E-01
     25 T   6 C     3.016207600000E-01 -3.964656300000E-01 -4.981582900000E-01
     26 T   6 C     4.093813100000E-01 -3.422082900000E-01 -4.977681500000E-01
     27 T   6 C     3.044459900000E-01 -2.316245800000E-01  4.969560500000E-01
     28 T   6 C     2.500045300000E-01 -3.392240400000E-01  4.980746000000E-01
     29 T   6 C     4.638798300000E-01 -2.345139700000E-01 -4.992054000000E-01
     30 T   6 C     4.116695400000E-01 -1.785853300000E-01  4.991705200000E-01
     31 T   6 C     3.017703200000E-01  2.655752300000E-01  4.999416500000E-01
     32 T   6 C     4.097788100000E-01  3.191478200000E-01  4.993902300000E-01
     33 T   6 C     3.016345600000E-01  1.025133000000E-01 -4.960867200000E-01
     34 T   6 C     2.479087100000E-01  1.559090100000E-01 -4.966946000000E-01
     35 T   6 C     4.633214000000E-01  2.655428900000E-01 -4.996715100000E-01
     36 T   6 C     4.102080600000E-01  1.571044100000E-01 -4.984298000000E-01
     37 T   8 O     4.181764800000E-01 -6.839690000000E-03  4.995703800000E-01
     38 T   8 O    -4.235277900000E-01 -8.264430000000E-03 -4.974399000000E-01
     39 T   8 O    -4.226137700000E-01  1.530822300000E-01  4.980408700000E-01
     40 T   8 O     1.363992700000E-01  4.306840500000E-01 -4.972932400000E-01
     41 T   8 O     1.339965600000E-01  2.673102700000E-01 -4.898062900000E-01
     42 T   8 O     2.944937800000E-01  4.289709500000E-01 -4.948217700000E-01

 T = ATOM BELONGING TO THE ASYMMETRIC UNIT

 ****    1 SYMMOPS - TRANSLATORS IN FRACTIONAL UNITS
 **** MATRICES AND TRANSLATORS IN THE CRYSTALLOGRAPHIC REFERENCE FRAME
   V INV                    ROTATION MATRICES                   TRANSLATORS
   1   1  1.00  0.00  0.00  0.00  1.00  0.00  0.00 -0.00  1.00  0.00  0.00  0.00

 DIRECT LATTICE VECTORS CARTESIAN COMPONENTS (ANGSTROM)
          X                    Y                    Z
   0.130013421718E+02  -0.752240388864E+01   0.000000000000E+00
   0.000000000000E+00   0.150443870000E+02   0.000000000000E+00
   0.375595760062E+01   0.649152745806E+01   0.320044573507E+01


 CARTESIAN COORDINATES - PRIMITIVE CELL
 *******************************************************************************
 *      ATOM          X(ANGSTROM)         Y(ANGSTROM)         Z(ANGSTROM)
 *******************************************************************************
    1     5 B     4.918942455187E-01  8.615739575822E-01 -4.798747086993E+00
    2     5 B     2.556239502885E+00  2.059630635044E+00 -4.798715114540E+00
    3     5 B    -1.247455692217E+00  1.609454649743E-01  4.798046029354E+00
    4     5 B    -7.814119693416E-01  1.029983417012E+00 -1.582956846849E+00
    5     5 B     1.280270379045E+00 -1.704139038211E-01 -1.570015940532E+00
    6     5 B     1.283814263118E+00  2.224687184604E+00 -1.589106631346E+00
    7     1 H    -4.998637993540E+00 -1.115671038673E+00 -1.585826078455E+00
    8     1 H    -2.470553335628E+00  3.166937114500E+00 -1.622916364123E+00
    9     1 H     2.514131361008E+00  1.104015984093E+00  4.777532548384E+00
   10     1 H    -2.470665100220E+00 -1.115800988419E+00 -1.587206686736E+00
   11     1 H     3.972013003716E+00  2.625589096174E+00 -1.586816040329E+00
   12     1 H     5.307905939005E+00 -1.587274347995E+00  1.582752658411E+00
   13     1 H     2.733925195084E-01  4.791064381618E+00 -1.613511022214E+00
   14     1 H     1.491507588529E+00 -1.689949992261E+00 -4.793218220972E+00
   15     1 H     3.966780067768E+00 -5.707834968470E-01 -1.607438880530E+00
   16     1 H     1.531494753648E+00 -4.902897708211E+00 -1.580931988841E+00
   17     1 H     2.656314422620E-01 -2.727406236795E+00 -1.582099639463E+00
   18     1 H    -2.512273787690E-01  2.712518117995E+00  4.796439725640E+00
   19     6 C    -5.138182377031E+00  1.025882830151E+00 -1.599069394888E+00
   20     6 C    -4.429294585370E+00 -1.842781708201E-01 -1.593417727765E+00
   21     6 C    -3.037928461239E+00  2.235255713194E+00 -1.613875648997E+00
   22     6 C    -4.428792277023E+00  2.234741599438E+00 -1.612796714731E+00
   23     6 C    -3.037752496840E+00 -1.835539289558E-01 -1.595477662658E+00
   24     6 C    -2.329162388400E+00  1.026326502174E+00 -1.602464331711E+00
   25     6 C     2.050413291232E+00  3.577083234165E+00 -1.594328574621E+00
   26     6 C     3.452910423699E+00  3.585265878876E+00 -1.593079952722E+00
   27     6 C     2.068794741365E+00  6.004047866672E+00 -1.609964864331E+00
   28     6 C     1.365183917949E+00  4.802071697887E+00 -1.606385005754E+00
   29     6 C     4.001084793916E-01 -1.705356378018E+00 -4.798125528426E+00
   30     6 C    -2.018264711316E+00 -3.573527882032E+00  4.798013896879E+00
   31     6 C     2.045221227169E+00 -1.520764200570E+00 -1.600409613544E+00
   32     6 C     3.447405452975E+00 -1.530860467271E+00 -1.602174403332E+00
   33     6 C     2.058373438841E+00 -3.947127793707E+00 -1.587698627250E+00
   34     6 C     1.357582108015E+00 -2.743620595077E+00 -1.589644114203E+00
   35     6 C     4.147055051107E+00 -2.733992025970E+00 -1.599171553116E+00
   36     6 C     3.461174153993E+00 -3.957781894867E+00 -1.595197527643E+00
   37     8 O    -1.932163900678E+00 -1.036072136899E+00  4.799293627111E+00
   38     8 O     1.870591680850E+00  8.629246948972E-01 -4.792475141481E+00
   39     8 O     1.320317614447E-01  1.622862186914E-01  4.794398513355E+00
   40     8 O    -9.443874326548E-02  2.225134401702E+00 -1.591560029038E+00
   41     8 O    -9.755653135705E-02 -1.660480737215E-01 -1.567598451842E+00
   42     8 O     1.970284813255E+00  1.026154720902E+00 -1.583650223417E+00

 *******************************************************************************
 STARTING BASIS SET HANDLING 
 *******************************************************************************

 Loading internal basis set: SOLDEF2MSVP         

 Please cite in your publication:
 L. Dona', J. G. Brandenburg and B. Civalleri, J. Chem. Phys., 151, 121101 (2019
 )                                                                              
                                                                                
                    

 *******************************************************************************
 LOCAL ATOMIC FUNCTIONS BASIS SET
 *******************************************************************************
   ATOM   X(AU)   Y(AU)   Z(AU)  N. TYPE  EXPONENT  S COEF   P COEF   D/F/G COEF
 *******************************************************************************
   1 B    0.930   1.628  -9.068
                                  1 S  
                                         2.410E+03 1.755E-03 0.000E+00 0.000E+00
                                         3.619E+02 1.344E-02 0.000E+00 0.000E+00
                                         8.231E+01 6.637E-02 0.000E+00 0.000E+00
                                         2.311E+01 2.303E-01 0.000E+00 0.000E+00
                                         7.252E+00 5.150E-01 0.000E+00 0.000E+00
                                  2 S  
                                         2.367E+00 1.000E+00 0.000E+00 0.000E+00
                                  3 S  
                                         5.533E-01 1.000E+00 0.000E+00 0.000E+00
                                  4 S  
                                         1.716E-01 1.000E+00 0.000E+00 0.000E+00
                           5-     7 P  
                                         6.002E+00 0.000E+00-3.555E-02 0.000E+00
                                         1.240E+00 0.000E+00-1.983E-01 0.000E+00
                                         3.367E-01 0.000E+00-5.048E-01 0.000E+00
                           8-    10 P  
                                         1.256E-01 0.000E+00 1.000E+00 0.000E+00
                          11-    15 D  
                                         8.880E-01 0.000E+00 0.000E+00 1.000E+00
   2 B    4.831   3.892  -9.068
   3 B   -2.357   0.304   9.067
   4 B   -1.477   1.946  -2.991
   5 B    2.419  -0.322  -2.967
   6 B    2.426   4.204  -3.003
   7 H   -9.446  -2.108  -2.997
                                 91 S  
                                         1.874E+01 1.968E-02 0.000E+00 0.000E+00
                                         2.826E+00 1.380E-01 0.000E+00 0.000E+00
                                         6.401E-01 4.783E-01 0.000E+00 0.000E+00
                                 92 S  
                                         1.756E-01 1.000E+00 0.000E+00 0.000E+00
   8 H   -4.669   5.985  -3.067
   9 H    4.751   2.086   9.028
  10 H   -4.669  -2.109  -2.999
  11 H    7.506   4.962  -2.999
  12 H   10.030  -3.000   2.991
  13 H    0.517   9.054  -3.049
  14 H    2.819  -3.194  -9.058
  15 H    7.496  -1.079  -3.038
  16 H    2.894  -9.265  -2.988
  17 H    0.502  -5.154  -2.990
  18 H   -0.475   5.126   9.064
  19 C   -9.710   1.939  -3.022
                                115 S  
                                         3.624E+03 1.634E-03 0.000E+00 0.000E+00
                                         5.440E+02 1.252E-02 0.000E+00 0.000E+00
                                         1.237E+02 6.211E-02 0.000E+00 0.000E+00
                                         3.476E+01 2.182E-01 0.000E+00 0.000E+00
                                         1.093E+01 4.980E-01 0.000E+00 0.000E+00
                                116 S  
                                         3.574E+00 1.000E+00 0.000E+00 0.000E+00
                                117 S  
                                         7.742E-01 1.000E+00 0.000E+00 0.000E+00
                                118 S  
                                         2.330E-01 1.000E+00 0.000E+00 0.000E+00
                         119-   121 P  
                                         9.443E+00 0.000E+00 3.790E-02 0.000E+00
                                         2.002E+00 0.000E+00 2.082E-01 0.000E+00
                                         5.463E-01 0.000E+00 5.047E-01 0.000E+00
                         122-   124 P  
                                         1.820E-01 0.000E+00 1.000E+00 0.000E+00
                         125-   129 D  
                                         8.880E-01 0.000E+00 0.000E+00 1.000E+00
  20 C   -8.370  -0.348  -3.011
  21 C   -5.741   4.224  -3.050
  22 C   -8.369   4.223  -3.048
  23 C   -5.741  -0.347  -3.015
  24 C   -4.401   1.939  -3.028
  25 C    3.875   6.760  -3.013
  26 C    6.525   6.775  -3.010
  27 C    3.909  11.346  -3.042
  28 C    2.580   9.075  -3.036
  29 C    0.756  -3.223  -9.067
  30 C   -3.814  -6.753   9.067
  31 C    3.865  -2.874  -3.024
  32 C    6.515  -2.893  -3.028
  33 C    3.890  -7.459  -3.000
  34 C    2.565  -5.185  -3.004
  35 C    7.837  -5.166  -3.022
  36 C    6.541  -7.479  -3.014
  37 O   -3.651  -1.958   9.069
                                385 S  
                                         6.773E+03 1.727E-03 0.000E+00 0.000E+00
                                         1.017E+03 1.325E-02 0.000E+00 0.000E+00
                                         2.313E+02 6.603E-02 0.000E+00 0.000E+00
                                         6.501E+01 2.353E-01 0.000E+00 0.000E+00
                                         2.050E+01 5.498E-01 0.000E+00 0.000E+00
                                386 S  
                                         6.716E+00 1.000E+00 0.000E+00 0.000E+00
                                387 S  
                                         1.147E+00 1.000E+00 0.000E+00 0.000E+00
                                388 S  
                                         3.342E-01 1.000E+00 0.000E+00 0.000E+00
                         389-   391 P  
                                         1.769E+01 0.000E+00 4.359E-02 0.000E+00
                                         3.854E+00 0.000E+00 2.318E-01 0.000E+00
                                         1.047E+00 0.000E+00 5.146E-01 0.000E+00
                         392-   394 P  
                                         2.759E-01 0.000E+00 1.000E+00 0.000E+00
                         395-   399 D  
                                         8.000E-01 0.000E+00 0.000E+00 1.000E+00
  38 O    3.535   1.631  -9.056
  39 O    0.250   0.307   9.060
  40 O   -0.178   4.205  -3.008
  41 O   -0.184  -0.314  -2.962
  42 O    3.723   1.939  -2.993

 *******************************************************************************
 FINISHED BASIS SET HANDLING 
 *******************************************************************************

 INFORMATION **** SET_MPP **** PCRYSTAL CALCULATION
 INFORMATION **** READM2 **** NEW DEFAULT: FOCK/KS MATRIX MIXING SET TO 30 %
 INFORMATION **** READM2 **** NEW DEFAULT: FULL DIRECT SCF MODE
 INFORMATION **** READM2 **** NEW DEFAULT: COULOMB BIPOLAR BUFFER SET TO 32 Mb
 INFORMATION **** READM2 **** NEW DEFAULT: EXCHANGE BIPOLAR BUFFER SET TO 32 Mb

 *******************************************************************************
 NEW DEFAULT: DFT INTEGRATION GRID INCREASED TO XLGRID
 NEW DEFAULT: DIIS ACCELERATOR ACTIVE
 USE KEYWORD NODIIS TO TURN IT OFF
 *******************************************************************************

 WARNING **** RDDFTP **** HSEsol-HJS ACTIVE
 RANGE SEPARATION - OMEGA:   0.110000000000000     
 WARNING **** RDDFTP **** HSEsol-3c has to be combined with sol-def2-mSVP basis set
 *******************************************************************************
 N. OF ATOMS PER CELL        42  COULOMB OVERLAP TOL         (T1) 10**   -6
 NUMBER OF SHELLS           234  COULOMB PENETRATION TOL     (T2) 10**   -6
 NUMBER OF AO               474  EXCHANGE OVERLAP TOL        (T3) 10**   -6
 N. OF ELECTRONS PER CELL   198  EXCHANGE PSEUDO OVP (F(G))  (T4) 10**   -6
 CORE ELECTRONS PER CELL     60  EXCHANGE PSEUDO OVP (P(G))  (T5) 10**  -12
 N. OF SYMMETRY OPERATORS     1  POLE ORDER IN MONO ZONE                  4
 *******************************************************************************
 TYPE OF CALCULATION :  RESTRICTED CLOSED SHELL
 KOHN-SHAM HAMILTONIAN

 (EXCHANGE)[CORRELATION] FUNCTIONAL:(HSEsol GGA)[PBEsol]

 RANGE-SEPARATED HYBRID FUNCTIONAL 
 OMEGA (SHORT-RANGE)[LONG-RANGE]:(    0.1100)[    0.0000]

 HYBRID EXCHANGE - PERCENTAGE OF FOCK EXCHANGE    25.0000

 CAPPA:IS1  2;IS2  2;IS3  8; K PTS MONK NET  20; SYMMOPS:K SPACE   2;G SPACE   1

 *******************************************************************************
 MAX NUMBER OF SCF CYCLES      50  CONVERGENCE ON DELTAP        10**-16
 WEIGHT OF F(I) IN F(I+1)      30% CONVERGENCE ON ENERGY        10**- 6
 SHRINK. FACT.(MONKH.)    2  2  8  NUMBER OF K POINTS IN THE IBZ     20
 SHRINKING FACTOR(GILAT NET)    8  NUMBER OF K POINTS(GILAT NET)   1028
 *******************************************************************************
 *** K POINTS COORDINATES (OBLIQUE COORDINATES IN UNITS OF IS =  2)
   1-R(  0  0  0)   2-R(  1  0  0)   3-R(  0  1  0)   4-R(  1  1  0)
   5-C(  0  0  1)   6-C(  1  0  1)   7-C(  0  1  1)   8-C(  1  1  1)
   9-C(  0  0  2)  10-C(  1  0  2)  11-C(  0  1  2)  12-C(  1  1  2)
  13-C(  0  0  3)  14-C(  1  0  3)  15-C(  0  1  3)  16-C(  1  1  3)
  17-R(  0  0  4)  18-R(  1  0  4)  19-R(  0  1  4)  20-R(  1  1  4)

 DIRECT LATTICE VECTORS COMPON. (A.U.)     RECIP. LATTICE VECTORS COMPON. (A.U.) 
        X            Y            Z              X            Y            Z
   24.5689761  -14.2152832    0.0000000      0.2557366    0.0000000   -0.3001256
    0.0000000   28.4297713    0.0000000      0.1278719    0.2210072   -0.5983404
    7.0977312   12.2672091    6.0479659      0.0000000    0.0000000    1.0388923

 DISK SPACE FOR EIGENVECTORS (FTN 10)     7189632 REALS

 SYMMETRY ADAPTION OF THE BLOCH FUNCTIONS DISABLED
 TTTTTTTTTTTTTTTTTTTTTTTTTTTTTT gordsh1     TELAPSE        0.04 TCPU        0.04

 MATRIX SIZE: P(G)  365276, F(G)   68843, P(G) IRR  183859, F(G) IRR   69323
 MAX G-VECTOR INDEX FOR 1- AND 2-ELECTRON INTEGRALS  69

 TTTTTTTTTTTTTTTTTTTTTTTTTTTTTT INPUT       TELAPSE        0.44 TCPU        0.43

 NEIGHBORS OF THE NON-EQUIVALENT ATOMS

 N = NUMBER OF NEIGHBORS AT DISTANCE R
    ATOM  N     R/ANG      R/AU   NEIGHBORS (ATOM LABELS AND CELL INDICES)
   1 B    1     1.3787     2.6054   38 O    0 0 0
   1 B    1     1.3795     2.6068   37 O    1 2-3
   1 B    1     1.5517     2.9323   30 C    1 2-3
   1 B    1     2.3868     4.5104    2 B    0 0 0
   1 B    1     2.3912     4.5187    3 B    1 2-3
   1 B    1     2.5629     4.8431   27 C    0 0-1

   2 B    1     1.3792     2.6064   38 O    0 0 0
   2 B    1     1.3798     2.6075   39 O    1 2-3
   2 B    1     1.5510     2.9309   19 C    1 1-1
   2 B    1     2.3868     4.5104    1 B    0 0 0
   2 B    1     2.3894     4.5154    3 B    1 2-3
   2 B    1     2.5618     4.8411   22 C    1 1-1

   3 B    1     1.3790     2.6060   37 O    0 0 0
   3 B    1     1.3795     2.6069   39 O    0 0 0
   3 B    1     1.5529     2.9346   36 C   -1-1 2
   3 B    1     2.3894     4.5154    2 B   -1-2 3
   3 B    1     2.3912     4.5187    1 B   -1-2 3
   3 B    1     2.5679     4.8526   35 C   -1-1 2

   4 B    1     1.3778     2.6037   41 O    0 0 0
   4 B    1     1.3785     2.6051   40 O    0 0 0
   4 B    1     1.5479     2.9251   24 C    0 0 0
   4 B    1     2.3857     4.5084    5 B    0 0 0
   4 B    1     2.3859     4.5087    6 B    0 0 0
   4 B    1     2.5584     4.8347   21 C    0 0 0

   5 B    1     1.3778     2.6037   41 O    0 0 0
   5 B    1     1.3813     2.6103   42 O    0 0 0
   5 B    1     1.5523     2.9334   31 C    0 0 0
   5 B    1     2.3857     4.5084    4 B    0 0 0
   5 B    1     2.3952     4.5262    6 B    0 0 0
   5 B    1     2.5590     4.8358   32 C    0 0 0

   6 B    1     1.3783     2.6045   40 O    0 0 0
   6 B    1     1.3812     2.6101   42 O    0 0 0
   6 B    1     1.5546     2.9377   25 C    0 0 0
   6 B    1     2.3859     4.5087    4 B    0 0 0
   6 B    1     2.3952     4.5262    5 B    0 0 0
   6 B    1     2.5605     4.8386   26 C    0 0 0

   7 H    1     1.0917     2.0629   20 C    0 0 0
   7 H    1     2.1461     4.0556   19 C    0 0 0
   7 H    1     2.1712     4.1029   23 C    0 0 0
   7 H    1     2.5280     4.7772   10 H    0 0 0
   7 H    1     2.5583     4.8346   38 O   -1-1 1
   7 H    1     2.7310     5.1608    2 B   -1-1 1

   8 H    1     1.0909     2.0615   21 C    0 0 0
   8 H    1     2.1454     4.0542   24 C    0 0 0
   8 H    1     2.1688     4.0985   22 C    0 0 0
   8 H    1     2.5272     4.7758    9 H    0 1-2
   8 H    1     2.5561     4.8304   40 O    0 0 0
   8 H    1     2.7242     5.1480    4 B    0 0 0

   9 H    1     1.0908     2.0614   22 C    0-1 2
   9 H    1     2.1442     4.0520   19 C    0-1 2
   9 H    1     2.1694     4.0995   21 C    0-1 2
   9 H    1     2.5272     4.7758    8 H    0-1 2
   9 H    1     2.5615     4.8406   39 O    0 0 0
   9 H    1     2.7248     5.1491    2 B   -1-2 3

  10 H    1     1.0912     2.0621   23 C    0 0 0
  10 H    1     2.1469     4.0570   24 C    0 0 0
  10 H    1     2.1689     4.0986   20 C    0 0 0
  10 H    1     2.5280     4.7772    7 H    0 0 0
  10 H    1     2.5562     4.8305   41 O    0 0 0
  10 H    1     2.7309     5.1607    4 B    0 0 0

  11 H    1     1.0911     2.0619   26 C    0 0 0
  11 H    1     2.1443     4.0521   25 C    0 0 0
  11 H    1     2.1684     4.0977   29 C    0 0 1
  11 H    1     2.5222     4.7664   14 H    0 0 1
  11 H    1     2.5622     4.8419   42 O    0 0 0
  11 H    1     2.7179     5.1361    6 B    0 0 0

  12 H    1     1.0917     2.0630   27 C    0-1 1
  12 H    1     2.1441     4.0518   30 C    1 1-1
  12 H    1     2.1716     4.1037   28 C    0-1 1
  12 H    1     2.5226     4.7669   13 H    0-1 1
  12 H    1     2.5541     4.8265   37 O    1 1-1
  12 H    1     2.7237     5.1470    1 B    0-1 2

  13 H    1     1.0919     2.0633   28 C    0 0 0
  13 H    1     2.1522     4.0670   25 C    0 0 0
  13 H    1     2.1668     4.0946   27 C    0 0 0
  13 H    1     2.5226     4.7669   12 H    0 1-1
  13 H    1     2.5923     4.8986   40 O    0 0 0
  13 H    1     2.7582     5.2123    6 B    0 0 0

  14 H    1     1.0915     2.0627   29 C    0 0 0
  14 H    1     2.1483     4.0597   30 C    1 2-3
  14 H    1     2.1679     4.0968   26 C    0 0-1
  14 H    1     2.5222     4.7664   11 H    0 0-1
  14 H    1     2.5809     4.8771   38 O    0 0 0
  14 H    1     2.7404     5.1785    1 B    0 0 0

  15 H    1     1.0916     2.0628   32 C    0 0 0
  15 H    1     2.1436     4.0508   31 C    0 0 0
  15 H    1     2.1707     4.1021   35 C    0 0 0
  15 H    1     2.5217     4.7654   18 H    1 1-2
  15 H    1     2.5567     4.8315   42 O    0 0 0
  15 H    1     2.7164     5.1333    5 B    0 0 0

  16 H    1     1.0914     2.0624   33 C    0 0 0
  16 H    1     2.1487     4.0605   36 C    0 0 0
  16 H    1     2.1663     4.0937   34 C    0 0 0
  16 H    1     2.5170     4.7564   17 H    0 0 0
  16 H    1     2.5779     4.8716   37 O    1 1-2
  16 H    1     2.7395     5.1769    3 B    1 1-2

  17 H    1     1.0921     2.0638   34 C    0 0 0
  17 H    1     2.1502     4.0632   31 C    0 0 0
  17 H    1     2.1683     4.0976   33 C    0 0 0
  17 H    1     2.5170     4.7564   16 H    0 0 0
  17 H    1     2.5870     4.8888   41 O    0 0 0
  17 H    1     2.7510     5.1986    5 B    0 0 0

  18 H    1     1.0913     2.0622   35 C   -1-1 2
  18 H    1     2.1495     4.0619   36 C   -1-1 2
  18 H    1     2.1656     4.0923   32 C   -1-1 2
  18 H    1     2.5217     4.7654   15 H   -1-1 2
  18 H    1     2.5789     4.8734   39 O    0 0 0
  18 H    1     2.7392     5.1763    3 B    0 0 0

  19 C    1     1.4017     2.6488   22 C    0 0 0
  19 C    1     1.4025     2.6504   20 C    0 0 0
  19 C    1     1.5510     2.9309    2 B   -1-1 1
  19 C    1     2.1442     4.0520    9 H    0 1-2
  19 C    1     2.1461     4.0556    7 H    0 0 0
  19 C    1     2.4236     4.5800   21 C    0 0 0

  20 C    1     1.0917     2.0629    7 H    0 0 0
  20 C    1     1.3915     2.6296   23 C    0 0 0
  20 C    1     1.4025     2.6504   19 C    0 0 0
  20 C    1     2.1689     4.0986   10 H    0 0 0
  20 C    1     2.4191     4.5714   22 C    0 0 0
  20 C    1     2.4241     4.5809   24 C    0 0 0

  21 C    1     1.0909     2.0615    8 H    0 0 0
  21 C    1     1.3909     2.6284   22 C    0 0 0
  21 C    1     1.4014     2.6483   24 C    0 0 0
  21 C    1     2.1694     4.0995    9 H    0 1-2
  21 C    1     2.4189     4.5710   23 C    0 0 0
  21 C    1     2.4236     4.5800   19 C    0 0 0

  22 C    1     1.0908     2.0614    9 H    0 1-2
  22 C    1     1.3909     2.6284   21 C    0 0 0
  22 C    1     1.4017     2.6488   19 C    0 0 0
  22 C    1     2.1688     4.0985    8 H    0 0 0
  22 C    1     2.4191     4.5714   20 C    0 0 0
  22 C    1     2.4226     4.5780   24 C    0 0 0

  23 C    1     1.0912     2.0621   10 H    0 0 0
  23 C    1     1.3915     2.6296   20 C    0 0 0
  23 C    1     1.4021     2.6496   24 C    0 0 0
  23 C    1     2.1712     4.1029    7 H    0 0 0
  23 C    1     2.4189     4.5710   21 C    0 0 0
  23 C    1     2.4237     4.5802   19 C    0 0 0

  24 C    1     1.4014     2.6483   21 C    0 0 0
  24 C    1     1.4021     2.6496   23 C    0 0 0
  24 C    1     1.5479     2.9251    4 B    0 0 0
  24 C    1     2.1454     4.0542    8 H    0 0 0
  24 C    1     2.1469     4.0570   10 H    0 0 0
  24 C    1     2.4226     4.5780   22 C    0 0 0

  25 C    1     1.4025     2.6504   26 C    0 0 0
  25 C    1     1.4037     2.6525   28 C    0 0 0
  25 C    1     1.5546     2.9377    6 B    0 0 0
  25 C    1     2.1443     4.0521   11 H    0 0 0
  25 C    1     2.1522     4.0670   13 H    0 0 0
  25 C    1     2.4271     4.5865   27 C    0 0 0

  26 C    1     1.0911     2.0619   11 H    0 0 0
  26 C    1     1.3916     2.6298   29 C    0 0 1
  26 C    1     1.4025     2.6504   25 C    0 0 0
  26 C    1     2.1679     4.0968   14 H    0 0 1
  26 C    1     2.4165     4.5665   28 C    0 0 0
  26 C    1     2.4246     4.5818   30 C    1 2-2

  27 C    1     1.0917     2.0630   12 H    0 1-1
  27 C    1     1.3928     2.6320   28 C    0 0 0
  27 C    1     1.4024     2.6501   30 C    1 2-2
  27 C    1     2.1668     4.0946   13 H    0 0 0
  27 C    1     2.4166     4.5668   29 C    0 0 1
  27 C    1     2.4271     4.5865   25 C    0 0 0

  28 C    1     1.0919     2.0633   13 H    0 0 0
  28 C    1     1.3928     2.6320   27 C    0 0 0
  28 C    1     1.4037     2.6525   25 C    0 0 0
  28 C    1     2.1716     4.1037   12 H    0 1-1
  28 C    1     2.4165     4.5665   26 C    0 0 0
  28 C    1     2.4277     4.5877   30 C    1 2-2

  29 C    1     1.0915     2.0627   14 H    0 0 0
  29 C    1     1.3916     2.6298   26 C    0 0-1
  29 C    1     1.4023     2.6499   30 C    1 2-3
  29 C    1     2.1684     4.0977   11 H    0 0-1
  29 C    1     2.4166     4.5668   27 C    0 0-1
  29 C    1     2.4281     4.5884   25 C    0 0-1

  30 C    1     1.4023     2.6499   29 C   -1-2 3
  30 C    1     1.4024     2.6501   27 C   -1-2 2
  30 C    1     1.5517     2.9323    1 B   -1-2 3
  30 C    1     2.1441     4.0518   12 H   -1-1 1
  30 C    1     2.1483     4.0597   14 H   -1-2 3
  30 C    1     2.4246     4.5818   26 C   -1-2 2

  31 C    1     1.4022     2.6498   32 C    0 0 0
  31 C    1     1.4030     2.6512   34 C    0 0 0
  31 C    1     1.5523     2.9334    5 B    0 0 0
  31 C    1     2.1436     4.0508   15 H    0 0 0
  31 C    1     2.1502     4.0632   17 H    0 0 0
  31 C    1     2.4264     4.5853   33 C    0 0 0

  32 C    1     1.0916     2.0628   15 H    0 0 0
  32 C    1     1.3918     2.6301   35 C    0 0 0
  32 C    1     1.4022     2.6498   31 C    0 0 0
  32 C    1     2.1656     4.0923   18 H    1 1-2
  32 C    1     2.4163     4.5661   34 C    0 0 0
  32 C    1     2.4270     4.5863   36 C    0 0 0

  33 C    1     1.0914     2.0624   16 H    0 0 0
  33 C    1     1.3927     2.6318   34 C    0 0 0
  33 C    1     1.4029     2.6510   36 C    0 0 0
  33 C    1     2.1683     4.0976   17 H    0 0 0
  33 C    1     2.4155     4.5645   35 C    0 0 0
  33 C    1     2.4264     4.5853   31 C    0 0 0

  34 C    1     1.0921     2.0638   17 H    0 0 0
  34 C    1     1.3927     2.6318   33 C    0 0 0
  34 C    1     1.4030     2.6512   31 C    0 0 0
  34 C    1     2.1663     4.0937   16 H    0 0 0
  34 C    1     2.4163     4.5661   32 C    0 0 0
  34 C    1     2.4289     4.5899   36 C    0 0 0

  35 C    1     1.0913     2.0622   18 H    1 1-2
  35 C    1     1.3918     2.6301   32 C    0 0 0
  35 C    1     1.4029     2.6511   36 C    0 0 0
  35 C    1     2.1707     4.1021   15 H    0 0 0
  35 C    1     2.4155     4.5645   33 C    0 0 0
  35 C    1     2.4269     4.5861   31 C    0 0 0

  36 C    1     1.4029     2.6510   33 C    0 0 0
  36 C    1     1.4029     2.6511   35 C    0 0 0
  36 C    1     1.5529     2.9346    3 B    1 1-2
  36 C    1     2.1487     4.0605   16 H    0 0 0
  36 C    1     2.1495     4.0619   18 H    1 1-2
  36 C    1     2.4270     4.5863   32 C    0 0 0

  37 O    1     1.3790     2.6060    3 B    0 0 0
  37 O    1     1.3795     2.6068    1 B   -1-2 3
  37 O    1     2.3868     4.5105   39 O    0 0 0
  37 O    1     2.3885     4.5136   38 O   -1-2 3
  37 O    1     2.5389     4.7979   30 C    0 0 0
  37 O    1     2.5412     4.8021   36 C   -1-1 2

  38 O    1     1.3787     2.6054    1 B    0 0 0
  38 O    1     1.3792     2.6064    2 B    0 0 0
  38 O    1     2.3885     4.5136   37 O    1 2-3
  38 O    1     2.3912     4.5187   39 O    1 2-3
  38 O    1     2.5351     4.7906   19 C    1 1-1
  38 O    1     2.5405     4.8008   30 C    1 2-3

  39 O    1     1.3795     2.6069    3 B    0 0 0
  39 O    1     1.3798     2.6075    2 B   -1-2 3
  39 O    1     2.3868     4.5105   37 O    0 0 0
  39 O    1     2.3912     4.5187   38 O   -1-2 3
  39 O    1     2.5416     4.8030   19 C    0-1 2
  39 O    1     2.5427     4.8050   36 C   -1-1 2

  40 O    1     1.3783     2.6045    6 B    0 0 0
  40 O    1     1.3785     2.6051    4 B    0 0 0
  40 O    1     2.3876     4.5119   42 O    0 0 0
  40 O    1     2.3913     4.5189   41 O    0 0 0
  40 O    1     2.5354     4.7912   25 C    0 0 0
  40 O    1     2.5360     4.7923   24 C    0 0 0

  41 O    1     1.3778     2.6037    4 B    0 0 0
  41 O    1     1.3778     2.6037    5 B    0 0 0
  41 O    1     2.3870     4.5107   42 O    0 0 0
  41 O    1     2.3913     4.5189   40 O    0 0 0
  41 O    1     2.5304     4.7818   24 C    0 0 0
  41 O    1     2.5353     4.7911   31 C    0 0 0

  42 O    1     1.3812     2.6101    6 B    0 0 0
  42 O    1     1.3813     2.6103    5 B    0 0 0
  42 O    1     2.3870     4.5107   41 O    0 0 0
  42 O    1     2.3876     4.5119   40 O    0 0 0
  42 O    1     2.5481     4.8152   31 C    0 0 0
  42 O    1     2.5522     4.8230   25 C    0 0 0


 SYMMETRY ALLOWED INTERNAL DEGREE(S) OF FREEDOM: 123
 TTTTTTTTTTTTTTTTTTTTTTTTTTTTTT SYMM        TELAPSE        0.44 TCPU        0.44
 TTTTTTTTTTTTTTTTTTTTTTTTTTTTTT INT_SCREEN  TELAPSE        0.48 TCPU        0.47

 DFT PARAMETERS

     ATOM       ELECTRONS   NET CHARGE   R(ANGSTROM)
   1   5  B       5.0000      0.0000     0.89000000
   7   1  H       1.0000      0.0000     1.11000000
  19   6  C       6.0000      0.0000     0.77000000
  37   8  O       8.0000      0.0000     0.74000000

 SIZE OF GRID=    1268451
 TTTTTTTTTTTTTTTTTTTTTTTTTTTTTT MAKE_GRID2  TELAPSE       10.66 TCPU       10.63
 BECKE WEIGHT FUNCTION
 RADSAFE =     2.00
 TOLERANCES - DENSITY:10**- 6; POTENTIAL:10**- 9; GRID WGT:10**-14

 RADIAL INTEGRATION  - INTERVALS (POINTS,UPPER LIMIT):            1( 75,  4.0*R)

 ANGULAR INTEGRATION - INTERVALS (ACCURACY LEVEL [N. POINTS] UPPER LIMIT):
  1(  4[  86]   0.2)  2(  8[ 194]   0.5)  3( 12[ 350]   0.9)  4( 16[ 974]   3.5)
  5( 12[ 350]9999.0)
 TTTTTTTTTTTTTTTTTTTTTTTTTTTTTT INT_CALC    TELAPSE       10.75 TCPU       10.72
 EEEEEEEEEE INT_CALC TERMINATION  DATE 02 12 2025 TIME 07:56:58.1

 *******************************************************************************
 COF-5_z32_inc_L075                                                              
 CRYSTAL - SCF - TYPE OF CALCULATION :  RESTRICTED CLOSED SHELL
 *******************************************************************************

 CAPPA:IS1  2;IS2  2;IS3  8; K PTS MONK NET  20; SYMMOPS:K SPACE   2;G SPACE   1

 TTTTTTTTTTTTTTTTTTTTTTTTTTTTTT SDIK        TELAPSE       11.33 TCPU       18.64

 AAAAAAAAAAAAAAAAAAAAAAAAAAAAAAAAAAAAAAAAAAAAAAAAAAAAAAAAAAAAAAAAAAAAAAAAAAAAAAA
         ATOMIC WAVEFUNCTION(S)


 NUCLEAR CHARGE  5.0  SYMMETRY SPECIES            S    P
 N. ELECTRONS    5.0  NUMBER OF PRIMITIVE GTOS    8    4
                      NUMBER OF CONTRACTED GTOS   4    2
                      NUMBER OF CLOSED SHELLS     2    0
                      OPEN SHELL OCCUPATION       0    1

  ZNUC  SCFIT    TOTAL HF ENERGY   KINETIC ENERGY   VIRIAL THEOREM ACCURACY
   5.0    11    -2.451164084E+01  2.462155050E+01 -1.995536038E+00  1.5E-06

 NUCLEAR CHARGE  1.0  SYMMETRY SPECIES            S
 N. ELECTRONS    1.0  NUMBER OF PRIMITIVE GTOS    4
                      NUMBER OF CONTRACTED GTOS   2
                      NUMBER OF CLOSED SHELLS     0
                      OPEN SHELL OCCUPATION       1

  ZNUC  SCFIT    TOTAL HF ENERGY   KINETIC ENERGY   VIRIAL THEOREM ACCURACY
   1.0     1    -4.977266687E-01  5.190767460E-01 -1.958869132E+00  0.0E+00

 NUCLEAR CHARGE  6.0  SYMMETRY SPECIES            S    P
 N. ELECTRONS    6.0  NUMBER OF PRIMITIVE GTOS    8    4
                      NUMBER OF CONTRACTED GTOS   4    2
                      NUMBER OF CLOSED SHELLS     2    0
                      OPEN SHELL OCCUPATION       0    2

  ZNUC  SCFIT    TOTAL HF ENERGY   KINETIC ENERGY   VIRIAL THEOREM ACCURACY
   6.0     9    -3.766704647E+01  3.775180683E+01 -1.997754800E+00  1.1E-06

 NUCLEAR CHARGE  8.0  SYMMETRY SPECIES            S    P
 N. ELECTRONS    8.0  NUMBER OF PRIMITIVE GTOS    8    4
                      NUMBER OF CONTRACTED GTOS   4    2
                      NUMBER OF CLOSED SHELLS     2    0
                      OPEN SHELL OCCUPATION       0    4

  ZNUC  SCFIT    TOTAL HF ENERGY   KINETIC ENERGY   VIRIAL THEOREM ACCURACY
   8.0    12    -7.477373220E+01  7.477365593E+01 -2.000001020E+00  3.8E-06

 AAAAAAAAAAAAAAAAAAAAAAAAAAAAAAAAAAAAAAAAAAAAAAAAAAAAAAAAAAAAAAAAAAAAAAAAAAAAAAA

 CHARGE NORMALIZATION FACTOR   1.00000000
 TOTAL ATOMIC CHARGES:
   5.0000000   5.0000000   5.0000000   5.0000000   5.0000000   5.0000000
   1.0000000   1.0000000   1.0000000   1.0000000   1.0000000   1.0000000
   1.0000000   1.0000000   1.0000000   1.0000000   1.0000000   1.0000000
   6.0000000   6.0000000   6.0000000   6.0000000   6.0000000   6.0000000
   6.0000000   6.0000000   6.0000000   6.0000000   6.0000000   6.0000000
   6.0000000   6.0000000   6.0000000   6.0000000   6.0000000   6.0000000
   8.0000000   8.0000000   8.0000000   8.0000000   8.0000000   8.0000000
 TTTTTTTTTTTTTTTTTTTTTTTTTTTTTT MOQGAD      TELAPSE       11.38 TCPU       20.15
 TTTTTTTTTTTTTTTTTTTTTTTTTTTTTT SHELLXN     TELAPSE       20.13 TCPU      299.46
 TTTTTTTTTTTTTTTTTTTTTTTTTTTTTT MONMO3      TELAPSE       20.28 TCPU      304.32
 NUMERICALLY INTEGRATED DENSITY    198.0000054050
 TTTTTTTTTTTTTTTTTTTTTTTTTTTTTT NUMDFT      TELAPSE       21.01 TCPU      327.55
 CYC   0 ETOT(AU) -1.295976747807E+03 DETOT -1.30E+03 tst  0.00E+00 PX  1.00E+00
 TTTTTTTTTTTTTTTTTTTTTTTTTTTTTT DIIS        TELAPSE       21.05 TCPU      328.89
 TTTTTTTTTTTTTTTTTTTTTTTTTTTTTT FDIK        TELAPSE       21.56 TCPU      345.08
 INSULATING STATE
 TOP OF VALENCE BANDS -    BAND     99; K    1; EIG -3.0203135E-01 AU
 BOTTOM OF VIRTUAL BANDS - BAND    100; K    1; EIG -1.6249822E-01 AU
 DIRECT ENERGY BAND GAP:   3.7969 eV
 TTTTTTTTTTTTTTTTTTTTTTTTTTTTTT PDIG        TELAPSE       21.91 TCPU      351.28
 CHARGE NORMALIZATION FACTOR   1.00000000
 TOTAL ATOMIC CHARGES:
   4.1379716   4.1522835   4.1535697   4.1551220   4.1528859   4.1361472
   0.7856745   0.7856239   0.7857187   0.7857743   0.7858340   0.7857325
   0.7867175   0.7863011   0.7853911   0.7859694   0.7859487   0.7861600
   6.0429089   6.2685909   6.2685339   6.2671209   6.2657537   6.0453683
   6.0446906   6.2691861   6.2672353   6.2700892   6.2697775   6.0481580
   6.0422716   6.2683936   6.2694784   6.2665251   6.2681678   6.0396008
   8.6998900   8.6991498   8.7009530   8.6987224   8.6995463   8.7010622
 TTTTTTTTTTTTTTTTTTTTTTTTTTTTTT MOQGAD      TELAPSE       21.96 TCPU      351.33
 TTTTTTTTTTTTTTTTTTTTTTTTTTTTTT SHELLXN     TELAPSE       31.05 TCPU      641.18
 TTTTTTTTTTTTTTTTTTTTTTTTTTTTTT MONMO3      TELAPSE       31.20 TCPU      646.02
 NUMERICALLY INTEGRATED DENSITY    198.0000020435
 TTTTTTTTTTTTTTTTTTTTTTTTTTTTTT NUMDFT      TELAPSE       31.93 TCPU      669.54
 CYC   1 ETOT(AU) -1.288820426553E+03 DETOT  7.16E+00 tst  0.00E+00 PX  1.00E+00
 TTTTTTTTTTTTTTTTTTTTTTTTTTTTTT DIIS        TELAPSE       31.98 TCPU      671.12
 DIIS TEST: 0.11112E+01 AT SCF   CYCLE   1 - MIX   30 %
 TTTTTTTTTTTTTTTTTTTTTTTTTTTTTT FDIK        TELAPSE       32.49 TCPU      687.25
 INSULATING STATE
 TOP OF VALENCE BANDS -    BAND     99; K    1; EIG -2.1187771E-01 AU
 BOTTOM OF VIRTUAL BANDS - BAND    100; K    1; EIG -8.9743192E-02 AU
 DIRECT ENERGY BAND GAP:   3.3235 eV
 TTTTTTTTTTTTTTTTTTTTTTTTTTTTTT PDIG        TELAPSE       32.84 TCPU      693.45
 CHARGE NORMALIZATION FACTOR   1.00000000
 TOTAL ATOMIC CHARGES:
   4.7093586   4.6943304   4.6939156   4.6948920   4.6937897   4.7095820
   0.9050270   0.9054695   0.9059102   0.9058623   0.9020399   0.9016719
   0.9022437   0.9026061   0.9047861   0.9050064   0.9057924   0.9057595
   5.8713635   6.1523294   6.1507815   6.1296950   6.1305222   5.8668941
   5.9019533   6.1254416   6.1264495   6.1311927   6.1275746   5.8954918
   5.8716411   6.1475695   6.1501686   6.1313083   6.1292087   5.8737876
   8.3438131   8.3427802   8.3326852   8.3421436   8.3292859   8.3478759
 TTTTTTTTTTTTTTTTTTTTTTTTTTTTTT MOQGAD      TELAPSE       32.89 TCPU      693.50
 TTTTTTTTTTTTTTTTTTTTTTTTTTTTTT SHELLXN     TELAPSE       41.98 TCPU      983.38
 TTTTTTTTTTTTTTTTTTTTTTTTTTTTTT MONMO3      TELAPSE       42.13 TCPU      988.22
 NUMERICALLY INTEGRATED DENSITY    198.0000011710
 TTTTTTTTTTTTTTTTTTTTTTTTTTTTTT NUMDFT      TELAPSE       42.86 TCPU     1011.71
 CYC   2 ETOT(AU) -1.289011806242E+03 DETOT -1.91E-01 tst  2.87E-03 PX  1.60E-01
 TTTTTTTTTTTTTTTTTTTTTTTTTTTTTT DIIS        TELAPSE       42.92 TCPU     1013.44
 DIIS TEST: 0.46688E+00 AT SCF   CYCLE   2 - DIIS ACTIVE - HISTORY:     2 CYCLES
 TTTTTTTTTTTTTTTTTTTTTTTTTTTTTT FDIK        TELAPSE       43.43 TCPU     1029.67
 INSULATING STATE
 TOP OF VALENCE BANDS -    BAND     99; K    1; EIG -2.2527233E-01 AU
 BOTTOM OF VIRTUAL BANDS - BAND    100; K    1; EIG -8.3185131E-02 AU
 DIRECT ENERGY BAND GAP:   3.8664 eV
 TTTTTTTTTTTTTTTTTTTTTTTTTTTTTT PDIG        TELAPSE       43.77 TCPU     1035.87
 CHARGE NORMALIZATION FACTOR   1.00000000
 TOTAL ATOMIC CHARGES:
   4.4889569   4.4872586   4.4872986   4.4893886   4.4876105   4.4876005
   0.8847815   0.8845619   0.8855209   0.8854827   0.8807833   0.8804719
   0.8818219   0.8813061   0.8836206   0.8845974   0.8856037   0.8853088
   5.8910203   6.1673729   6.1679382   6.1651165   6.1653273   5.8934403
   5.8894879   6.1683306   6.1695690   6.1712245   6.1718793   5.8929694
   5.8928129   6.1669741   6.1677962   6.1664989   6.1663225   5.8914480
   8.5154672   8.5146408   8.5214811   8.5138852   8.5198180   8.5172047
 TTTTTTTTTTTTTTTTTTTTTTTTTTTTTT MOQGAD      TELAPSE       43.82 TCPU     1035.91
 TTTTTTTTTTTTTTTTTTTTTTTTTTTTTT SHELLXN     TELAPSE       52.91 TCPU     1325.84
 TTTTTTTTTTTTTTTTTTTTTTTTTTTTTT MONMO3      TELAPSE       53.06 TCPU     1330.69
 NUMERICALLY INTEGRATED DENSITY    198.0000005432
 TTTTTTTTTTTTTTTTTTTTTTTTTTTTTT NUMDFT      TELAPSE       53.80 TCPU     1354.17
 CYC   3 ETOT(AU) -1.289107257362E+03 DETOT -9.55E-02 tst  8.11E-04 PX  6.63E-02
 TTTTTTTTTTTTTTTTTTTTTTTTTTTTTT DIIS        TELAPSE       53.86 TCPU     1356.09
 DIIS TEST: 0.13795E-01 AT SCF   CYCLE   3 - DIIS ACTIVE - HISTORY:     3 CYCLES
 TTTTTTTTTTTTTTTTTTTTTTTTTTTTTT FDIK        TELAPSE       54.37 TCPU     1372.32
 INSULATING STATE
 TOP OF VALENCE BANDS -    BAND     99; K    1; EIG -2.3406155E-01 AU
 BOTTOM OF VIRTUAL BANDS - BAND    100; K    1; EIG -9.1745072E-02 AU
 DIRECT ENERGY BAND GAP:   3.8726 eV
 TTTTTTTTTTTTTTTTTTTTTTTTTTTTTT PDIG        TELAPSE       54.71 TCPU     1378.52
 CHARGE NORMALIZATION FACTOR   1.00000000
 TOTAL ATOMIC CHARGES:
   4.4960686   4.4927863   4.4926667   4.4941437   4.4922009   4.4951589
   0.8674970   0.8678725   0.8692575   0.8694953   0.8652231   0.8652574
   0.8661392   0.8663041   0.8670533   0.8676180   0.8696713   0.8694015
   5.9420370   6.1796642   6.1780443   6.1649235   6.1640178   5.9386338
   5.9605665   6.1651122   6.1636473   6.1680030   6.1647848   5.9557663
   5.9406005   6.1770384   6.1788116   6.1649524   6.1647398   5.9416921
   8.4887990   8.4878493   8.4800241   8.4875077   8.4770625   8.4919065
 TTTTTTTTTTTTTTTTTTTTTTTTTTTTTT MOQGAD      TELAPSE       54.76 TCPU     1378.57
 TTTTTTTTTTTTTTTTTTTTTTTTTTTTTT SHELLXN     TELAPSE       63.85 TCPU     1668.37
 TTTTTTTTTTTTTTTTTTTTTTTTTTTTTT MONMO3      TELAPSE       64.00 TCPU     1673.24
 NUMERICALLY INTEGRATED DENSITY    198.0000008763
 TTTTTTTTTTTTTTTTTTTTTTTTTTTTTT NUMDFT      TELAPSE       64.74 TCPU     1696.71
 CYC   4 ETOT(AU) -1.289110138917E+03 DETOT -2.88E-03 tst  4.40E-05 PX  1.54E-02
 TTTTTTTTTTTTTTTTTTTTTTTTTTTTTT DIIS        TELAPSE       64.80 TCPU     1698.79
 DIIS TEST: 0.38189E-02 AT SCF   CYCLE   4 - DIIS ACTIVE - HISTORY:     4 CYCLES
 TTTTTTTTTTTTTTTTTTTTTTTTTTTTTT FDIK        TELAPSE       65.31 TCPU     1714.89
 INSULATING STATE
 TOP OF VALENCE BANDS -    BAND     99; K    1; EIG -2.3280755E-01 AU
 BOTTOM OF VIRTUAL BANDS - BAND    100; K    1; EIG -9.1645459E-02 AU
 DIRECT ENERGY BAND GAP:   3.8412 eV
 TTTTTTTTTTTTTTTTTTTTTTTTTTTTTT PDIG        TELAPSE       65.65 TCPU     1721.08
 CHARGE NORMALIZATION FACTOR   1.00000000
 TOTAL ATOMIC CHARGES:
   4.5008342   4.4949456   4.4948682   4.4966905   4.4948977   4.4998096
   0.8706286   0.8705454   0.8716760   0.8716172   0.8671926   0.8668112
   0.8680912   0.8677168   0.8697710   0.8705945   0.8718073   0.8716376
   5.9209838   6.1770442   6.1772290   6.1678077   6.1681852   5.9223574
   5.9308802   6.1686421   6.1699201   6.1717868   6.1716411   5.9326606
   5.9227121   6.1757830   6.1768937   6.1690948   6.1684027   5.9216591
   8.4947757   8.4938468   8.4946685   8.4931267   8.4928486   8.4969148
 TTTTTTTTTTTTTTTTTTTTTTTTTTTTTT MOQGAD      TELAPSE       65.70 TCPU     1721.13
 TTTTTTTTTTTTTTTTTTTTTTTTTTTTTT SHELLXN     TELAPSE       74.80 TCPU     2011.03
 TTTTTTTTTTTTTTTTTTTTTTTTTTTTTT MONMO3      TELAPSE       74.95 TCPU     2015.91
 NUMERICALLY INTEGRATED DENSITY    198.0000007676
 TTTTTTTTTTTTTTTTTTTTTTTTTTTTTT NUMDFT      TELAPSE       75.69 TCPU     2039.48
 CYC   5 ETOT(AU) -1.289111008472E+03 DETOT -8.70E-04 tst  6.95E-06 PX  7.50E-03
 TTTTTTTTTTTTTTTTTTTTTTTTTTTTTT DIIS        TELAPSE       75.76 TCPU     2041.95
 DIIS TEST: 0.93293E-04 AT SCF   CYCLE   5 - DIIS ACTIVE - HISTORY:     5 CYCLES
 TTTTTTTTTTTTTTTTTTTTTTTTTTTTTT FDIK        TELAPSE       76.28 TCPU     2058.62
 INSULATING STATE
 TOP OF VALENCE BANDS -    BAND     99; K    1; EIG -2.3258521E-01 AU
 BOTTOM OF VIRTUAL BANDS - BAND    100; K    1; EIG -9.1035892E-02 AU
 DIRECT ENERGY BAND GAP:   3.8518 eV
 TTTTTTTTTTTTTTTTTTTTTTTTTTTTTT PDIG        TELAPSE       76.63 TCPU     2064.82
 CHARGE NORMALIZATION FACTOR   1.00000000
 TOTAL ATOMIC CHARGES:
   4.4989237   4.4952048   4.4951247   4.4967247   4.4949178   4.4979447
   0.8713131   0.8715827   0.8724397   0.8726598   0.8681275   0.8681614
   0.8690291   0.8690801   0.8707269   0.8713578   0.8728043   0.8724687
   5.9234676   6.1777749   6.1764847   6.1673118   6.1662940   5.9208231
   5.9339708   6.1690071   6.1676075   6.1719430   6.1693424   5.9304453
   5.9221547   6.1755880   6.1771610   6.1674082   6.1675464   5.9231782
   8.4956534   8.4948091   8.4916763   8.4944142   8.4888008   8.4985462
 TTTTTTTTTTTTTTTTTTTTTTTTTTTTTT MOQGAD      TELAPSE       76.68 TCPU     2064.87
 TTTTTTTTTTTTTTTTTTTTTTTTTTTTTT SHELLXN     TELAPSE       85.78 TCPU     2354.64
 TTTTTTTTTTTTTTTTTTTTTTTTTTTTTT MONMO3      TELAPSE       85.93 TCPU     2359.51
 NUMERICALLY INTEGRATED DENSITY    198.0000007646
 TTTTTTTTTTTTTTTTTTTTTTTTTTTTTT NUMDFT      TELAPSE       86.67 TCPU     2382.97
 CYC   6 ETOT(AU) -1.289111027035E+03 DETOT -1.86E-05 tst  2.56E-07 PX  1.89E-03
 TTTTTTTTTTTTTTTTTTTTTTTTTTTTTT DIIS        TELAPSE       86.74 TCPU     2385.33
 DIIS TEST: 0.30968E-04 AT SCF   CYCLE   6 - DIIS ACTIVE - HISTORY:     6 CYCLES
 TTTTTTTTTTTTTTTTTTTTTTTTTTTTTT FDIK        TELAPSE       87.25 TCPU     2401.64
 INSULATING STATE
 TOP OF VALENCE BANDS -    BAND     99; K    1; EIG -2.3262154E-01 AU
 BOTTOM OF VIRTUAL BANDS - BAND    100; K    1; EIG -9.1130987E-02 AU
 DIRECT ENERGY BAND GAP:   3.8502 eV
 TTTTTTTTTTTTTTTTTTTTTTTTTTTTTT PDIG        TELAPSE       87.59 TCPU     2407.84
 CHARGE NORMALIZATION FACTOR   1.00000000
 TOTAL ATOMIC CHARGES:
   4.4997136   4.4949595   4.4948937   4.4966530   4.4948387   4.4986670
   0.8714317   0.8714489   0.8725600   0.8725614   0.8681550   0.8678741
   0.8690476   0.8688027   0.8706505   0.8714195   0.8727420   0.8725445
   5.9220792   6.1768006   6.1765633   6.1668801   6.1670150   5.9224377
   5.9325952   6.1678828   6.1685511   6.1710054   6.1701507   5.9329280
   5.9230939   6.1752657   6.1765444   6.1679457   6.1673483   5.9224907
   8.4949772   8.4940332   8.4929055   8.4933953   8.4908530   8.4972945
 TTTTTTTTTTTTTTTTTTTTTTTTTTTTTT MOQGAD      TELAPSE       87.64 TCPU     2407.89
 TTTTTTTTTTTTTTTTTTTTTTTTTTTTTT SHELLXN     TELAPSE       96.74 TCPU     2697.74
 TTTTTTTTTTTTTTTTTTTTTTTTTTTTTT MONMO3      TELAPSE       96.89 TCPU     2702.60
 NUMERICALLY INTEGRATED DENSITY    198.0000007668
 TTTTTTTTTTTTTTTTTTTTTTTTTTTTTT NUMDFT      TELAPSE       97.63 TCPU     2726.18
 CYC   7 ETOT(AU) -1.289111033646E+03 DETOT -6.61E-06 tst  1.07E-07 PX  7.56E-04
 TTTTTTTTTTTTTTTTTTTTTTTTTTTTTT DIIS        TELAPSE       97.72 TCPU     2728.89
 DIIS TEST: 0.20635E-05 AT SCF   CYCLE   7 - DIIS ACTIVE - HISTORY:     7 CYCLES
 TTTTTTTTTTTTTTTTTTTTTTTTTTTTTT FDIK        TELAPSE       98.23 TCPU     2745.34
 INSULATING STATE
 TOP OF VALENCE BANDS -    BAND     99; K    1; EIG -2.3262509E-01 AU
 BOTTOM OF VIRTUAL BANDS - BAND    100; K    1; EIG -9.1162160E-02 AU
 DIRECT ENERGY BAND GAP:   3.8494 eV
 TTTTTTTTTTTTTTTTTTTTTTTTTTTTTT PDIG        TELAPSE       98.58 TCPU     2751.54
 CHARGE NORMALIZATION FACTOR   1.00000000
 TOTAL ATOMIC CHARGES:
   4.4998320   4.4950570   4.4949808   4.4966965   4.4948836   4.4988207
   0.8713590   0.8714443   0.8724841   0.8725661   0.8680663   0.8678908
   0.8689723   0.8688051   0.8706296   0.8713633   0.8727348   0.8724802
   5.9224546   6.1770198   6.1765006   6.1670876   6.1667702   5.9218555
   5.9329784   6.1682633   6.1682378   6.1712814   6.1699564   5.9321636
   5.9227065   6.1753177   6.1766461   6.1677735   6.1674943   5.9226639
   8.4949893   8.4941036   8.4929790   8.4935432   8.4906384   8.4975085
 TTTTTTTTTTTTTTTTTTTTTTTTTTTTTT MOQGAD      TELAPSE       98.63 TCPU     2751.59
 TTTTTTTTTTTTTTTTTTTTTTTTTTTTTT SHELLXN     TELAPSE      107.73 TCPU     3041.35
 TTTTTTTTTTTTTTTTTTTTTTTTTTTTTT MONMO3      TELAPSE      107.88 TCPU     3046.21
 NUMERICALLY INTEGRATED DENSITY    198.0000007647
 TTTTTTTTTTTTTTTTTTTTTTTTTTTTTT NUMDFT      TELAPSE      108.62 TCPU     3069.72
 CYC   8 ETOT(AU) -1.289111034008E+03 DETOT -3.62E-07 tst  9.85E-09 PX  1.76E-04
 TTTTTTTTTTTTTTTTTTTTTTTTTTTTTT DIIS        TELAPSE      108.70 TCPU     3072.51
 DIIS TEST: 0.16764E-06 AT SCF   CYCLE   8 - DIIS ACTIVE - HISTORY:     8 CYCLES
 TTTTTTTTTTTTTTTTTTTTTTTTTTTTTT FDIK        TELAPSE      109.20 TCPU     3088.40
 INSULATING STATE
 TOP OF VALENCE BANDS -    BAND     99; K    1; EIG -2.3262600E-01 AU
 BOTTOM OF VIRTUAL BANDS - BAND    100; K    1; EIG -9.1155935E-02 AU
 DIRECT ENERGY BAND GAP:   3.8496 eV
 TTTTTTTTTTTTTTTTTTTTTTTTTTTTTT PDIG        TELAPSE      109.54 TCPU     3094.60
 CHARGE NORMALIZATION FACTOR   1.00000000
 TOTAL ATOMIC CHARGES:
   4.4997749   4.4950690   4.4949937   4.4967184   4.4949048   4.4987539
   0.8713586   0.8714312   0.8724893   0.8725406   0.8680822   0.8678726
   0.8689789   0.8687970   0.8706199   0.8713595   0.8727138   0.8724825
   5.9223056   6.1770207   6.1765533   6.1670063   6.1668687   5.9219977
   5.9327729   6.1681800   6.1683759   6.1712577   6.1700240   5.9322632
   5.9227948   6.1753444   6.1766790   6.1678441   6.1674313   5.9225684
   8.4950913   8.4941760   8.4928072   8.4935922   8.4905649   8.4975399
 TTTTTTTTTTTTTTTTTTTTTTTTTTTTTT MOQGAD      TELAPSE      109.59 TCPU     3094.64
 TTTTTTTTTTTTTTTTTTTTTTTTTTTTTT SHELLXN     TELAPSE      118.69 TCPU     3384.52
 +++ ENERGIES IN A.U. +++
 ::: EXT EL-POLE                                  -1.6162433532743E+03
 ::: EXT EL-SPHEROPOLE                             1.7880094661492E+01
 ::: BIELET ZONE E-E                               2.2217899759428E+03
 ::: TOTAL E-E                                     6.2342671733003E+02
 ::: TOTAL E-N + N-E                              -3.0696083110807E+03
 ::: TOTAL N-N                                     1.0836042074045E+01
 ::: KINETIC ENERGY                                1.2799587286936E+03
 ::: PSEUDO TOTAL   ENERGY                        -1.1553868229830E+03
 ::: VIRIAL COEFFICIENT                            1.0511516345698E+00
 TTTTTTTTTTTTTTTTTTTTTTTTTTTTTT MONMO3      TELAPSE      118.85 TCPU     3389.38
 NUMERICALLY INTEGRATED DENSITY    198.0000007645
 EXCHANGE ENERGY: -0.126022900988E+03  CORRELATION ENERGY: -0.770131006935E+01
 TTTTTTTTTTTTTTTTTTTTTTTTTTTTTT NUMDFT      TELAPSE      119.58 TCPU     3412.97
 CYC   9 ETOT(AU) -1.289111034041E+03 DETOT -3.27E-08 tst  7.82E-10 PX  1.76E-04

 == SCF ENDED - CONVERGENCE ON ENERGY      E(AU) -1.2891110340408E+03 CYCLES   9


 ENERGY EXPRESSION=HARTREE+FOCK EXCH*0.00000+(HSESOL     EXCH)*1.00000+PBESOL     CORR


 TOTAL ENERGY(DFT)(AU)(  9) -1.2891110340408E+03 DE-3.3E-08 tester 7.8E-10
 TTTTTTTTTTTTTTTTTTTTTTTTTTTTTT EDFT        TELAPSE      119.58 TCPU     3412.98
 
 INFORMATION **** DFTD3 ENERGY **** CALCULATE DFTD3 ENERGY

           DFT-D V3(BJ)
 DF                                         hsesol3c  
 parameters
 s6       :    1.0000
 s8       :    0.0000
 a1       :    0.5196
 a2       :    4.9385
 k1 k3    :   16.0000   -4.0000
 Cutoff   :   50.2022
 CN-Cutoff:   21.1671
 ABC-Cutoff:   21.1671
 
 Edisp /kcal,au:   -28.0988 -0.04477831

 E6    /kcal :   -29.9265
 E8    /kcal :     0.0000
 E6(ABC) "   :   1.827659
 
 INFORMATION **** DFTD3 ENERGY **** NORMAL TERMINATION OF DFTD3 MODULE

 GCP ENERGY CALCULATION
  level        hsesol3c            basis:hsesol3c
  Nbf            474
  Atoms           42

  Parameters: 
  sigma     1.0000
  eta       1.4281
  alpha     0.2936
  beta      1.9467

  dmp_scal      4.0000
  dmp_exp       6.0000
 cutoffs: 
   distance [bohr] 60.0
   noise    [a.u.] 2.2E-16
 SR-damping   T
 ** gCP correction **
  Egcp:        0.0842345660 / (a.u.) ||      52.8580 / (kcal/mol)
 INFORMATION **** GCP **** NORMAL TERMINATION OF GCP MODULE

 *******************************************************************************

 DFT-D3-GCP DISPERSION AND COUNTERPOISE CORRECTION

 D3 DISPERSION ENERGY (AU)      -4.4778308639696E-02
 GCP ENERGY (AU)                 8.4234565995904E-02
 TOTAL ENERGY + DISP + GCP (AU) -1.2890715777835E+03

 *******************************************************************************

 EIGENVECTORS IN FORTRAN UNIT 10
 TTTTTTTTTTTTTTTTTTTTTTTTTTTTTT END         TELAPSE      122.21 TCPU     3421.58
 EEEEEEEEEE TERMINATION  DATE 02 12 2025 TIME 07:58:49.5
