 Default number of threads is:           32

         
 *******************************************************************************
 *                                                                             *
 *                               CRYSTAL23                                     *
 *                      public : 1.0.1 - October 2022                          *
 *                       HTTP://WWW.CRYSTAL.UNITO.IT                           *
 *                                                                             *
 *                              MAIN AUTHORS                                   *
 *                                                                             *
 *  R. DOVESI(1,11), V.R. SAUNDERS(2), C. ROETTI(1,11), R. ORLANDO(1,11),      *
 *  C.M. ZICOVICH-WILSON(1,3), F. PASCALE(4), B. CIVALLERI(1,11),              *
 *  K. DOLL(5), N.M. HARRISON(6), I.J. BUSH(7), Ph. D'ARCO(8),                 *
 *  M. LLUNELL(9), M. CAUSA'(10), Y. NOEL(8), L. MASCHIO(1,11), A. ERBA(1,11)  *
 *  M. RE'RAT(14), S. CASASSA(1,11), B.G. SEARLE(2), J.K. DESMARAIS(1)         *
 *                                                                             *
 *        CONTRIBUTIONS TO THE CODE HAVE ALSO BEEN GIVEN BY                    *
 *                                                                             *
 *  M. FERRABONE(1,11), M. DE LA PIERRE(1,11), M. FERRERO(1,11),               *
 *  J. BAIMA(1,11), E. ALBANESE(1,11), M.F. PEINTINGER(12), R. BAST(13),       *
 *  B. KIRTMAN(15), V. LACIVITA(1,11), R. DEMICHELIS(1,16)                     *
 *  G. BRANDEBURG(17), S. SALUSTRO(1,11), G. SANSONE(1,11)                     *
 *  M.T. RUGGIERO(18), L.E. DAGA(1), L. DONA'(1), A. COSSARD(1)                *
 *                                                                             *
 * (1) THEORETICAL CHEMISTRY GROUP - UNIVERSITA' DI TORINO - TORINO (ITALY)    *
 * (2) SCIENTIFIC COMPUTING DEPARTMENT - STFC DARESBURY (UK)                   *
 * (3) UNIVERSIDAD AUTONOMA DEL ESTADO DE MORELOS - CUERNAVACA (MEXICO)        *
 * (4) UNIVERSITE' DE LORRAINE - NANCY (FRANCE)                                *
 * (5) UNIVERSITAET STUTTGART- STUTTGART (GERMANY)                             *
 * (6) IMPERIAL COLLEGE - LONDON (UK)                                          *
 * (7) SCIENTIFIC COMPUTING DEPARTMENT - STFC RAL (UK)                         *
 * (8) UPMC - SORBONNE UNIVERSITES - PARIS (FRANCE)                            *
 * (9) UNIVERSIDAD DE BARCELONA - BARCELONA (SPAIN)                            *
 *(10) UNIVERSITA' DI NAPOLI "FEDERICO II" - NAPOLI (ITALY)                    *
 *(11) NIS - NANOSTRUCTURED INTERFACES AND SURFACES - TORINO (ITALY)           *
 *(12) MPI FUER CHEMISCHE ENERGIEKONVERSION - MUELHEIM AN DER RUHR (GERMANY)   *
 *(13) UNIVERSITY OF TROMSO - TROMSO (NORWAY)                                  *
 *(14) UNIVERSITE' DE PAU ET DES PAYS DE L'ADOUR - PAU (FRANCE)                *
 *(15) UNIVERSITY OF CALIFORNIA SANTA BARBARA - SANTA BARBARA (USA)            *
 *(16) CURTIN UNIVERSITY - PERTH (AUSTRALIA)                                   *
 *(17) UNIVERSITY COLLEGE LONDON - LONDON (UK)                                 *
 *(18) UNIVERSITY OF VERMONT - BURLINGTON (USA)                                *
 *                                                                             *
 *******************************************************************************
 EEEEEEEEEE STARTING  DATE 19 02 2026 TIME 20:10:12.1
 cof-1_z35_L040_serr                                                             

 CRYSTAL CALCULATION
 (INPUT ACCORDING TO THE INTERNATIONAL TABLES FOR X-RAY CRYSTALLOGRAPHY)
 CRYSTAL FAMILY                       :  TRICLINIC   
 CRYSTAL CLASS  (GROTH - 1921)        :  TRICLINIC PEDIAL                     

 SPACE GROUP (NONCENTROSYMMETRIC)     :  P 1             

 LATTICE PARAMETERS  (ANGSTROMS AND DEGREES) - CONVENTIONAL CELL
        A           B           C        ALPHA        BETA       GAMMA
    15.02361    15.02392     7.00000    90.00032    89.99994   119.99596


 NUMBER OF IRREDUCIBLE ATOMS IN THE CONVENTIONAL CELL:   84

 INPUT COORDINATES

 ATOM AT. N.              COORDINATES
   1   5     6.136805400000E-01  2.273182200000E-01  2.506823900000E-01
   2   5     7.673736500000E-01  5.347356900000E-01  7.506823900000E-01
   3   5     7.727362000000E-01  3.863778800000E-01  2.506824000000E-01
   4   5     9.264293100000E-01  6.937953500000E-01  7.506824000000E-01
   5   5     6.136762700000E-01  3.863606700000E-01  2.492476500000E-01
   6   5     7.673693800000E-01  6.937781400000E-01  7.492476600000E-01
   7   5     2.272552500000E-01  6.136332200000E-01  2.506824000000E-01
   8   5     3.809483600000E-01  9.210506900000E-01  7.506824000000E-01
   9   5     3.863632200000E-01  6.136124500000E-01  2.506823900000E-01
  10   5     5.400563300000E-01  9.210299200000E-01  7.506823900000E-01
  11   5     3.863435000000E-01  7.727516500000E-01  2.492476600000E-01
  12   5     5.400366100000E-01  8.016912000000E-02  7.492476600000E-01
  13   1     9.030436200000E-01  3.089300500000E-01  2.477078900000E-01
  14   1     5.673673000000E-02  6.163475200000E-01  7.477078900000E-01
  15   1     9.663453000000E-02  6.910534400000E-01  2.472530400000E-01
  16   1     2.503276400000E-01  9.984709100000E-01  7.472530300000E-01
  17   1     9.029714200000E-01  5.940724300000E-01  2.471830300000E-01
  18   1     5.666453000000E-02  9.014899000000E-01  7.471830300000E-01
  19   1     9.673618000000E-02  4.056849400000E-01  2.472004900000E-01
  20   1     2.504292900000E-01  7.131024100000E-01  7.472004900000E-01
  21   1     6.910324000000E-01  9.700412000000E-02  2.522921300000E-01
  22   1     8.447255100000E-01  4.044215900000E-01  7.522921300000E-01
  23   1     3.089297200000E-01  9.034373100000E-01  2.527470200000E-01
  24   1     4.626228300000E-01  2.108547800000E-01  7.527470100000E-01
  25   1     4.058699900000E-01  9.704998000000E-02  2.528170600000E-01
  26   1     5.595631000000E-01  4.044674500000E-01  7.528170600000E-01
  27   1     5.943122100000E-01  9.033473200000E-01  2.527994800000E-01
  28   1     7.480053200000E-01  2.107647900000E-01  7.527994800000E-01
  29   1     6.910727400000E-01  5.940542100000E-01  2.477079200000E-01
  30   1     8.447658500000E-01  9.014716800000E-01  7.477079100000E-01
  31   1     3.089618300000E-01  4.056093300000E-01  2.472530100000E-01
  32   1     4.626549400000E-01  7.130268000000E-01  7.472530100000E-01
  33   1     4.058405700000E-01  3.088232500000E-01  2.471829700000E-01
  34   1     5.595336800000E-01  6.162407200000E-01  7.471829700000E-01
  35   1     5.942908800000E-01  6.909579300000E-01  2.472005500000E-01
  36   1     7.479839900000E-01  9.983754000000E-01  7.472005500000E-01
  37   6     8.918903100000E-01  4.459436900000E-01  2.491951600000E-01
  38   6     4.558342000000E-02  7.533611600000E-01  7.491951600000E-01
  39   6     9.464891100000E-01  3.927856300000E-01  2.477778800000E-01
  40   6     1.001822200000E-01  7.002031000000E-01  7.477778800000E-01
  41   6     5.338812000000E-02  6.071853000000E-01  2.476554500000E-01
  42   6     2.070812300000E-01  9.146027700000E-01  7.476554500000E-01
  43   6     9.464521100000E-01  5.536921900000E-01  2.480228800000E-01
  44   6     1.001452200000E-01  8.611096600000E-01  7.480228800000E-01
  45   6     5.342634000000E-02  4.462499700000E-01  2.470780200000E-01
  46   6     2.071194500000E-01  7.536674400000E-01  7.470780200000E-01
  47   6     1.080358900000E-01  5.540356300000E-01  2.480403700000E-01
  48   6     2.617290000000E-01  8.614531000000E-01  7.480403600000E-01
  49   6     5.540394200000E-01  1.081684600000E-01  2.508048800000E-01
  50   6     7.077325300000E-01  4.155859300000E-01  7.508048800000E-01
  51   6     6.071778500000E-01  5.355594000000E-02  2.522221300000E-01
  52   6     7.608709600000E-01  3.609734100000E-01  7.522221300000E-01
  53   6     3.927986700000E-01  9.466631600000E-01  2.523446000000E-01
  54   6     5.464917800000E-01  2.540806300000E-01  7.523446000000E-01
  55   6     4.462875800000E-01  5.360286000000E-02  2.519771800000E-01
  56   6     5.999806900000E-01  3.610203300000E-01  7.519771800000E-01
  57   6     5.537168500000E-01  9.466235600000E-01  2.529219900000E-01
  58   6     7.074099600000E-01  2.540410300000E-01  7.529219800000E-01
  59   6     4.459279100000E-01  8.919920600000E-01  2.519596600000E-01
  60   6     5.996210200000E-01  1.994095300000E-01  7.519596600000E-01
  61   6     5.540448700000E-01  4.458745500000E-01  2.491951600000E-01
  62   6     7.077379800000E-01  7.532920200000E-01  7.491951600000E-01
  63   6     6.072102200000E-01  5.536257800000E-01  2.477779100000E-01
  64   6     7.609033300000E-01  8.610432500000E-01  7.477779200000E-01
  65   6     3.928233700000E-01  4.461720300000E-01  2.476554200000E-01
  66   6     5.465164800000E-01  7.535895000000E-01  7.476554200000E-01
  67   6     4.462872600000E-01  3.926899900000E-01  2.480228400000E-01
  68   6     5.999803700000E-01  7.001074600000E-01  7.480228400000E-01
  69   6     5.537429600000E-01  6.070980000000E-01  2.470780500000E-01
  70   6     7.074360700000E-01  9.145154700000E-01  7.470780500000E-01
  71   6     4.459599800000E-01  5.539582300000E-01  2.480403700000E-01
  72   6     5.996530900000E-01  8.613757000000E-01  7.480403600000E-01
  73   8     5.607366800000E-01  2.803706300000E-01  2.496325800000E-01
  74   8     7.144297900000E-01  5.877881000000E-01  7.496325800000E-01
  75   8     7.196817000000E-01  2.803783300000E-01  2.526595300000E-01
  76   8     8.733748100000E-01  5.877958000000E-01  7.526595400000E-01
  77   8     7.196794200000E-01  4.393234600000E-01  2.480928700000E-01
  78   8     8.733725300000E-01  7.467409300000E-01  7.480928700000E-01
  79   8     2.803245100000E-01  7.196511100000E-01  2.496325900000E-01
  80   8     4.340176200000E-01  2.706858000000E-02  7.496325900000E-01
  81   8     2.803439700000E-01  5.606956100000E-01  2.526595300000E-01
  82   8     4.340370800000E-01  8.681130800000E-01  7.526595300000E-01
  83   8     4.392638400000E-01  7.196354200000E-01  2.480928600000E-01
  84   8     5.929569500000E-01  2.705289000000E-02  7.480928600000E-01

 *******************************************************************************

 << INFORMATION >>: FROM NOW ON, ALL COORDINATES REFER TO THE PRIMITIVE CELL

 *******************************************************************************

 LATTICE PARAMETERS  (ANGSTROMS AND DEGREES) - PRIMITIVE CELL
       A          B          C        ALPHA      BETA     GAMMA        VOLUME
   15.02361   15.02392    7.00000    90.00032  89.99994 119.99596   1368.370836

 COORDINATES OF THE EQUIVALENT ATOMS (FRACTIONAL UNITS)

 N. ATOM EQUIV AT. N.          X                  Y                  Z

   1   1   1    5 B    -3.86319460000E-01  2.27318220000E-01  2.50682390000E-01

   2   2   1    5 B    -2.32626350000E-01 -4.65264310000E-01 -2.49317610000E-01

   3   3   1    5 B    -2.27263800000E-01  3.86377880000E-01  2.50682400000E-01

   4   4   1    5 B    -7.35706900000E-02 -3.06204650000E-01 -2.49317600000E-01

   5   5   1    5 B    -3.86323730000E-01  3.86360670000E-01  2.49247650000E-01

   6   6   1    5 B    -2.32630620000E-01 -3.06221860000E-01 -2.50752340000E-01

   7   7   1    5 B     2.27255250000E-01 -3.86366780000E-01  2.50682400000E-01

   8   8   1    5 B     3.80948360000E-01 -7.89493100000E-02 -2.49317600000E-01

   9   9   1    5 B     3.86363220000E-01 -3.86387550000E-01  2.50682390000E-01

  10  10   1    5 B    -4.59943670000E-01 -7.89700800000E-02 -2.49317610000E-01

  11  11   1    5 B     3.86343500000E-01 -2.27248350000E-01  2.49247660000E-01

  12  12   1    5 B    -4.59963390000E-01  8.01691200000E-02 -2.50752340000E-01

  13  13   1    1 H    -9.69563800000E-02  3.08930050000E-01  2.47707890000E-01

  14  14   1    1 H     5.67367300000E-02 -3.83652480000E-01 -2.52292110000E-01

  15  15   1    1 H     9.66345300000E-02 -3.08946560000E-01  2.47253040000E-01

  16  16   1    1 H     2.50327640000E-01 -1.52909000000E-03 -2.52746970000E-01

  17  17   1    1 H    -9.70285800000E-02 -4.05927570000E-01  2.47183030000E-01

  18  18   1    1 H     5.66645300000E-02 -9.85101000000E-02 -2.52816970000E-01

  19  19   1    1 H     9.67361800000E-02  4.05684940000E-01  2.47200490000E-01

  20  20   1    1 H     2.50429290000E-01 -2.86897590000E-01 -2.52799510000E-01

  21  21   1    1 H    -3.08967600000E-01  9.70041200000E-02  2.52292130000E-01

  22  22   1    1 H    -1.55274490000E-01  4.04421590000E-01 -2.47707870000E-01

  23  23   1    1 H     3.08929720000E-01 -9.65626900000E-02  2.52747020000E-01

  24  24   1    1 H     4.62622830000E-01  2.10854780000E-01 -2.47252990000E-01

  25  25   1    1 H     4.05869990000E-01  9.70499800000E-02  2.52817060000E-01

  26  26   1    1 H    -4.40436900000E-01  4.04467450000E-01 -2.47182940000E-01

  27  27   1    1 H    -4.05687790000E-01 -9.66526800000E-02  2.52799480000E-01

  28  28   1    1 H    -2.51994680000E-01  2.10764790000E-01 -2.47200520000E-01

  29  29   1    1 H    -3.08927260000E-01 -4.05945790000E-01  2.47707920000E-01

  30  30   1    1 H    -1.55234150000E-01 -9.85283200000E-02 -2.52292090000E-01

  31  31   1    1 H     3.08961830000E-01  4.05609330000E-01  2.47253010000E-01

  32  32   1    1 H     4.62654940000E-01 -2.86973200000E-01 -2.52746990000E-01

  33  33   1    1 H     4.05840570000E-01  3.08823250000E-01  2.47182970000E-01

  34  34   1    1 H    -4.40466320000E-01 -3.83759280000E-01 -2.52817030000E-01

  35  35   1    1 H    -4.05709120000E-01 -3.09042070000E-01  2.47200550000E-01

  36  36   1    1 H    -2.52016010000E-01 -1.62460000000E-03 -2.52799450000E-01

  37  37   1    6 C    -1.08109690000E-01  4.45943690000E-01  2.49195160000E-01

  38  38   1    6 C     4.55834200000E-02 -2.46638840000E-01 -2.50804840000E-01

  39  39   1    6 C    -5.35108900000E-02  3.92785630000E-01  2.47777880000E-01

  40  40   1    6 C     1.00182220000E-01 -2.99796900000E-01 -2.52222120000E-01

  41  41   1    6 C     5.33881200000E-02 -3.92814700000E-01  2.47655450000E-01

  42  42   1    6 C     2.07081230000E-01 -8.53972300000E-02 -2.52344550000E-01

  43  43   1    6 C    -5.35478900000E-02 -4.46307810000E-01  2.48022880000E-01

  44  44   1    6 C     1.00145220000E-01 -1.38890340000E-01 -2.51977120000E-01

  45  45   1    6 C     5.34263400000E-02  4.46249970000E-01  2.47078020000E-01

  46  46   1    6 C     2.07119450000E-01 -2.46332560000E-01 -2.52921980000E-01

  47  47   1    6 C     1.08035890000E-01 -4.45964370000E-01  2.48040370000E-01

  48  48   1    6 C     2.61729000000E-01 -1.38546900000E-01 -2.51959640000E-01

  49  49   1    6 C    -4.45960580000E-01  1.08168460000E-01  2.50804880000E-01

  50  50   1    6 C    -2.92267470000E-01  4.15585930000E-01 -2.49195120000E-01

  51  51   1    6 C    -3.92822150000E-01  5.35559400000E-02  2.52222130000E-01

  52  52   1    6 C    -2.39129040000E-01  3.60973410000E-01 -2.47777870000E-01

  53  53   1    6 C     3.92798670000E-01 -5.33368400000E-02  2.52344600000E-01

  54  54   1    6 C    -4.53508220000E-01  2.54080630000E-01 -2.47655400000E-01

  55  55   1    6 C     4.46287580000E-01  5.36028600000E-02  2.51977180000E-01

  56  56   1    6 C    -4.00019310000E-01  3.61020330000E-01 -2.48022820000E-01

  57  57   1    6 C    -4.46283150000E-01 -5.33764400000E-02  2.52921990000E-01

  58  58   1    6 C    -2.92590040000E-01  2.54041030000E-01 -2.47078020000E-01

  59  59   1    6 C     4.45927910000E-01 -1.08007940000E-01  2.51959660000E-01

  60  60   1    6 C    -4.00378980000E-01  1.99409530000E-01 -2.48040340000E-01

  61  61   1    6 C    -4.45955130000E-01  4.45874550000E-01  2.49195160000E-01

  62  62   1    6 C    -2.92262020000E-01 -2.46707980000E-01 -2.50804840000E-01

  63  63   1    6 C    -3.92789780000E-01 -4.46374220000E-01  2.47777910000E-01

  64  64   1    6 C    -2.39096670000E-01 -1.38956750000E-01 -2.52222080000E-01

  65  65   1    6 C     3.92823370000E-01  4.46172030000E-01  2.47655420000E-01

  66  66   1    6 C    -4.53483520000E-01 -2.46410500000E-01 -2.52344580000E-01

  67  67   1    6 C     4.46287260000E-01  3.92689990000E-01  2.48022840000E-01

  68  68   1    6 C    -4.00019630000E-01 -2.99892540000E-01 -2.51977160000E-01

  69  69   1    6 C    -4.46257040000E-01 -3.92902000000E-01  2.47078050000E-01

  70  70   1    6 C    -2.92563930000E-01 -8.54845300000E-02 -2.52921950000E-01

  71  71   1    6 C     4.45959980000E-01 -4.46041770000E-01  2.48040370000E-01

  72  72   1    6 C    -4.00346910000E-01 -1.38624300000E-01 -2.51959640000E-01

  73  73   1    8 O    -4.39263320000E-01  2.80370630000E-01  2.49632580000E-01

  74  74   1    8 O    -2.85570210000E-01 -4.12211900000E-01 -2.50367420000E-01

  75  75   1    8 O    -2.80318300000E-01  2.80378330000E-01  2.52659530000E-01

  76  76   1    8 O    -1.26625190000E-01 -4.12204200000E-01 -2.47340460000E-01

  77  77   1    8 O    -2.80320580000E-01  4.39323460000E-01  2.48092870000E-01

  78  78   1    8 O    -1.26627470000E-01 -2.53259070000E-01 -2.51907130000E-01

  79  79   1    8 O     2.80324510000E-01 -2.80348890000E-01  2.49632590000E-01

  80  80   1    8 O     4.34017620000E-01  2.70685800000E-02 -2.50367410000E-01

  81  81   1    8 O     2.80343970000E-01 -4.39304390000E-01  2.52659530000E-01

  82  82   1    8 O     4.34037080000E-01 -1.31886920000E-01 -2.47340470000E-01

  83  83   1    8 O     4.39263840000E-01 -2.80364580000E-01  2.48092860000E-01

  84  84   1    8 O    -4.07043050000E-01  2.70528900000E-02 -2.51907140000E-01

 NUMBER OF SYMMETRY OPERATORS         :    1
 *******************************************************************************
 * GEOMETRY EDITING - INPUT COORDINATES ARE GIVEN IN ANGSTROM         
 *******************************************************************************

 GCALCO - MAX INDICES DIRECT LATTICE VECTOR    11    11    22
 NO.OF VECTORS CREATED 6999 STARS 3500 RMAX   248.91122 BOHR

 GEOMETRY FOR WAVE FUNCTION - DIMENSIONALITY OF THE SYSTEM    3
 (NON PERIODIC DIRECTION: LATTICE PARAMETER FORMALLY SET TO 500)
 *******************************************************************************
 LATTICE PARAMETERS (ANGSTROMS AND DEGREES) - BOHR = 0.5291772083 ANGSTROM
 PRIMITIVE CELL - CENTRING CODE 1/0 VOLUME=  1368.370836 - DENSITY  0.947 g/cm^3
         A              B              C           ALPHA      BETA       GAMMA 
    15.02361100    15.02391600     7.00000000    90.000323  89.999944 119.995964
 *******************************************************************************
 ATOMS IN THE ASYMMETRIC UNIT   84 - ATOMS IN THE UNIT CELL:   84
     ATOM                 X/A                 Y/B                 Z/C    
 *******************************************************************************
      1 T   5 B    -3.863194600000E-01  2.273182200000E-01  2.506823900000E-01
      2 T   5 B    -2.326263500000E-01 -4.652643100000E-01 -2.493176100000E-01
      3 T   5 B    -2.272638000000E-01  3.863778800000E-01  2.506824000000E-01
      4 T   5 B    -7.357069000000E-02 -3.062046500000E-01 -2.493176000000E-01
      5 T   5 B    -3.863237300000E-01  3.863606700000E-01  2.492476500000E-01
      6 T   5 B    -2.326306200000E-01 -3.062218600000E-01 -2.507523400000E-01
      7 T   5 B     2.272552500000E-01 -3.863667800000E-01  2.506824000000E-01
      8 T   5 B     3.809483600000E-01 -7.894931000000E-02 -2.493176000000E-01
      9 T   5 B     3.863632200000E-01 -3.863875500000E-01  2.506823900000E-01
     10 T   5 B    -4.599436700000E-01 -7.897008000000E-02 -2.493176100000E-01
     11 T   5 B     3.863435000000E-01 -2.272483500000E-01  2.492476600000E-01
     12 T   5 B    -4.599633900000E-01  8.016912000000E-02 -2.507523400000E-01
     13 T   1 H    -9.695638000000E-02  3.089300500000E-01  2.477078900000E-01
     14 T   1 H     5.673673000000E-02 -3.836524800000E-01 -2.522921100000E-01
     15 T   1 H     9.663453000000E-02 -3.089465600000E-01  2.472530400000E-01
     16 T   1 H     2.503276400000E-01 -1.529090000000E-03 -2.527469700000E-01
     17 T   1 H    -9.702858000000E-02 -4.059275700000E-01  2.471830300000E-01
     18 T   1 H     5.666453000000E-02 -9.851010000000E-02 -2.528169700000E-01
     19 T   1 H     9.673618000000E-02  4.056849400000E-01  2.472004900000E-01
     20 T   1 H     2.504292900000E-01 -2.868975900000E-01 -2.527995100000E-01
     21 T   1 H    -3.089676000000E-01  9.700412000000E-02  2.522921300000E-01
     22 T   1 H    -1.552744900000E-01  4.044215900000E-01 -2.477078700000E-01
     23 T   1 H     3.089297200000E-01 -9.656269000000E-02  2.527470200000E-01
     24 T   1 H     4.626228300000E-01  2.108547800000E-01 -2.472529900000E-01
     25 T   1 H     4.058699900000E-01  9.704998000000E-02  2.528170600000E-01
     26 T   1 H    -4.404369000000E-01  4.044674500000E-01 -2.471829400000E-01
     27 T   1 H    -4.056877900000E-01 -9.665268000000E-02  2.527994800000E-01
     28 T   1 H    -2.519946800000E-01  2.107647900000E-01 -2.472005200000E-01
     29 T   1 H    -3.089272600000E-01 -4.059457900000E-01  2.477079200000E-01
     30 T   1 H    -1.552341500000E-01 -9.852832000000E-02 -2.522920900000E-01
     31 T   1 H     3.089618300000E-01  4.056093300000E-01  2.472530100000E-01
     32 T   1 H     4.626549400000E-01 -2.869732000000E-01 -2.527469900000E-01
     33 T   1 H     4.058405700000E-01  3.088232500000E-01  2.471829700000E-01
     34 T   1 H    -4.404663200000E-01 -3.837592800000E-01 -2.528170300000E-01
     35 T   1 H    -4.057091200000E-01 -3.090420700000E-01  2.472005500000E-01
     36 T   1 H    -2.520160100000E-01 -1.624600000000E-03 -2.527994500000E-01
     37 T   6 C    -1.081096900000E-01  4.459436900000E-01  2.491951600000E-01
     38 T   6 C     4.558342000000E-02 -2.466388400000E-01 -2.508048400000E-01
     39 T   6 C    -5.351089000000E-02  3.927856300000E-01  2.477778800000E-01
     40 T   6 C     1.001822200000E-01 -2.997969000000E-01 -2.522221200000E-01
     41 T   6 C     5.338812000000E-02 -3.928147000000E-01  2.476554500000E-01
     42 T   6 C     2.070812300000E-01 -8.539723000000E-02 -2.523445500000E-01
     43 T   6 C    -5.354789000000E-02 -4.463078100000E-01  2.480228800000E-01
     44 T   6 C     1.001452200000E-01 -1.388903400000E-01 -2.519771200000E-01
     45 T   6 C     5.342634000000E-02  4.462499700000E-01  2.470780200000E-01
     46 T   6 C     2.071194500000E-01 -2.463325600000E-01 -2.529219800000E-01
     47 T   6 C     1.080358900000E-01 -4.459643700000E-01  2.480403700000E-01
     48 T   6 C     2.617290000000E-01 -1.385469000000E-01 -2.519596400000E-01
     49 T   6 C    -4.459605800000E-01  1.081684600000E-01  2.508048800000E-01
     50 T   6 C    -2.922674700000E-01  4.155859300000E-01 -2.491951200000E-01
     51 T   6 C    -3.928221500000E-01  5.355594000000E-02  2.522221300000E-01
     52 T   6 C    -2.391290400000E-01  3.609734100000E-01 -2.477778700000E-01
     53 T   6 C     3.927986700000E-01 -5.333684000000E-02  2.523446000000E-01
     54 T   6 C    -4.535082200000E-01  2.540806300000E-01 -2.476554000000E-01
     55 T   6 C     4.462875800000E-01  5.360286000000E-02  2.519771800000E-01
     56 T   6 C    -4.000193100000E-01  3.610203300000E-01 -2.480228200000E-01
     57 T   6 C    -4.462831500000E-01 -5.337644000000E-02  2.529219900000E-01
     58 T   6 C    -2.925900400000E-01  2.540410300000E-01 -2.470780200000E-01
     59 T   6 C     4.459279100000E-01 -1.080079400000E-01  2.519596600000E-01
     60 T   6 C    -4.003789800000E-01  1.994095300000E-01 -2.480403400000E-01
     61 T   6 C    -4.459551300000E-01  4.458745500000E-01  2.491951600000E-01
     62 T   6 C    -2.922620200000E-01 -2.467079800000E-01 -2.508048400000E-01
     63 T   6 C    -3.927897800000E-01 -4.463742200000E-01  2.477779100000E-01
     64 T   6 C    -2.390966700000E-01 -1.389567500000E-01 -2.522220800000E-01
     65 T   6 C     3.928233700000E-01  4.461720300000E-01  2.476554200000E-01
     66 T   6 C    -4.534835200000E-01 -2.464105000000E-01 -2.523445800000E-01
     67 T   6 C     4.462872600000E-01  3.926899900000E-01  2.480228400000E-01
     68 T   6 C    -4.000196300000E-01 -2.998925400000E-01 -2.519771600000E-01
     69 T   6 C    -4.462570400000E-01 -3.929020000000E-01  2.470780500000E-01
     70 T   6 C    -2.925639300000E-01 -8.548453000000E-02 -2.529219500000E-01
     71 T   6 C     4.459599800000E-01 -4.460417700000E-01  2.480403700000E-01
     72 T   6 C    -4.003469100000E-01 -1.386243000000E-01 -2.519596400000E-01
     73 T   8 O    -4.392633200000E-01  2.803706300000E-01  2.496325800000E-01
     74 T   8 O    -2.855702100000E-01 -4.122119000000E-01 -2.503674200000E-01
     75 T   8 O    -2.803183000000E-01  2.803783300000E-01  2.526595300000E-01
     76 T   8 O    -1.266251900000E-01 -4.122042000000E-01 -2.473404600000E-01
     77 T   8 O    -2.803205800000E-01  4.393234600000E-01  2.480928700000E-01
     78 T   8 O    -1.266274700000E-01 -2.532590700000E-01 -2.519071300000E-01
     79 T   8 O     2.803245100000E-01 -2.803488900000E-01  2.496325900000E-01
     80 T   8 O     4.340176200000E-01  2.706858000000E-02 -2.503674100000E-01
     81 T   8 O     2.803439700000E-01 -4.393043900000E-01  2.526595300000E-01
     82 T   8 O     4.340370800000E-01 -1.318869200000E-01 -2.473404700000E-01
     83 T   8 O     4.392638400000E-01 -2.803645800000E-01  2.480928600000E-01
     84 T   8 O    -4.070430500000E-01  2.705289000000E-02 -2.519071400000E-01

 T = ATOM BELONGING TO THE ASYMMETRIC UNIT

 ****    1 SYMMOPS - TRANSLATORS IN FRACTIONAL UNITS
 **** MATRICES AND TRANSLATORS IN THE CRYSTALLOGRAPHIC REFERENCE FRAME
   V INV                    ROTATION MATRICES                   TRANSLATORS
   1   1  1.00  0.00  0.00  0.00  1.00  0.00  0.00  0.00  1.00  0.00  0.00  0.00

 DIRECT LATTICE VECTORS CARTESIAN COMPONENTS (ANGSTROM)
          X                    Y                    Z
   0.130113578931E+02  -0.751088897922E+01   0.000000000000E+00
   0.000000000000E+00   0.150239160000E+02   0.000000000000E+00
  -0.148798465207E-04  -0.394618943860E-04   0.699999999987E+01


 CARTESIAN COORDINATES - PRIMITIVE CELL
 *******************************************************************************
 *      ATOM          X(ANGSTROM)         Y(ANGSTROM)         Z(ANGSTROM)
 *******************************************************************************
    1     5 B    -5.026544485228E+00  6.316802524718E+00  1.754776729968E+00
    2     5 B    -3.026780985398E+00 -5.242851384202E+00 -1.745223269968E+00
    3     5 B    -2.957014368052E+00  7.511852091771E+00  1.754776799968E+00
    4     5 B    -9.572508682215E-01 -4.047801817150E+00 -1.745223199968E+00
    5     5 B    -5.026600022377E+00 -6.317640937934E+00  1.744733549968E+00
    6     5 B    -3.026836522547E+00 -2.853378846855E+00 -1.755266379968E+00
    7     5 B     2.956895660710E+00 -7.511640893007E+00  1.754776799968E+00
    8     5 B     4.956659160541E+00 -4.047378801928E+00 -1.745223199968E+00
    9     5 B     5.027106402018E+00  6.316920761880E+00  1.754776729968E+00
   10     5 B    -5.984487991208E+00  2.268155832175E+00 -1.745223269968E+00
   11     5 B     5.026849839389E+00 -6.315953093665E+00  1.744733619968E+00
   12     5 B     7.026613339219E+00 -2.851691002586E+00 -1.755266379968E+00
   13     1 H    -1.261537846051E+00  5.369557952060E+00  1.733955229969E+00
   14     1 H     7.382256537796E-01 -6.190095956861E+00 -1.766044769968E+00
   15     1 H     1.257342775570E+00 -5.367408149391E+00  1.730771279969E+00
   16     1 H     3.257106275400E+00 -1.903146058311E+00 -1.769228789968E+00
   17     1 H    -1.262477258281E+00 -5.369860575884E+00  1.730281209969E+00
   18     1 H     7.372862415496E-01 -1.905598484805E+00 -1.769718789968E+00
   19     1 H     1.258665380882E+00  5.368391997772E+00  1.730403429969E+00
   20     1 H     3.258428880712E+00 -6.191261911149E+00 -1.769596569968E+00
   21     1 H    -4.020091775027E+00  3.777993136383E+00  1.766044909968E+00
   22     1 H    -2.020328275197E+00  7.242255227463E+00 -1.733955089969E+00
   23     1 H     4.019591389885E+00 -3.771096546471E+00  1.769229139968E+00
   24     1 H     6.019354889715E+00 -3.068344553911E-01 -1.730770929969E+00
   25     1 H     5.280915936062E+00 -1.590383664204E+00  1.769719419968E+00
   26     1 H     7.280679435892E+00  1.873878426875E+00 -1.730280579969E+00
   27     1 H    -5.278552790151E+00  1.594964229472E+00  1.769596359968E+00
   28     1 H    -3.278789290320E+00  5.059226320552E+00 -1.730403639969E+00
   29     1 H    -4.019566828637E+00 -3.778586872024E+00  1.733955439969E+00
   30     1 H    -2.019803328807E+00 -3.143247809443E-01 -1.766044629968E+00
   31     1 H     4.020009266337E+00  3.773252741719E+00  1.730771069969E+00
   32     1 H    -6.991585126890E+00 -2.755121879858E-01 -1.769228929968E+00
   33     1 H     5.280533225747E+00  1.591501348007E+00  1.730280789969E+00
   34     1 H    -5.731061167479E+00 -2.457263581698E+00 -1.769719209968E+00
   35     1 H    -5.278830239103E+00 -1.595795696973E+00  1.730403849969E+00
   36     1 H    -3.279066739273E+00  1.868466394107E+00 -1.769596149968E+00
   37     6 C    -1.406657576283E+00  7.511810584744E+00  1.744366119968E+00
   38     6 C     5.931059235470E-01 -4.047843324176E+00 -1.755633879968E+00
   39     6 C    -6.962530278628E-01  6.303082887312E+00  1.734445159969E+00
   40     6 C     1.303510471967E+00 -5.256571021609E+00 -1.765554839968E+00
   41     6 C     6.946482514824E-01 -6.302617071447E+00  1.733588149969E+00
   42     6 C     2.694411751313E+00 -2.838354980368E+00 -1.766411849968E+00
   43     6 C    -6.967344517504E-01 -6.303108578175E+00  1.736160159968E+00
   44     6 C     1.303029048080E+00 -2.838846487096E+00 -1.763839839968E+00
   45     6 C     6.951455541731E-01  6.303133005810E+00  1.729546139969E+00
   46     6 C     2.694909054003E+00 -5.256520903111E+00 -1.770453859968E+00
   47     6 C     1.405689939282E+00 -7.511586597577E+00  1.736282589968E+00
   48     6 C     3.405453439113E+00 -4.047324506497E+00 -1.763717479968E+00
   49     6 C     7.208801448543E+00 -2.536224614076E+00  1.755634159968E+00
   50     6 C    -3.802792944683E+00 -6.584989543780E+00 -1.744365839968E+00
   51     6 C    -5.111153334997E+00  3.755053547925E+00  1.765554909968E+00
   52     6 C    -3.111389835166E+00  7.219315639004E+00 -1.734445089969E+00
   53     6 C     5.110840320438E+00 -3.751605363415E+00  1.766412199968E+00
   54     6 C     7.110603820268E+00 -2.873432723361E-01 -1.733587799969E+00
   55     6 C     5.806803677224E+00 -2.546701543680E+00  1.763840259968E+00
   56     6 C     7.806567177055E+00  9.175605473989E-01 -1.736159739968E+00
   57     6 C    -5.806753549731E+00  2.550050061225E+00  1.770453929968E+00
   58     6 C    -3.806990049901E+00  6.014312152305E+00 -1.729546139969E+00
   59     6 C     5.802123882392E+00 -4.972027185443E+00  1.763717619968E+00
   60     6 C     7.801887382222E+00 -1.507765094363E+00 -1.736282379968E+00
   61     6 C     7.208872384396E+00  2.537402443950E+00  1.744366119968E+00
   62     6 C    -3.802722008830E+00 -1.511362485754E+00 -1.755633879968E+00
   63     6 C    -5.110732091212E+00 -3.756098133880E+00  1.734445369969E+00
   64     6 C    -3.110968591382E+00 -2.918360428016E-01 -1.765554559968E+00
   65     6 C     5.111161770752E+00  3.752788606806E+00  1.733587939969E+00
   66     6 C    -5.900432622474E+00 -2.959763228985E-01 -1.766412059968E+00
   67     6 C     5.806799572430E+00  2.547717573651E+00  1.736159879968E+00
   68     6 C    -5.204794820797E+00 -1.501047356053E+00 -1.763840119968E+00
   69     6 C    -5.806413736220E+00 -2.551149310766E+00  1.729546349969E+00
   70     6 C    -3.806650236389E+00  9.131127803131E-01 -1.770453649968E+00
   71     6 C     5.802541214958E+00  4.973056227932E+00  1.736282589968E+00
   72     6 C    -5.209053178269E+00  9.242912982283E-01 -1.763717479968E+00
   73     8 O     7.295941912750E+00  6.239929581478E-04  1.747428059968E+00
   74     8 O    -3.715652480477E+00 -4.048140936746E+00 -1.752571939968E+00
   75     8 O    -3.647325484808E+00  6.317810137859E+00  1.768616709968E+00
   76     8 O    -1.647561984978E+00 -5.241843771062E+00 -1.731383219969E+00
   77     8 O    -3.647355082753E+00 -6.318110275376E+00  1.736650089968E+00
   78     8 O    -1.647591582923E+00 -2.853848184296E+00 -1.763349909968E+00
   79     8 O     3.647398811311E+00 -6.317434297791E+00  1.747428129968E+00
   80     8 O     5.647162311141E+00 -2.853172206712E+00 -1.752571869968E+00
   81     8 O     3.647651967295E+00  6.318201341122E+00  1.768616709968E+00
   82     8 O     5.647415467125E+00 -5.241452567799E+00 -1.731383289969E+00
   83     8 O    -7.295942552922E+00 -5.566451173632E-04  1.736650019968E+00
   84     8 O    -5.296179053092E+00  3.463705445962E+00 -1.763349979968E+00

 *******************************************************************************
 STARTING BASIS SET HANDLING 
 *******************************************************************************

 Loading internal basis set: SOLDEF2MSVP         

 Please cite in your publication:
 L. Dona', J. G. Brandenburg and B. Civalleri, J. Chem. Phys., 151, 121101 (2019
 )                                                                              
                                                                                
                    

 *******************************************************************************
 LOCAL ATOMIC FUNCTIONS BASIS SET
 *******************************************************************************
   ATOM   X(AU)   Y(AU)   Z(AU)  N. TYPE  EXPONENT  S COEF   P COEF   D/F/G COEF
 *******************************************************************************
   1 B   -9.499  11.937   3.316
                                  1 S  
                                         2.410E+03 1.755E-03 0.000E+00 0.000E+00
                                         3.619E+02 1.344E-02 0.000E+00 0.000E+00
                                         8.231E+01 6.637E-02 0.000E+00 0.000E+00
                                         2.311E+01 2.303E-01 0.000E+00 0.000E+00
                                         7.252E+00 5.150E-01 0.000E+00 0.000E+00
                                  2 S  
                                         2.367E+00 1.000E+00 0.000E+00 0.000E+00
                                  3 S  
                                         5.533E-01 1.000E+00 0.000E+00 0.000E+00
                                  4 S  
                                         1.716E-01 1.000E+00 0.000E+00 0.000E+00
                           5-     7 P  
                                         6.002E+00 0.000E+00-3.555E-02 0.000E+00
                                         1.240E+00 0.000E+00-1.983E-01 0.000E+00
                                         3.367E-01 0.000E+00-5.048E-01 0.000E+00
                           8-    10 P  
                                         1.256E-01 0.000E+00 1.000E+00 0.000E+00
                          11-    15 D  
                                         8.880E-01 0.000E+00 0.000E+00 1.000E+00
   2 B   -5.720  -9.908  -3.298
   3 B   -5.588  14.195   3.316
   4 B   -1.809  -7.649  -3.298
   5 B   -9.499 -11.939   3.297
   6 B   -5.720  -5.392  -3.317
   7 B    5.588 -14.195   3.316
   8 B    9.367  -7.648  -3.298
   9 B    9.500  11.937   3.316
  10 B  -11.309   4.286  -3.298
  11 B    9.499 -11.935   3.297
  12 B   13.278  -5.389  -3.317
  13 H   -2.384  10.147   3.277
                                181 S  
                                         1.874E+01 1.968E-02 0.000E+00 0.000E+00
                                         2.826E+00 1.380E-01 0.000E+00 0.000E+00
                                         6.401E-01 4.783E-01 0.000E+00 0.000E+00
                                182 S  
                                         1.756E-01 1.000E+00 0.000E+00 0.000E+00
  14 H    1.395 -11.698  -3.337
  15 H    2.376 -10.143   3.271
  16 H    6.155  -3.596  -3.343
  17 H   -2.386 -10.148   3.270
  18 H    1.393  -3.601  -3.344
  19 H    2.379  10.145   3.270
  20 H    6.158 -11.700  -3.344
  21 H   -7.597   7.139   3.337
  22 H   -3.818  13.686  -3.277
  23 H    7.596  -7.126   3.343
  24 H   11.375  -0.580  -3.271
  25 H    9.979  -3.005   3.344
  26 H   13.758   3.541  -3.270
  27 H   -9.975   3.014   3.344
  28 H   -6.196   9.561  -3.270
  29 H   -7.596  -7.140   3.277
  30 H   -3.817  -0.594  -3.337
  31 H    7.597   7.130   3.271
  32 H  -13.212  -0.521  -3.343
  33 H    9.979   3.008   3.270
  34 H  -10.830  -4.644  -3.344
  35 H   -9.976  -3.016   3.270
  36 H   -6.197   3.531  -3.344
  37 C   -2.658  14.195   3.296
                                229 S  
                                         3.624E+03 1.634E-03 0.000E+00 0.000E+00
                                         5.440E+02 1.252E-02 0.000E+00 0.000E+00
                                         1.237E+02 6.211E-02 0.000E+00 0.000E+00
                                         3.476E+01 2.182E-01 0.000E+00 0.000E+00
                                         1.093E+01 4.980E-01 0.000E+00 0.000E+00
                                230 S  
                                         3.574E+00 1.000E+00 0.000E+00 0.000E+00
                                231 S  
                                         7.742E-01 1.000E+00 0.000E+00 0.000E+00
                                232 S  
                                         2.330E-01 1.000E+00 0.000E+00 0.000E+00
                         233-   235 P  
                                         9.443E+00 0.000E+00 3.790E-02 0.000E+00
                                         2.002E+00 0.000E+00 2.082E-01 0.000E+00
                                         5.463E-01 0.000E+00 5.047E-01 0.000E+00
                         236-   238 P  
                                         1.820E-01 0.000E+00 1.000E+00 0.000E+00
                         239-   243 D  
                                         8.880E-01 0.000E+00 0.000E+00 1.000E+00
  38 C    1.121  -7.649  -3.318
  39 C   -1.316  11.911   3.278
  40 C    2.463  -9.933  -3.336
  41 C    1.313 -11.910   3.276
  42 C    5.092  -5.364  -3.338
  43 C   -1.317 -11.911   3.281
  44 C    2.462  -5.365  -3.333
  45 C    1.314  11.911   3.268
  46 C    5.093  -9.933  -3.346
  47 C    2.656 -14.195   3.281
  48 C    6.435  -7.648  -3.333
  49 C   13.623  -4.793   3.318
  50 C   -7.186 -12.444  -3.296
  51 C   -9.659   7.096   3.336
  52 C   -5.880  13.643  -3.278
  53 C    9.658  -7.090   3.338
  54 C   13.437  -0.543  -3.276
  55 C   10.973  -4.813   3.333
  56 C   14.752   1.734  -3.281
  57 C  -10.973   4.819   3.346
  58 C   -7.194  11.365  -3.268
  59 C   10.964  -9.396   3.333
  60 C   14.743  -2.849  -3.281
  61 C   13.623   4.795   3.296
  62 C   -7.186  -2.856  -3.318
  63 C   -9.658  -7.098   3.278
  64 C   -5.879  -0.551  -3.336
  65 C    9.659   7.092   3.276
  66 C  -11.150  -0.559  -3.338
  67 C   10.973   4.814   3.281
  68 C   -9.836  -2.837  -3.333
  69 C  -10.973  -4.821   3.268
  70 C   -7.194   1.726  -3.346
  71 C   10.965   9.398   3.281
  72 C   -9.844   1.747  -3.333
  73 O   13.787   0.001   3.302
                                769 S  
                                         6.773E+03 1.727E-03 0.000E+00 0.000E+00
                                         1.017E+03 1.325E-02 0.000E+00 0.000E+00
                                         2.313E+02 6.603E-02 0.000E+00 0.000E+00
                                         6.501E+01 2.353E-01 0.000E+00 0.000E+00
                                         2.050E+01 5.498E-01 0.000E+00 0.000E+00
                                770 S  
                                         6.716E+00 1.000E+00 0.000E+00 0.000E+00
                                771 S  
                                         1.147E+00 1.000E+00 0.000E+00 0.000E+00
                                772 S  
                                         3.342E-01 1.000E+00 0.000E+00 0.000E+00
                         773-   775 P  
                                         1.769E+01 0.000E+00 4.359E-02 0.000E+00
                                         3.854E+00 0.000E+00 2.318E-01 0.000E+00
                                         1.047E+00 0.000E+00 5.146E-01 0.000E+00
                         776-   778 P  
                                         2.759E-01 0.000E+00 1.000E+00 0.000E+00
                         779-   783 D  
                                         8.000E-01 0.000E+00 0.000E+00 1.000E+00
  74 O   -7.022  -7.650  -3.312
  75 O   -6.892  11.939   3.342
  76 O   -3.113  -9.906  -3.272
  77 O   -6.893 -11.939   3.282
  78 O   -3.113  -5.393  -3.332
  79 O    6.893 -11.938   3.302
  80 O   10.672  -5.392  -3.312
  81 O    6.893  11.940   3.342
  82 O   10.672  -9.905  -3.272
  83 O  -13.787  -0.001   3.282
  84 O  -10.008   6.545  -3.332

 *******************************************************************************
 FINISHED BASIS SET HANDLING 
 *******************************************************************************

 INFORMATION **** SET_MPP **** PCRYSTAL CALCULATION
 INFORMATION **** READM2 **** NEW DEFAULT: FOCK/KS MATRIX MIXING SET TO 30 %
 INFORMATION **** READM2 **** NEW DEFAULT: FULL DIRECT SCF MODE
 INFORMATION **** READM2 **** NEW DEFAULT: COULOMB BIPOLAR BUFFER SET TO 32 Mb
 INFORMATION **** READM2 **** NEW DEFAULT: EXCHANGE BIPOLAR BUFFER SET TO 32 Mb

 *******************************************************************************
 NEW DEFAULT: DFT INTEGRATION GRID INCREASED TO XLGRID
 NEW DEFAULT: DIIS ACCELERATOR ACTIVE
 USE KEYWORD NODIIS TO TURN IT OFF
 *******************************************************************************

 WARNING **** RDDFTP **** HSEsol-HJS ACTIVE
 RANGE SEPARATION - OMEGA:   0.110000000000000     
 WARNING **** RDDFTP **** HSEsol-3c has to be combined with sol-def2-mSVP basis set
 *******************************************************************************
 N. OF ATOMS PER CELL        84  COULOMB OVERLAP TOL         (T1) 10**   -6
 NUMBER OF SHELLS           468  COULOMB PENETRATION TOL     (T2) 10**   -6
 NUMBER OF AO               948  EXCHANGE OVERLAP TOL        (T3) 10**   -6
 N. OF ELECTRONS PER CELL   396  EXCHANGE PSEUDO OVP (F(G))  (T4) 10**   -6
 CORE ELECTRONS PER CELL    120  EXCHANGE PSEUDO OVP (P(G))  (T5) 10**  -12
 N. OF SYMMETRY OPERATORS     1  POLE ORDER IN MONO ZONE                  4
 *******************************************************************************
 TYPE OF CALCULATION :  RESTRICTED CLOSED SHELL
 KOHN-SHAM HAMILTONIAN

 (EXCHANGE)[CORRELATION] FUNCTIONAL:(HSEsol GGA)[PBEsol]

 RANGE-SEPARATED HYBRID FUNCTIONAL 
 OMEGA (SHORT-RANGE)[LONG-RANGE]:(    0.1100)[    0.0000]

 HYBRID EXCHANGE - PERCENTAGE OF FOCK EXCHANGE    25.0000

 CAPPA:IS1  2;IS2  2;IS3  8; K PTS MONK NET  20; SYMMOPS:K SPACE   2;G SPACE   1

 *******************************************************************************
 MAX NUMBER OF SCF CYCLES      50  CONVERGENCE ON DELTAP        10**-16
 WEIGHT OF F(I) IN F(I+1)      30% CONVERGENCE ON ENERGY        10**- 6
 SHRINK. FACT.(MONKH.)    2  2  8  NUMBER OF K POINTS IN THE IBZ     20
 SHRINKING FACTOR(GILAT NET)    8  NUMBER OF K POINTS(GILAT NET)   1028
 *******************************************************************************
 *** K POINTS COORDINATES (OBLIQUE COORDINATES IN UNITS OF IS =  2)
   1-R(  0  0  0)   2-R(  1  0  0)   3-R(  0  1  0)   4-R(  1  1  0)
   5-C(  0  0  1)   6-C(  1  0  1)   7-C(  0  1  1)   8-C(  1  1  1)
   9-C(  0  0  2)  10-C(  1  0  2)  11-C(  0  1  2)  12-C(  1  1  2)
  13-C(  0  0  3)  14-C(  1  0  3)  15-C(  0  1  3)  16-C(  1  1  3)
  17-R(  0  0  4)  18-R(  1  0  4)  19-R(  0  1  4)  20-R(  1  1  4)

 DIRECT LATTICE VECTORS COMPON. (A.U.)     RECIP. LATTICE VECTORS COMPON. (A.U.) 
        X            Y            Z              X            Y            Z
   24.5879030  -14.1935232    0.0000000      0.2555397    0.0000000    0.0000005
    0.0000000   28.3910867    0.0000000      0.1277517    0.2213084    0.0000015
   -0.0000281   -0.0000746   13.2280829      0.0000000    0.0000000    0.4749884

 DISK SPACE FOR EIGENVECTORS (FTN 10)    28758528 REALS

 SYMMETRY ADAPTION OF THE BLOCH FUNCTIONS DISABLED
 TTTTTTTTTTTTTTTTTTTTTTTTTTTTTT gordsh1     TELAPSE        0.05 TCPU        0.05

 MATRIX SIZE: P(G)  731862, F(G)  143152, P(G) IRR  367977, F(G) IRR  144184
 MAX G-VECTOR INDEX FOR 1- AND 2-ELECTRON INTEGRALS  55

 TTTTTTTTTTTTTTTTTTTTTTTTTTTTTT INPUT       TELAPSE        2.77 TCPU        2.76

 NEIGHBORS OF THE NON-EQUIVALENT ATOMS

 N = NUMBER OF NEIGHBORS AT DISTANCE R
    ATOM  N     R/ANG      R/AU   NEIGHBORS (ATOM LABELS AND CELL INDICES)
   1 B    1     1.3791     2.6061   73 O   -1 0 0
   1 B    1     1.3793     2.6065   75 O    0 0 0
   1 B    1     1.5503     2.9297   49 C   -1 0 0
   1 B    1     2.3895     4.5155    5 B    0 1 0
   1 B    1     2.3898     4.5160    3 B    0 0 0
   1 B    1     2.5632     4.8437   51 C    0 0 0

   2 B    1     1.3791     2.6061   74 O    0 0 0
   2 B    1     1.3793     2.6065   76 O    0 0 0
   2 B    1     1.5503     2.9297   50 C    0 0 0
   2 B    1     2.3895     4.5155    6 B    0 0 0
   2 B    1     2.3898     4.5160    4 B    0 0 0
   2 B    1     2.5632     4.8437   52 C    0-1 0

   3 B    1     1.3793     2.6065   77 O    0 1 0
   3 B    1     1.3793     2.6065   75 O    0 0 0
   3 B    1     1.5504     2.9298   37 C    0 0 0
   3 B    1     2.3895     4.5156    5 B    0 1 0
   3 B    1     2.3898     4.5160    1 B    0 0 0
   3 B    1     2.5634     4.8440   43 C    0 1 0

   4 B    1     1.3793     2.6065   78 O    0 0 0
   4 B    1     1.3793     2.6065   76 O    0 0 0
   4 B    1     1.5504     2.9298   38 C    0 0 0
   4 B    1     2.3895     4.5156    6 B    0 0 0
   4 B    1     2.3898     4.5160    2 B    0 0 0
   4 B    1     2.5634     4.8440   44 C    0 0 0

   5 B    1     1.3791     2.6061   73 O   -1-1 0
   5 B    1     1.3793     2.6064   77 O    0 0 0
   5 B    1     1.5502     2.9294   61 C   -1-1 0
   5 B    1     2.3895     4.5155    1 B    0-1 0
   5 B    1     2.3895     4.5156    3 B    0-1 0
   5 B    1     2.5629     4.8433   63 C    0 0 0

   6 B    1     1.3791     2.6061   74 O    0 0 0
   6 B    1     1.3793     2.6064   78 O    0 0 0
   6 B    1     1.5502     2.9294   62 C    0 0 0
   6 B    1     2.3895     4.5155    2 B    0 0 0
   6 B    1     2.3895     4.5156    4 B    0 0 0
   6 B    1     2.5629     4.8433   64 C    0 0 0

   7 B    1     1.3795     2.6068   79 O    0 0 0
   7 B    1     1.3795     2.6070   81 O    0-1 0
   7 B    1     1.5513     2.9316   47 C    0 0 0
   7 B    1     2.3905     4.5174   11 B    0 0 0
   7 B    1     2.3905     4.5175    9 B    0-1 0
   7 B    1     2.5648     4.8468   45 C    0-1 0

   8 B    1     1.3795     2.6068   80 O    0 0 0
   8 B    1     1.3795     2.6070   82 O    0 0 0
   8 B    1     1.5513     2.9316   48 C    0 0 0
   8 B    1     2.3905     4.5174   12 B    0 0 0
   8 B    1     2.3905     4.5175   10 B    1 0 0
   8 B    1     2.5648     4.8468   46 C    0 0 0

   9 B    1     1.3795     2.6069   81 O    0 0 0
   9 B    1     1.3797     2.6072   83 O    1 1 0
   9 B    1     1.5516     2.9322   71 C    0 0 0
   9 B    1     2.3905     4.5175    7 B    0 1 0
   9 B    1     2.3911     4.5185   11 B    0 1 0
   9 B    1     2.5651     4.8473   69 C    1 1 0

  10 B    1     1.3795     2.6069   82 O   -1 0 0
  10 B    1     1.3797     2.6072   84 O    0 0 0
  10 B    1     1.5516     2.9322   72 C    0 0 0
  10 B    1     2.3905     4.5175    8 B   -1 0 0
  10 B    1     2.3911     4.5185   12 B   -1 0 0
  10 B    1     2.5651     4.8473   70 C    0 0 0

  11 B    1     1.3795     2.6068   79 O    0 0 0
  11 B    1     1.3796     2.6071   83 O    1 0 0
  11 B    1     1.5516     2.9322   59 C    0 0 0
  11 B    1     2.3905     4.5174    7 B    0 0 0
  11 B    1     2.3911     4.5185    9 B    0-1 0
  11 B    1     2.5651     4.8473   57 C    1 0 0

  12 B    1     1.3795     2.6068   80 O    0 0 0
  12 B    1     1.3796     2.6071   84 O    1 0 0
  12 B    1     1.5516     2.9322   60 C    0 0 0
  12 B    1     2.3905     4.5174    8 B    0 0 0
  12 B    1     2.3911     4.5185   10 B    1 0 0
  12 B    1     2.5651     4.8473   58 C    1 0 0

  13 H    1     1.0913     2.0623   39 C    0 0 0
  13 H    1     2.1472     4.0576   37 C    0 0 0
  13 H    1     2.1680     4.0969   45 C    0 0 0
  13 H    1     2.5202     4.7625   19 H    0 0 0
  13 H    1     2.5676     4.8520   75 O    0 0 0
  13 H    1     2.7321     5.1630    3 B    0 0 0

  14 H    1     1.0913     2.0623   40 C    0 0 0
  14 H    1     2.1472     4.0576   38 C    0 0 0
  14 H    1     2.1680     4.0969   46 C    0 0 0
  14 H    1     2.5202     4.7625   20 H    0 0 0
  14 H    1     2.5676     4.8520   76 O    0 0 0
  14 H    1     2.7321     5.1630    4 B    0 0 0

  15 H    1     1.0914     2.0625   41 C    0 0 0
  15 H    1     2.1493     4.0616   47 C    0 0 0
  15 H    1     2.1666     4.0942   43 C    0 0 0
  15 H    1     2.5198     4.7618   17 H    0 0 0
  15 H    1     2.5720     4.8604   79 O    0 0 0
  15 H    1     2.7362     5.1707    7 B    0 0 0

  16 H    1     1.0914     2.0625   42 C    0 0 0
  16 H    1     2.1493     4.0616   48 C    0 0 0
  16 H    1     2.1666     4.0942   44 C    0 0 0
  16 H    1     2.5198     4.7618   18 H    0 0 0
  16 H    1     2.5720     4.8604   80 O    0 0 0
  16 H    1     2.7362     5.1707    8 B    0 0 0

  17 H    1     1.0914     2.0624   43 C    0 0 0
  17 H    1     2.1471     4.0575   37 C    0-1 0
  17 H    1     2.1680     4.0970   41 C    0 0 0
  17 H    1     2.5198     4.7618   15 H    0 0 0
  17 H    1     2.5665     4.8500   77 O    0 0 0
  17 H    1     2.7315     5.1618    3 B    0-1 0

  18 H    1     1.0914     2.0624   44 C    0 0 0
  18 H    1     2.1471     4.0575   38 C    0 0 0
  18 H    1     2.1680     4.0970   42 C    0 0 0
  18 H    1     2.5198     4.7618   16 H    0 0 0
  18 H    1     2.5665     4.8500   78 O    0 0 0
  18 H    1     2.7315     5.1618    4 B    0 0 0

  19 H    1     1.0915     2.0626   45 C    0 0 0
  19 H    1     2.1490     4.0610   47 C    0 1 0
  19 H    1     2.1669     4.0948   39 C    0 0 0
  19 H    1     2.5202     4.7625   13 H    0 0 0
  19 H    1     2.5712     4.8588   81 O    0 0 0
  19 H    1     2.7351     5.1686    7 B    0 1 0

  20 H    1     1.0915     2.0626   46 C    0 0 0
  20 H    1     2.1490     4.0610   48 C    0 0 0
  20 H    1     2.1669     4.0948   40 C    0 0 0
  20 H    1     2.5202     4.7625   14 H    0 0 0
  20 H    1     2.5712     4.8588   82 O    0 0 0
  20 H    1     2.7351     5.1686    8 B    0 0 0

  21 H    1     1.0913     2.0623   51 C    0 0 0
  21 H    1     2.1469     4.0571   49 C   -1 0 0
  21 H    1     2.1680     4.0968   57 C    0 0 0
  21 H    1     2.5198     4.7617   27 H    0 0 0
  21 H    1     2.5670     4.8510   75 O    0 0 0
  21 H    1     2.7310     5.1609    1 B    0 0 0

  22 H    1     1.0913     2.0623   52 C    0 0 0
  22 H    1     2.1469     4.0571   50 C    0 1 0
  22 H    1     2.1680     4.0968   58 C    0 0 0
  22 H    1     2.5198     4.7617   28 H    0 0 0
  22 H    1     2.5670     4.8510   76 O    0 1 0
  22 H    1     2.7310     5.1609    2 B    0 1 0

  23 H    1     1.0914     2.0625   53 C    0 0 0
  23 H    1     2.1493     4.0617   59 C    0 0 0
  23 H    1     2.1664     4.0939   55 C    0 0 0
  23 H    1     2.5192     4.7606   25 H    0 0 0
  23 H    1     2.5735     4.8632   79 O    0 0 0
  23 H    1     2.7371     5.1723   11 B    0 0 0

  24 H    1     1.0914     2.0625   54 C    0 0 0
  24 H    1     2.1493     4.0617   60 C    0 0 0
  24 H    1     2.1664     4.0939   56 C    0 0 0
  24 H    1     2.5192     4.7606   26 H    0 0 0
  24 H    1     2.5735     4.8632   80 O    0 0 0
  24 H    1     2.7371     5.1723   12 B    0 0 0

  25 H    1     1.0914     2.0624   55 C    0 0 0
  25 H    1     2.1475     4.0581   49 C    0 0 0
  25 H    1     2.1679     4.0967   53 C    0 0 0
  25 H    1     2.5192     4.7606   23 H    0 0 0
  25 H    1     2.5675     4.8519   73 O    0 0 0
  25 H    1     2.7328     5.1643    1 B    1 0 0

  26 H    1     1.0914     2.0624   56 C    0 0 0
  26 H    1     2.1475     4.0581   50 C    1 1 0
  26 H    1     2.1679     4.0967   54 C    0 0 0
  26 H    1     2.5192     4.7606   24 H    0 0 0
  26 H    1     2.5675     4.8519   74 O    1 1 0
  26 H    1     2.7328     5.1643    2 B    1 1 0

  27 H    1     1.0914     2.0625   57 C    0 0 0
  27 H    1     2.1491     4.0612   59 C   -1 0 0
  27 H    1     2.1666     4.0942   51 C    0 0 0
  27 H    1     2.5198     4.7617   21 H    0 0 0
  27 H    1     2.5723     4.8609   83 O    0 0 0
  27 H    1     2.7355     5.1693   11 B   -1 0 0

  28 H    1     1.0914     2.0625   58 C    0 0 0
  28 H    1     2.1491     4.0612   60 C   -1 0 0
  28 H    1     2.1666     4.0942   52 C    0 0 0
  28 H    1     2.5198     4.7617   22 H    0 0 0
  28 H    1     2.5723     4.8609   84 O    0 0 0
  28 H    1     2.7355     5.1693   12 B   -1 0 0

  29 H    1     1.0914     2.0624   63 C    0 0 0
  29 H    1     2.1475     4.0582   61 C   -1-1 0
  29 H    1     2.1678     4.0966   69 C    0 0 0
  29 H    1     2.5200     4.7621   35 H    0 0 0
  29 H    1     2.5667     4.8503   77 O    0 0 0
  29 H    1     2.7315     5.1618    5 B    0 0 0

  30 H    1     1.0914     2.0624   64 C    0 0 0
  30 H    1     2.1475     4.0582   62 C    0 0 0
  30 H    1     2.1678     4.0966   70 C    0 0 0
  30 H    1     2.5200     4.7621   36 H    0 0 0
  30 H    1     2.5667     4.8503   78 O    0 0 0
  30 H    1     2.7315     5.1618    6 B    0 0 0

  31 H    1     1.0913     2.0623   65 C    0 0 0
  31 H    1     2.1487     4.0605   71 C    0 0 0
  31 H    1     2.1667     4.0945   67 C    0 0 0
  31 H    1     2.5197     4.7616   33 H    0 0 0
  31 H    1     2.5723     4.8610   81 O    0 0 0
  31 H    1     2.7359     5.1701    9 B    0 0 0

  32 H    1     1.0913     2.0623   66 C    0 0 0
  32 H    1     2.1487     4.0605   72 C    0 0 0
  32 H    1     2.1667     4.0945   68 C    0 0 0
  32 H    1     2.5197     4.7616   34 H    0 0 0
  32 H    1     2.5723     4.8610   82 O   -1 0 0
  32 H    1     2.7359     5.1701   10 B    0 0 0

  33 H    1     1.0915     2.0626   67 C    0 0 0
  33 H    1     2.1479     4.0589   61 C    0 0 0
  33 H    1     2.1679     4.0968   65 C    0 0 0
  33 H    1     2.5197     4.7616   31 H    0 0 0
  33 H    1     2.5677     4.8522   73 O    0 0 0
  33 H    1     2.7331     5.1648    5 B    1 1 0

  34 H    1     1.0915     2.0626   68 C    0 0 0
  34 H    1     2.1479     4.0589   62 C    0 0 0
  34 H    1     2.1679     4.0968   66 C    0 0 0
  34 H    1     2.5197     4.7616   32 H    0 0 0
  34 H    1     2.5677     4.8522   74 O    0 0 0
  34 H    1     2.7331     5.1648    6 B    0 0 0

  35 H    1     1.0914     2.0624   69 C    0 0 0
  35 H    1     2.1486     4.0602   71 C   -1-1 0
  35 H    1     2.1668     4.0947   63 C    0 0 0
  35 H    1     2.5200     4.7621   29 H    0 0 0
  35 H    1     2.5717     4.8598   83 O    0 0 0
  35 H    1     2.7349     5.1682    9 B   -1-1 0

  36 H    1     1.0914     2.0624   70 C    0 0 0
  36 H    1     2.1486     4.0602   72 C    0 0 0
  36 H    1     2.1668     4.0947   64 C    0 0 0
  36 H    1     2.5200     4.7621   30 H    0 0 0
  36 H    1     2.5717     4.8598   84 O    0 0 0
  36 H    1     2.7349     5.1682   10 B    0 0 0

  37 C    1     1.4020     2.6495   43 C    0 1 0
  37 C    1     1.4021     2.6495   39 C    0 0 0
  37 C    1     1.5504     2.9298    3 B    0 0 0
  37 C    1     2.1471     4.0575   17 H    0 1 0
  37 C    1     2.1472     4.0576   13 H    0 0 0
  37 C    1     2.4246     4.5817   41 C    0 1 0

  38 C    1     1.4020     2.6495   44 C    0 0 0
  38 C    1     1.4021     2.6495   40 C    0 0 0
  38 C    1     1.5504     2.9298    4 B    0 0 0
  38 C    1     2.1471     4.0575   18 H    0 0 0
  38 C    1     2.1472     4.0576   14 H    0 0 0
  38 C    1     2.4246     4.5817   42 C    0 0 0

  39 C    1     1.0913     2.0623   13 H    0 0 0
  39 C    1     1.3914     2.6294   45 C    0 0 0
  39 C    1     1.4021     2.6495   37 C    0 0 0
  39 C    1     2.1669     4.0948   19 H    0 0 0
  39 C    1     2.4177     4.5688   43 C    0 1 0
  39 C    1     2.4250     4.5825   47 C    0 1 0

  40 C    1     1.0913     2.0623   14 H    0 0 0
  40 C    1     1.3914     2.6294   46 C    0 0 0
  40 C    1     1.4021     2.6495   38 C    0 0 0
  40 C    1     2.1669     4.0948   20 H    0 0 0
  40 C    1     2.4177     4.5688   44 C    0 0 0
  40 C    1     2.4250     4.5825   48 C    0 0 0

  41 C    1     1.0914     2.0625   15 H    0 0 0
  41 C    1     1.3914     2.6293   43 C    0 0 0
  41 C    1     1.4026     2.6505   47 C    0 0 0
  41 C    1     2.1680     4.0970   17 H    0 0 0
  41 C    1     2.4182     4.5697   45 C    0-1 0
  41 C    1     2.4246     4.5817   37 C    0-1 0

  42 C    1     1.0914     2.0625   16 H    0 0 0
  42 C    1     1.3914     2.6293   44 C    0 0 0
  42 C    1     1.4026     2.6505   48 C    0 0 0
  42 C    1     2.1680     4.0970   18 H    0 0 0
  42 C    1     2.4182     4.5697   46 C    0 0 0
  42 C    1     2.4246     4.5817   38 C    0 0 0

  43 C    1     1.0914     2.0624   17 H    0 0 0
  43 C    1     1.3914     2.6293   41 C    0 0 0
  43 C    1     1.4020     2.6495   37 C    0-1 0
  43 C    1     2.1666     4.0942   15 H    0 0 0
  43 C    1     2.4177     4.5688   39 C    0-1 0
  43 C    1     2.4250     4.5826   47 C    0 0 0

  44 C    1     1.0914     2.0624   18 H    0 0 0
  44 C    1     1.3914     2.6293   42 C    0 0 0
  44 C    1     1.4020     2.6495   38 C    0 0 0
  44 C    1     2.1666     4.0942   16 H    0 0 0
  44 C    1     2.4177     4.5688   40 C    0 0 0
  44 C    1     2.4250     4.5826   48 C    0 0 0

  45 C    1     1.0915     2.0626   19 H    0 0 0
  45 C    1     1.3914     2.6294   39 C    0 0 0
  45 C    1     1.4025     2.6504   47 C    0 1 0
  45 C    1     2.1680     4.0969   13 H    0 0 0
  45 C    1     2.4182     4.5697   41 C    0 1 0
  45 C    1     2.4246     4.5818   37 C    0 0 0

  46 C    1     1.0915     2.0626   20 H    0 0 0
  46 C    1     1.3914     2.6294   40 C    0 0 0
  46 C    1     1.4025     2.6504   48 C    0 0 0
  46 C    1     2.1680     4.0969   14 H    0 0 0
  46 C    1     2.4182     4.5697   42 C    0 0 0
  46 C    1     2.4246     4.5818   38 C    0 0 0

  47 C    1     1.4025     2.6504   45 C    0-1 0
  47 C    1     1.4026     2.6505   41 C    0 0 0
  47 C    1     1.5513     2.9316    7 B    0 0 0
  47 C    1     2.1490     4.0610   19 H    0-1 0
  47 C    1     2.1493     4.0616   15 H    0 0 0
  47 C    1     2.4250     4.5825   39 C    0-1 0

  48 C    1     1.4025     2.6504   46 C    0 0 0
  48 C    1     1.4026     2.6505   42 C    0 0 0
  48 C    1     1.5513     2.9316    8 B    0 0 0
  48 C    1     2.1490     4.0610   20 H    0 0 0
  48 C    1     2.1493     4.0616   16 H    0 0 0
  48 C    1     2.4250     4.5825   40 C    0 0 0

  49 C    1     1.4020     2.6494   51 C    1 0 0
  49 C    1     1.4021     2.6495   55 C    0 0 0
  49 C    1     1.5503     2.9297    1 B    1 0 0
  49 C    1     2.1469     4.0571   21 H    1 0 0
  49 C    1     2.1475     4.0581   25 H    0 0 0
  49 C    1     2.4246     4.5818   53 C    0 0 0

  50 C    1     1.4020     2.6494   52 C    0-1 0
  50 C    1     1.4021     2.6495   56 C   -1-1 0
  50 C    1     1.5503     2.9297    2 B    0 0 0
  50 C    1     2.1469     4.0571   22 H    0-1 0
  50 C    1     2.1475     4.0581   26 H   -1-1 0
  50 C    1     2.4246     4.5818   54 C   -1-1 0

  51 C    1     1.0913     2.0623   21 H    0 0 0
  51 C    1     1.3914     2.6293   57 C    0 0 0
  51 C    1     1.4020     2.6494   49 C   -1 0 0
  51 C    1     2.1666     4.0942   27 H    0 0 0
  51 C    1     2.4175     4.5684   55 C   -1 0 0
  51 C    1     2.4251     4.5828   59 C   -1 0 0

  52 C    1     1.0913     2.0623   22 H    0 0 0
  52 C    1     1.3914     2.6293   58 C    0 0 0
  52 C    1     1.4020     2.6494   50 C    0 1 0
  52 C    1     2.1666     4.0942   28 H    0 0 0
  52 C    1     2.4175     4.5684   56 C   -1 0 0
  52 C    1     2.4251     4.5828   60 C   -1 0 0

  53 C    1     1.0914     2.0625   23 H    0 0 0
  53 C    1     1.3915     2.6295   55 C    0 0 0
  53 C    1     1.4026     2.6505   59 C    0 0 0
  53 C    1     2.1679     4.0967   25 H    0 0 0
  53 C    1     2.4179     4.5691   57 C    1 0 0
  53 C    1     2.4246     4.5818   49 C    0 0 0

  54 C    1     1.0914     2.0625   24 H    0 0 0
  54 C    1     1.3915     2.6295   56 C    0 0 0
  54 C    1     1.4026     2.6505   60 C    0 0 0
  54 C    1     2.1679     4.0967   26 H    0 0 0
  54 C    1     2.4179     4.5691   58 C    1 0 0
  54 C    1     2.4246     4.5818   50 C    1 1 0

  55 C    1     1.0914     2.0624   25 H    0 0 0
  55 C    1     1.3915     2.6295   53 C    0 0 0
  55 C    1     1.4021     2.6495   49 C    0 0 0
  55 C    1     2.1664     4.0939   23 H    0 0 0
  55 C    1     2.4175     4.5684   51 C    1 0 0
  55 C    1     2.4253     4.5832   59 C    0 0 0

  56 C    1     1.0914     2.0624   26 H    0 0 0
  56 C    1     1.3915     2.6295   54 C    0 0 0
  56 C    1     1.4021     2.6495   50 C    1 1 0
  56 C    1     2.1664     4.0939   24 H    0 0 0
  56 C    1     2.4175     4.5684   52 C    1 0 0
  56 C    1     2.4253     4.5832   60 C    0 0 0

  57 C    1     1.0914     2.0625   27 H    0 0 0
  57 C    1     1.3914     2.6293   51 C    0 0 0
  57 C    1     1.4025     2.6504   59 C   -1 0 0
  57 C    1     2.1680     4.0968   21 H    0 0 0
  57 C    1     2.4179     4.5691   53 C   -1 0 0
  57 C    1     2.4247     4.5819   49 C   -1 0 0

  58 C    1     1.0914     2.0625   28 H    0 0 0
  58 C    1     1.3914     2.6293   52 C    0 0 0
  58 C    1     1.4025     2.6504   60 C   -1 0 0
  58 C    1     2.1680     4.0968   22 H    0 0 0
  58 C    1     2.4179     4.5691   54 C   -1 0 0
  58 C    1     2.4247     4.5819   50 C    0 1 0

  59 C    1     1.4025     2.6504   57 C    1 0 0
  59 C    1     1.4026     2.6505   53 C    0 0 0
  59 C    1     1.5516     2.9322   11 B    0 0 0
  59 C    1     2.1491     4.0612   27 H    1 0 0
  59 C    1     2.1493     4.0617   23 H    0 0 0
  59 C    1     2.4251     4.5828   51 C    1 0 0

  60 C    1     1.4025     2.6504   58 C    1 0 0
  60 C    1     1.4026     2.6505   54 C    0 0 0
  60 C    1     1.5516     2.9322   12 B    0 0 0
  60 C    1     2.1491     4.0612   28 H    1 0 0
  60 C    1     2.1493     4.0617   24 H    0 0 0
  60 C    1     2.4251     4.5828   52 C    1 0 0

  61 C    1     1.4021     2.6496   63 C    1 1 0
  61 C    1     1.4021     2.6497   67 C    0 0 0
  61 C    1     1.5502     2.9294    5 B    1 1 0
  61 C    1     2.1475     4.0582   29 H    1 1 0
  61 C    1     2.1479     4.0589   33 H    0 0 0
  61 C    1     2.4244     4.5814   65 C    0 0 0

  62 C    1     1.4021     2.6496   64 C    0 0 0
  62 C    1     1.4021     2.6497   68 C    0 0 0
  62 C    1     1.5502     2.9294    6 B    0 0 0
  62 C    1     2.1475     4.0582   30 H    0 0 0
  62 C    1     2.1479     4.0589   34 H    0 0 0
  62 C    1     2.4244     4.5814   66 C    0 0 0

  63 C    1     1.0914     2.0624   29 H    0 0 0
  63 C    1     1.3914     2.6293   69 C    0 0 0
  63 C    1     1.4021     2.6496   61 C   -1-1 0
  63 C    1     2.1668     4.0947   35 H    0 0 0
  63 C    1     2.4179     4.5692   67 C   -1-1 0
  63 C    1     2.4251     4.5827   71 C   -1-1 0

  64 C    1     1.0914     2.0624   30 H    0 0 0
  64 C    1     1.3914     2.6293   70 C    0 0 0
  64 C    1     1.4021     2.6496   62 C    0 0 0
  64 C    1     2.1668     4.0947   36 H    0 0 0
  64 C    1     2.4179     4.5692   68 C    0 0 0
  64 C    1     2.4251     4.5827   72 C    0 0 0

  65 C    1     1.0913     2.0623   31 H    0 0 0
  65 C    1     1.3914     2.6294   67 C    0 0 0
  65 C    1     1.4025     2.6504   71 C    0 0 0
  65 C    1     2.1679     4.0968   33 H    0 0 0
  65 C    1     2.4178     4.5690   69 C    1 1 0
  65 C    1     2.4244     4.5814   61 C    0 0 0

  66 C    1     1.0913     2.0623   32 H    0 0 0
  66 C    1     1.3914     2.6294   68 C    0 0 0
  66 C    1     1.4025     2.6504   72 C    0 0 0
  66 C    1     2.1679     4.0968   34 H    0 0 0
  66 C    1     2.4178     4.5690   70 C    0 0 0
  66 C    1     2.4244     4.5814   62 C    0 0 0

  67 C    1     1.0915     2.0626   33 H    0 0 0
  67 C    1     1.3914     2.6294   65 C    0 0 0
  67 C    1     1.4021     2.6497   61 C    0 0 0
  67 C    1     2.1667     4.0945   31 H    0 0 0
  67 C    1     2.4179     4.5692   63 C    1 1 0
  67 C    1     2.4253     4.5832   71 C    0 0 0

  68 C    1     1.0915     2.0626   34 H    0 0 0
  68 C    1     1.3914     2.6294   66 C    0 0 0
  68 C    1     1.4021     2.6497   62 C    0 0 0
  68 C    1     2.1667     4.0945   32 H    0 0 0
  68 C    1     2.4179     4.5692   64 C    0 0 0
  68 C    1     2.4253     4.5832   72 C    0 0 0

  69 C    1     1.0914     2.0624   35 H    0 0 0
  69 C    1     1.3914     2.6293   63 C    0 0 0
  69 C    1     1.4025     2.6503   71 C   -1-1 0
  69 C    1     2.1678     4.0966   29 H    0 0 0
  69 C    1     2.4178     4.5690   65 C   -1-1 0
  69 C    1     2.4245     4.5817   61 C   -1-1 0

  70 C    1     1.0914     2.0624   36 H    0 0 0
  70 C    1     1.3914     2.6293   64 C    0 0 0
  70 C    1     1.4025     2.6503   72 C    0 0 0
  70 C    1     2.1678     4.0966   30 H    0 0 0
  70 C    1     2.4178     4.5690   66 C    0 0 0
  70 C    1     2.4245     4.5817   62 C    0 0 0

  71 C    1     1.4025     2.6503   69 C    1 1 0
  71 C    1     1.4025     2.6504   65 C    0 0 0
  71 C    1     1.5516     2.9322    9 B    0 0 0
  71 C    1     2.1486     4.0602   35 H    1 1 0
  71 C    1     2.1487     4.0605   31 H    0 0 0
  71 C    1     2.4251     4.5827   63 C    1 1 0

  72 C    1     1.4025     2.6503   70 C    0 0 0
  72 C    1     1.4025     2.6504   66 C    0 0 0
  72 C    1     1.5516     2.9322   10 B    0 0 0
  72 C    1     2.1486     4.0602   36 H    0 0 0
  72 C    1     2.1487     4.0605   32 H    0 0 0
  72 C    1     2.4251     4.5827   64 C    0 0 0

  73 O    1     1.3791     2.6061    1 B    1 0 0
  73 O    1     1.3791     2.6061    5 B    1 1 0
  73 O    1     2.3880     4.5126   75 O    1 0 0
  73 O    1     2.3882     4.5130   77 O    1 1 0
  73 O    1     2.5383     4.7966   61 C    0 0 0
  73 O    1     2.5384     4.7968   49 C    0 0 0

  74 O    1     1.3791     2.6061    2 B    0 0 0
  74 O    1     1.3791     2.6061    6 B    0 0 0
  74 O    1     2.3880     4.5126   76 O    0 0 0
  74 O    1     2.3882     4.5130   78 O    0 0 0
  74 O    1     2.5383     4.7966   62 C    0 0 0
  74 O    1     2.5384     4.7968   50 C    0 0 0

  75 O    1     1.3793     2.6065    1 B    0 0 0
  75 O    1     1.3793     2.6065    3 B    0 0 0
  75 O    1     2.3880     4.5126   73 O   -1 0 0
  75 O    1     2.3882     4.5131   77 O    0 1 0
  75 O    1     2.5391     4.7981   37 C    0 0 0
  75 O    1     2.5395     4.7990   49 C   -1 0 0

  76 O    1     1.3793     2.6065    2 B    0 0 0
  76 O    1     1.3793     2.6065    4 B    0 0 0
  76 O    1     2.3880     4.5126   74 O    0 0 0
  76 O    1     2.3882     4.5131   78 O    0 0 0
  76 O    1     2.5391     4.7981   38 C    0 0 0
  76 O    1     2.5395     4.7990   50 C    0 0 0

  77 O    1     1.3793     2.6064    5 B    0 0 0
  77 O    1     1.3793     2.6065    3 B    0-1 0
  77 O    1     2.3882     4.5130   73 O   -1-1 0
  77 O    1     2.3882     4.5131   75 O    0-1 0
  77 O    1     2.5390     4.7980   37 C    0-1 0
  77 O    1     2.5391     4.7982   61 C   -1-1 0

  78 O    1     1.3793     2.6064    6 B    0 0 0
  78 O    1     1.3793     2.6065    4 B    0 0 0
  78 O    1     2.3882     4.5130   74 O    0 0 0
  78 O    1     2.3882     4.5131   76 O    0 0 0
  78 O    1     2.5390     4.7980   38 C    0 0 0
  78 O    1     2.5391     4.7982   62 C    0 0 0

  79 O    1     1.3795     2.6068   11 B    0 0 0
  79 O    1     1.3795     2.6068    7 B    0 0 0
  79 O    1     2.3880     4.5126   83 O    1 0 0
  79 O    1     2.3884     4.5134   81 O    0-1 0
  79 O    1     2.5400     4.7998   47 C    0 0 0
  79 O    1     2.5403     4.8005   59 C    0 0 0

  80 O    1     1.3795     2.6068   12 B    0 0 0
  80 O    1     1.3795     2.6068    8 B    0 0 0
  80 O    1     2.3880     4.5126   84 O    1 0 0
  80 O    1     2.3884     4.5134   82 O    0 0 0
  80 O    1     2.5400     4.7998   48 C    0 0 0
  80 O    1     2.5403     4.8005   60 C    0 0 0

  81 O    1     1.3795     2.6069    9 B    0 0 0
  81 O    1     1.3795     2.6070    7 B    0 1 0
  81 O    1     2.3881     4.5128   83 O    1 1 0
  81 O    1     2.3884     4.5134   79 O    0 1 0
  81 O    1     2.5404     4.8006   47 C    0 1 0
  81 O    1     2.5405     4.8008   71 C    0 0 0

  82 O    1     1.3795     2.6069   10 B    1 0 0
  82 O    1     1.3795     2.6070    8 B    0 0 0
  82 O    1     2.3881     4.5128   84 O    1 0 0
  82 O    1     2.3884     4.5134   80 O    0 0 0
  82 O    1     2.5404     4.8006   48 C    0 0 0
  82 O    1     2.5405     4.8008   72 C    1 0 0

  83 O    1     1.3796     2.6071   11 B   -1 0 0
  83 O    1     1.3797     2.6072    9 B   -1-1 0
  83 O    1     2.3880     4.5126   79 O   -1 0 0
  83 O    1     2.3881     4.5128   81 O   -1-1 0
  83 O    1     2.5409     4.8016   71 C   -1-1 0
  83 O    1     2.5410     4.8019   59 C   -1 0 0

  84 O    1     1.3796     2.6071   12 B   -1 0 0
  84 O    1     1.3797     2.6072   10 B    0 0 0
  84 O    1     2.3880     4.5126   80 O   -1 0 0
  84 O    1     2.3881     4.5128   82 O   -1 0 0
  84 O    1     2.5409     4.8016   72 C    0 0 0
  84 O    1     2.5410     4.8019   60 C   -1 0 0


 SYMMETRY ALLOWED INTERNAL DEGREE(S) OF FREEDOM: 249
 TTTTTTTTTTTTTTTTTTTTTTTTTTTTTT SYMM        TELAPSE        2.78 TCPU        2.77
 TTTTTTTTTTTTTTTTTTTTTTTTTTTTTT INT_SCREEN  TELAPSE        2.99 TCPU        2.99

 DFT PARAMETERS

     ATOM       ELECTRONS   NET CHARGE   R(ANGSTROM)
   1   5  B       5.0000      0.0000     0.89000000
  13   1  H       1.0000      0.0000     1.11000000
  37   6  C       6.0000      0.0000     0.77000000
  73   8  O       8.0000      0.0000     0.74000000

 SIZE OF GRID=    2549624
 TTTTTTTTTTTTTTTTTTTTTTTTTTTTTT MAKE_GRID2  TELAPSE       24.62 TCPU       24.59
 BECKE WEIGHT FUNCTION
 RADSAFE =     2.00
 TOLERANCES - DENSITY:10**- 6; POTENTIAL:10**- 9; GRID WGT:10**-14

 RADIAL INTEGRATION  - INTERVALS (POINTS,UPPER LIMIT):            1( 75,  4.0*R)

 ANGULAR INTEGRATION - INTERVALS (ACCURACY LEVEL [N. POINTS] UPPER LIMIT):
  1(  4[  86]   0.2)  2(  8[ 194]   0.5)  3( 12[ 350]   0.9)  4( 16[ 974]   3.5)
  5( 12[ 350]9999.0)
 TTTTTTTTTTTTTTTTTTTTTTTTTTTTTT INT_CALC    TELAPSE       24.89 TCPU       24.86
 EEEEEEEEEE INT_CALC TERMINATION  DATE 19 02 2026 TIME 20:10:37.0

 *******************************************************************************
 cof-1_z35_L040_serr                                                             
 CRYSTAL - SCF - TYPE OF CALCULATION :  RESTRICTED CLOSED SHELL
 *******************************************************************************

 CAPPA:IS1  2;IS2  2;IS3  8; K PTS MONK NET  20; SYMMOPS:K SPACE   2;G SPACE   1

 TTTTTTTTTTTTTTTTTTTTTTTTTTTTTT SDIK        TELAPSE       26.79 TCPU       52.26

 AAAAAAAAAAAAAAAAAAAAAAAAAAAAAAAAAAAAAAAAAAAAAAAAAAAAAAAAAAAAAAAAAAAAAAAAAAAAAAA
         ATOMIC WAVEFUNCTION(S)


 NUCLEAR CHARGE  5.0  SYMMETRY SPECIES            S    P
 N. ELECTRONS    5.0  NUMBER OF PRIMITIVE GTOS    8    4
                      NUMBER OF CONTRACTED GTOS   4    2
                      NUMBER OF CLOSED SHELLS     2    0
                      OPEN SHELL OCCUPATION       0    1

  ZNUC  SCFIT    TOTAL HF ENERGY   KINETIC ENERGY   VIRIAL THEOREM ACCURACY
   5.0    11    -2.451164084E+01  2.462155050E+01 -1.995536038E+00  1.5E-06

 NUCLEAR CHARGE  1.0  SYMMETRY SPECIES            S
 N. ELECTRONS    1.0  NUMBER OF PRIMITIVE GTOS    4
                      NUMBER OF CONTRACTED GTOS   2
                      NUMBER OF CLOSED SHELLS     0
                      OPEN SHELL OCCUPATION       1

  ZNUC  SCFIT    TOTAL HF ENERGY   KINETIC ENERGY   VIRIAL THEOREM ACCURACY
   1.0     1    -4.977266687E-01  5.190767460E-01 -1.958869132E+00  0.0E+00

 NUCLEAR CHARGE  6.0  SYMMETRY SPECIES            S    P
 N. ELECTRONS    6.0  NUMBER OF PRIMITIVE GTOS    8    4
                      NUMBER OF CONTRACTED GTOS   4    2
                      NUMBER OF CLOSED SHELLS     2    0
                      OPEN SHELL OCCUPATION       0    2

  ZNUC  SCFIT    TOTAL HF ENERGY   KINETIC ENERGY   VIRIAL THEOREM ACCURACY
   6.0     9    -3.766704647E+01  3.775180683E+01 -1.997754800E+00  1.1E-06

 NUCLEAR CHARGE  8.0  SYMMETRY SPECIES            S    P
 N. ELECTRONS    8.0  NUMBER OF PRIMITIVE GTOS    8    4
                      NUMBER OF CONTRACTED GTOS   4    2
                      NUMBER OF CLOSED SHELLS     2    0
                      OPEN SHELL OCCUPATION       0    4

  ZNUC  SCFIT    TOTAL HF ENERGY   KINETIC ENERGY   VIRIAL THEOREM ACCURACY
   8.0    12    -7.477373220E+01  7.477365593E+01 -2.000001020E+00  3.8E-06

 AAAAAAAAAAAAAAAAAAAAAAAAAAAAAAAAAAAAAAAAAAAAAAAAAAAAAAAAAAAAAAAAAAAAAAAAAAAAAAA

 CHARGE NORMALIZATION FACTOR   1.00000000
 TOTAL ATOMIC CHARGES:
   5.0000000   5.0000000   5.0000000   5.0000000   5.0000000   5.0000000
   5.0000000   5.0000000   5.0000000   5.0000000   5.0000000   5.0000000
   1.0000000   1.0000000   1.0000000   1.0000000   1.0000000   1.0000000
   1.0000000   1.0000000   1.0000000   1.0000000   1.0000000   1.0000000
   1.0000000   1.0000000   1.0000000   1.0000000   1.0000000   1.0000000
   1.0000000   1.0000000   1.0000000   1.0000000   1.0000000   1.0000000
   6.0000000   6.0000000   6.0000000   6.0000000   6.0000000   6.0000000
   6.0000000   6.0000000   6.0000000   6.0000000   6.0000000   6.0000000
   6.0000000   6.0000000   6.0000000   6.0000000   6.0000000   6.0000000
   6.0000000   6.0000000   6.0000000   6.0000000   6.0000000   6.0000000
   6.0000000   6.0000000   6.0000000   6.0000000   6.0000000   6.0000000
   6.0000000   6.0000000   6.0000000   6.0000000   6.0000000   6.0000000
   8.0000000   8.0000000   8.0000000   8.0000000   8.0000000   8.0000000
   8.0000000   8.0000000   8.0000000   8.0000000   8.0000000   8.0000000
 TTTTTTTTTTTTTTTTTTTTTTTTTTTTTT MOQGAD      TELAPSE       26.89 TCPU       55.43
 TTTTTTTTTTTTTTTTTTTTTTTTTTTTTT SHELLXN     TELAPSE       46.60 TCPU      685.19
 TTTTTTTTTTTTTTTTTTTTTTTTTTTTTT MONMO3      TELAPSE       47.21 TCPU      704.78
 NUMERICALLY INTEGRATED DENSITY    396.0000002251
 TTTTTTTTTTTTTTTTTTTTTTTTTTTTTT NUMDFT      TELAPSE       48.72 TCPU      753.09
 CYC   0 ETOT(AU) -2.591941298620E+03 DETOT -2.59E+03 tst  0.00E+00 PX  1.00E+00
 TTTTTTTTTTTTTTTTTTTTTTTTTTTTTT DIIS        TELAPSE       48.83 TCPU      756.48
 TTTTTTTTTTTTTTTTTTTTTTTTTTTTTT FDIK        TELAPSE       50.63 TCPU      813.92
 INSULATING STATE
 TOP OF VALENCE BANDS -    BAND    198; K    3; EIG -3.1021697E-01 AU
 TOP OF VALENCE BANDS -    BAND    198; K    1; EIG -3.1041025E-01 AU
 BOTTOM OF VIRTUAL BANDS - BAND    199; K    1; EIG -1.6301099E-01 AU
 INDIRECT ENERGY BAND GAP:   4.0057 eV
 TTTTTTTTTTTTTTTTTTTTTTTTTTTTTT PDIG        TELAPSE       52.19 TCPU      820.85
 CHARGE NORMALIZATION FACTOR   1.00000000
 TOTAL ATOMIC CHARGES:
   4.1462995   4.1390889   4.1556581   4.1641416   4.1558684   4.1643798
   4.1639695   4.1555335   4.1637811   4.1553006   4.1387980   4.1459606
   0.7855745   0.7856149   0.7857277   0.7856889   0.7837915   0.7851424
   0.7852614   0.7839100   0.7860353   0.7860918   0.7862603   0.7862001
   0.7860258   0.7860825   0.7862207   0.7861601   0.7837970   0.7851445
   0.7853267   0.7839777   0.7855270   0.7855648   0.7857225   0.7856819
   6.0467545   6.0431858   6.2680364   6.2671960   6.2671573   6.2679975
   6.2667229   6.2652469   6.2651921   6.2666694   6.0424554   6.0459856
   6.0496937   6.0498427   6.2618063   6.2637746   6.2638359   6.2618593
   6.2617179   6.2636864   6.2638537   6.2618608   6.0485849   6.0484483
   6.0471164   6.0435392   6.2664960   6.2650148   6.2655646   6.2670420
   6.2676665   6.2668212   6.2674358   6.2682783   6.0419901   6.0455139
   8.7009346   8.6944702   8.7010520   8.6945833   8.7049921   8.6909821
   8.6948922   8.7013602   8.6913936   8.7053790   8.6950730   8.7015348
 TTTTTTTTTTTTTTTTTTTTTTTTTTTTTT MOQGAD      TELAPSE       52.29 TCPU      820.95
 TTTTTTTTTTTTTTTTTTTTTTTTTTTTTT SHELLXN     TELAPSE       72.79 TCPU     1475.21
 TTTTTTTTTTTTTTTTTTTTTTTTTTTTTT MONMO3      TELAPSE       73.41 TCPU     1494.78
 NUMERICALLY INTEGRATED DENSITY    396.0000171704
 TTTTTTTTTTTTTTTTTTTTTTTTTTTTTT NUMDFT      TELAPSE       74.95 TCPU     1543.97
 CYC   1 ETOT(AU) -2.577659281336E+03 DETOT  1.43E+01 tst  0.00E+00 PX  1.00E+00
 TTTTTTTTTTTTTTTTTTTTTTTTTTTTTT DIIS        TELAPSE       75.09 TCPU     1548.42
 DIIS TEST: 0.21740E+01 AT SCF   CYCLE   1 - MIX   30 %
 TTTTTTTTTTTTTTTTTTTTTTTTTTTTTT FDIK        TELAPSE       76.90 TCPU     1606.45
 INSULATING STATE
 TOP OF VALENCE BANDS -    BAND    198; K    3; EIG -2.2188351E-01 AU
 TOP OF VALENCE BANDS -    BAND    198; K    1; EIG -2.2200623E-01 AU
 BOTTOM OF VIRTUAL BANDS - BAND    199; K    1; EIG -8.7021549E-02 AU
 INDIRECT ENERGY BAND GAP:   3.6698 eV
 TTTTTTTTTTTTTTTTTTTTTTTTTTTTTT PDIG        TELAPSE       78.46 TCPU     1613.39
 CHARGE NORMALIZATION FACTOR   1.00000000
 TOTAL ATOMIC CHARGES:
   4.6483824   4.6620538   4.6755199   4.7128065   4.6754245   4.7127781
   4.7129984   4.6758325   4.7129887   4.6758213   4.6622458   4.6483400
   0.9129691   0.8989206   0.8990145   0.9129627   0.9216196   0.9151160
   0.9151612   0.9217047   0.9060304   0.8904993   0.8904822   0.9061652
   0.9060076   0.8904838   0.8904630   0.9061138   0.9216108   0.9151070
   0.9152360   0.9217718   0.9129071   0.8988573   0.8990260   0.9129510
   5.8640738   5.8782273   6.1503783   6.1144786   6.1148847   6.1507976
   6.1334574   6.1503901   6.1510381   6.1342508   5.8809384   5.8667706
   5.8904220   5.9096803   6.1380189   6.1572489   6.1580881   6.1387091
   6.1382076   6.1573781   6.1580347   6.1387274   5.9130204   5.8934075
   5.8640034   5.8781653   6.1335330   6.1504380   6.1509070   6.1341959
   6.1506037   6.1146832   6.1146431   6.1505175   5.8811538   5.8669595
   8.3400126   8.3263970   8.3404078   8.3267371   8.3617920   8.3417205
   8.3262595   8.3398026   8.3414477   8.3617921   8.3266656   8.3401607
 TTTTTTTTTTTTTTTTTTTTTTTTTTTTTT MOQGAD      TELAPSE       78.56 TCPU     1613.49
 TTTTTTTTTTTTTTTTTTTTTTTTTTTTTT SHELLXN     TELAPSE       99.07 TCPU     2267.80
 TTTTTTTTTTTTTTTTTTTTTTTTTTTTTT MONMO3      TELAPSE       99.68 TCPU     2287.35
 NUMERICALLY INTEGRATED DENSITY    396.0000198834
 TTTTTTTTTTTTTTTTTTTTTTTTTTTTTT NUMDFT      TELAPSE      101.22 TCPU     2336.60
 CYC   2 ETOT(AU) -2.578044032014E+03 DETOT -3.85E-01 tst  3.98E-03 PX  1.60E-01
 TTTTTTTTTTTTTTTTTTTTTTTTTTTTTT DIIS        TELAPSE      101.38 TCPU     2341.72
 DIIS TEST: 0.89333E+00 AT SCF   CYCLE   2 - DIIS ACTIVE - HISTORY:     2 CYCLES
 TTTTTTTTTTTTTTTTTTTTTTTTTTTTTT FDIK        TELAPSE      103.21 TCPU     2399.92
 INSULATING STATE
 TOP OF VALENCE BANDS -    BAND    198; K    3; EIG -2.3439076E-01 AU
 TOP OF VALENCE BANDS -    BAND    198; K    1; EIG -2.3458185E-01 AU
 BOTTOM OF VIRTUAL BANDS - BAND    199; K    1; EIG -8.3083812E-02 AU
 INDIRECT ENERGY BAND GAP:   4.1173 eV
 TTTTTTTTTTTTTTTTTTTTTTTTTTTTTT PDIG        TELAPSE      104.76 TCPU     2406.86
 CHARGE NORMALIZATION FACTOR   1.00000000
 TOTAL ATOMIC CHARGES:
   4.4628315   4.4538964   4.4822228   4.5061079   4.4822747   4.5061632
   4.5057168   4.4817464   4.5055701   4.4815714   4.4532152   4.4625763
   0.8933554   0.8771356   0.8771710   0.8936259   0.8944097   0.8937956
   0.8939129   0.8944287   0.8859370   0.8766301   0.8770598   0.8859801
   0.8859536   0.8766454   0.8770040   0.8859084   0.8944025   0.8937996
   0.8939697   0.8944998   0.8933504   0.8771416   0.8771286   0.8935676
   5.9030922   5.8906090   6.1592298   6.1719063   6.1715660   6.1589674
   6.1610163   6.1490457   6.1482470   6.1598131   5.8894560   5.9018539
   5.9240152   5.9108394   6.1588227   6.1692990   6.1686410   6.1584516
   6.1589490   6.1694446   6.1685164   6.1583699   5.9093140   5.9229763
   5.9034311   5.8909249   6.1609922   6.1489782   6.1483924   6.1599317
   6.1591534   6.1717666   6.1715885   6.1590172   5.8891209   5.9015257
   8.5220168   8.5171767   8.5221729   8.5173325   8.5276542   8.5041585
   8.5173225   8.5223802   8.5043460   8.5273812   8.5175128   8.5225747
 TTTTTTTTTTTTTTTTTTTTTTTTTTTTTT MOQGAD      TELAPSE      104.86 TCPU     2406.96
 TTTTTTTTTTTTTTTTTTTTTTTTTTTTTT SHELLXN     TELAPSE      125.37 TCPU     3061.42
 TTTTTTTTTTTTTTTTTTTTTTTTTTTTTT MONMO3      TELAPSE      125.99 TCPU     3081.00
 NUMERICALLY INTEGRATED DENSITY    396.0000205429
 TTTTTTTTTTTTTTTTTTTTTTTTTTTTTT NUMDFT      TELAPSE      127.53 TCPU     3130.23
 CYC   3 ETOT(AU) -2.578228475445E+03 DETOT -1.84E-01 tst  5.24E-04 PX  6.66E-02
 TTTTTTTTTTTTTTTTTTTTTTTTTTTTTT DIIS        TELAPSE      127.71 TCPU     3135.91
 DIIS TEST: 0.31072E-01 AT SCF   CYCLE   3 - DIIS ACTIVE - HISTORY:     3 CYCLES
 TTTTTTTTTTTTTTTTTTTTTTTTTTTTTT FDIK        TELAPSE      129.52 TCPU     3193.88
 INSULATING STATE
 TOP OF VALENCE BANDS -    BAND    198; K    3; EIG -2.4394436E-01 AU
 TOP OF VALENCE BANDS -    BAND    198; K    1; EIG -2.4406868E-01 AU
 BOTTOM OF VIRTUAL BANDS - BAND    199; K    1; EIG -9.1480196E-02 AU
 INDIRECT ENERGY BAND GAP:   4.1488 eV
 TTTTTTTTTTTTTTTTTTTTTTTTTTTTTT PDIG        TELAPSE      131.08 TCPU     3200.82
 CHARGE NORMALIZATION FACTOR   1.00000000
 TOTAL ATOMIC CHARGES:
   4.4661405   4.4610878   4.4878109   4.5079624   4.4878392   4.5080129
   4.5080873   4.4880188   4.5079394   4.4878753   4.4611190   4.4659654
   0.8729982   0.8649467   0.8651203   0.8729743   0.8812619   0.8729797
   0.8729918   0.8813094   0.8677873   0.8576049   0.8574827   0.8680483
   0.8677982   0.8576318   0.8574202   0.8679687   0.8812811   0.8729867
   0.8730560   0.8813494   0.8729817   0.8649153   0.8650988   0.8729312
   5.9346593   5.9435029   6.1783158   6.1527572   6.1531916   6.1785148
   6.1601495   6.1803419   6.1816387   6.1620712   5.9467679   5.9379153
   5.9534248   5.9718267   6.1631383   6.1874784   6.1886011   6.1639845
   6.1630847   6.1873952   6.1886964   6.1641466   5.9753775   5.9561230
   5.9346523   5.9435250   6.1600592   6.1802204   6.1817432   6.1622573
   6.1782042   6.1526615   6.1532595   6.1785492   5.9468023   5.9379321
   8.4834461   8.4749183   8.4837687   8.4751814   8.5012842   8.4852001
   8.4750501   8.4832545   8.4851547   8.5020111   8.4754021   8.4835758
 TTTTTTTTTTTTTTTTTTTTTTTTTTTTTT MOQGAD      TELAPSE      131.18 TCPU     3200.92
 TTTTTTTTTTTTTTTTTTTTTTTTTTTTTT SHELLXN     TELAPSE      151.69 TCPU     3855.51
 TTTTTTTTTTTTTTTTTTTTTTTTTTTTTT MONMO3      TELAPSE      152.30 TCPU     3875.07
 NUMERICALLY INTEGRATED DENSITY    396.0000197283
 TTTTTTTTTTTTTTTTTTTTTTTTTTTTTT NUMDFT      TELAPSE      153.84 TCPU     3924.23
 CYC   4 ETOT(AU) -2.578235036315E+03 DETOT -6.56E-03 tst  3.06E-05 PX  1.58E-02
 TTTTTTTTTTTTTTTTTTTTTTTTTTTTTT DIIS        TELAPSE      154.04 TCPU     3930.57
 DIIS TEST: 0.91918E-02 AT SCF   CYCLE   4 - DIIS ACTIVE - HISTORY:     4 CYCLES
 TTTTTTTTTTTTTTTTTTTTTTTTTTTTTT FDIK        TELAPSE      155.85 TCPU     3988.52
 INSULATING STATE
 TOP OF VALENCE BANDS -    BAND    198; K    3; EIG -2.4257024E-01 AU
 TOP OF VALENCE BANDS -    BAND    198; K    1; EIG -2.4271454E-01 AU
 BOTTOM OF VIRTUAL BANDS - BAND    199; K    1; EIG -9.1354342E-02 AU
 INDIRECT ENERGY BAND GAP:   4.1148 eV
 TTTTTTTTTTTTTTTTTTTTTTTTTTTTTT PDIG        TELAPSE      157.41 TCPU     3995.46
 CHARGE NORMALIZATION FACTOR   1.00000000
 TOTAL ATOMIC CHARGES:
   4.4662520   4.4628418   4.4881228   4.5139099   4.4881589   4.5139566
   4.5136907   4.4878723   4.5135555   4.4877186   4.4623438   4.4661157
   0.8776701   0.8644434   0.8644901   0.8778921   0.8822647   0.8781953
   0.8783874   0.8823725   0.8702202   0.8606252   0.8610412   0.8702807
   0.8702154   0.8606249   0.8610004   0.8702223   0.8822580   0.8781966
   0.8784518   0.8824453   0.8776427   0.8644252   0.8644671   0.8778533
   5.9268480   5.9259523   6.1714651   6.1669508   6.1666884   6.1714083
   6.1693460   6.1655908   6.1644250   6.1676237   5.9244338   5.9253108
   5.9513088   5.9477998   6.1683927   6.1807778   6.1801556   6.1679706
   6.1685806   6.1809455   6.1800145   6.1678706   5.9462933   5.9503310
   5.9271095   5.9262042   6.1693256   6.1655417   6.1645081   6.1677148
   6.1714816   6.1668977   6.1666444   6.1713672   5.9242000   5.9250757
   8.4951228   8.4884197   8.4953131   8.4886019   8.5064333   8.4846209
   8.4884318   8.4954452   8.4846562   8.5058572   8.4886631   8.4956557
 TTTTTTTTTTTTTTTTTTTTTTTTTTTTTT MOQGAD      TELAPSE      157.51 TCPU     3995.56
 TTTTTTTTTTTTTTTTTTTTTTTTTTTTTT SHELLXN     TELAPSE      178.01 TCPU     4649.67
 TTTTTTTTTTTTTTTTTTTTTTTTTTTTTT MONMO3      TELAPSE      178.62 TCPU     4669.24
 NUMERICALLY INTEGRATED DENSITY    396.0000200744
 TTTTTTTTTTTTTTTTTTTTTTTTTTTTTT NUMDFT      TELAPSE      180.16 TCPU     4718.29
 CYC   5 ETOT(AU) -2.578237112725E+03 DETOT -2.08E-03 tst  6.06E-06 PX  8.47E-03
 TTTTTTTTTTTTTTTTTTTTTTTTTTTTTT DIIS        TELAPSE      180.39 TCPU     4725.10
 DIIS TEST: 0.39770E-03 AT SCF   CYCLE   5 - DIIS ACTIVE - HISTORY:     5 CYCLES
 TTTTTTTTTTTTTTTTTTTTTTTTTTTTTT FDIK        TELAPSE      182.20 TCPU     4782.90
 INSULATING STATE
 TOP OF VALENCE BANDS -    BAND    198; K    3; EIG -2.4215030E-01 AU
 TOP OF VALENCE BANDS -    BAND    198; K    1; EIG -2.4229574E-01 AU
 BOTTOM OF VIRTUAL BANDS - BAND    199; K    1; EIG -9.0547917E-02 AU
 INDIRECT ENERGY BAND GAP:   4.1253 eV
 TTTTTTTTTTTTTTTTTTTTTTTTTTTTTT PDIG        TELAPSE      183.77 TCPU     4789.85
 CHARGE NORMALIZATION FACTOR   1.00000000
 TOTAL ATOMIC CHARGES:
   4.4666078   4.4628760   4.4886514   4.5119010   4.4886750   4.5119508
   4.5119809   4.4887548   4.5118386   4.4886154   4.4628689   4.4664010
   0.8780724   0.8663180   0.8665030   0.8780807   0.8842990   0.8784630
   0.8784123   0.8843006   0.8724646   0.8616286   0.8615091   0.8727237
   0.8724817   0.8616570   0.8614429   0.8726430   0.8843127   0.8784669
   0.8784771   0.8843463   0.8780612   0.8662942   0.8664784   0.8780325
   5.9219352   5.9228718   6.1747143   6.1603992   6.1607348   6.1747502
   6.1601265   6.1717566   6.1734690   6.1625935   5.9265446   5.9255300
   5.9401076   5.9492949   6.1631910   6.1831714   6.1843020   6.1640875
   6.1631096   6.1830898   6.1844018   6.1642544   5.9528829   5.9427991
   5.9219920   5.9229512   6.1600560   6.1716456   6.1735916   6.1627656
   6.1745674   6.1602635   6.1608196   6.1748254   5.9265025   5.9254814
   8.4954389   8.4870312   8.4957406   8.4872783   8.5078672   8.4899766
   8.4872396   8.4952465   8.4900479   8.5088470   8.4875588   8.4955571
 TTTTTTTTTTTTTTTTTTTTTTTTTTTTTT MOQGAD      TELAPSE      183.87 TCPU     4789.95
 TTTTTTTTTTTTTTTTTTTTTTTTTTTTTT SHELLXN     TELAPSE      204.37 TCPU     5444.23
 TTTTTTTTTTTTTTTTTTTTTTTTTTTTTT MONMO3      TELAPSE      204.98 TCPU     5463.80
 NUMERICALLY INTEGRATED DENSITY    396.0000200951
 TTTTTTTTTTTTTTTTTTTTTTTTTTTTTT NUMDFT      TELAPSE      206.53 TCPU     5513.07
 CYC   6 ETOT(AU) -2.578237142955E+03 DETOT -3.02E-05 tst  2.66E-06 PX  2.60E-03
 TTTTTTTTTTTTTTTTTTTTTTTTTTTTTT DIIS        TELAPSE      206.77 TCPU     5519.92
 DIIS TEST: 0.31604E-03 AT SCF   CYCLE   6 - DIIS ACTIVE - HISTORY:     6 CYCLES
 TTTTTTTTTTTTTTTTTTTTTTTTTTTTTT FDIK        TELAPSE      208.58 TCPU     5577.60
 INSULATING STATE
 TOP OF VALENCE BANDS -    BAND    198; K    3; EIG -2.4225727E-01 AU
 TOP OF VALENCE BANDS -    BAND    198; K    1; EIG -2.4240370E-01 AU
 BOTTOM OF VIRTUAL BANDS - BAND    199; K    1; EIG -9.0691903E-02 AU
 INDIRECT ENERGY BAND GAP:   4.1243 eV
 TTTTTTTTTTTTTTTTTTTTTTTTTTTTTT PDIG        TELAPSE      210.14 TCPU     5584.54
 CHARGE NORMALIZATION FACTOR   1.00000000
 TOTAL ATOMIC CHARGES:
   4.4670701   4.4627595   4.4886114   4.5125800   4.4886465   4.5126281
   4.5124228   4.4884519   4.5122838   4.4883009   4.4623636   4.4668996
   0.8784485   0.8659168   0.8659917   0.8786013   0.8836325   0.8787911
   0.8789321   0.8837172   0.8719772   0.8615937   0.8618633   0.8720869
   0.8719799   0.8616034   0.8618147   0.8720205   0.8836343   0.8787960
   0.8789942   0.8837783   0.8784282   0.8658980   0.8659663   0.8785587
   5.9248779   5.9251393   6.1723675   6.1634379   6.1633939   6.1723894
   6.1647627   6.1689326   6.1684228   6.1640215   5.9249417   5.9246751
   5.9460634   5.9491633   6.1651021   6.1819321   6.1817945   6.1650434
   6.1652104   6.1820216   6.1817253   6.1650240   5.9490834   5.9461249
   5.9250649   5.9253252   6.1647129   6.1688514   6.1685276   6.1641571
   6.1723278   6.1633598   6.1633961   6.1723823   5.9247818   5.9245058
   8.4948107   8.4875462   8.4950366   8.4877496   8.5075047   8.4875971
   8.4876147   8.4950092   8.4876123   8.5073025   8.4878800   8.4952501
 TTTTTTTTTTTTTTTTTTTTTTTTTTTTTT MOQGAD      TELAPSE      210.24 TCPU     5584.64
 TTTTTTTTTTTTTTTTTTTTTTTTTTTTTT SHELLXN     TELAPSE      230.74 TCPU     6238.89
 TTTTTTTTTTTTTTTTTTTTTTTTTTTTTT MONMO3      TELAPSE      231.36 TCPU     6258.46
 NUMERICALLY INTEGRATED DENSITY    396.0000200920
 TTTTTTTTTTTTTTTTTTTTTTTTTTTTTT NUMDFT      TELAPSE      232.89 TCPU     6307.53
 CYC   7 ETOT(AU) -2.578237222781E+03 DETOT -7.98E-05 tst  7.42E-07 PX  1.35E-03
 TTTTTTTTTTTTTTTTTTTTTTTTTTTTTT DIIS        TELAPSE      233.16 TCPU     6314.38
 DIIS TEST: 0.59438E-05 AT SCF   CYCLE   7 - DIIS ACTIVE - HISTORY:     7 CYCLES
 TTTTTTTTTTTTTTTTTTTTTTTTTTTTTT FDIK        TELAPSE      234.98 TCPU     6372.18
 INSULATING STATE
 TOP OF VALENCE BANDS -    BAND    198; K    3; EIG -2.4226064E-01 AU
 TOP OF VALENCE BANDS -    BAND    198; K    1; EIG -2.4240637E-01 AU
 BOTTOM OF VIRTUAL BANDS - BAND    199; K    1; EIG -9.0729636E-02 AU
 INDIRECT ENERGY BAND GAP:   4.1234 eV
 TTTTTTTTTTTTTTTTTTTTTTTTTTTTTT PDIG        TELAPSE      236.54 TCPU     6379.13
 CHARGE NORMALIZATION FACTOR   1.00000000
 TOTAL ATOMIC CHARGES:
   4.4668836   4.4627384   4.4885963   4.5127322   4.4886276   4.5127805
   4.5126649   4.4885275   4.5125256   4.4883800   4.4624928   4.4667096
   0.8784131   0.8658875   0.8660061   0.8785246   0.8836388   0.8788096
   0.8788723   0.8836865   0.8718425   0.8616171   0.8617524   0.8720059
   0.8718495   0.8616322   0.8616983   0.8719356   0.8836426   0.8788123
   0.8789368   0.8837455   0.8783947   0.8658674   0.8659817   0.8784803
   5.9242655   5.9243411   6.1725067   6.1633027   6.1633466   6.1724943
   6.1643515   6.1682602   6.1686045   6.1648232   5.9255442   5.9254166
   5.9456080   5.9485311   6.1651842   6.1816211   6.1819140   6.1654537
   6.1652365   6.1816623   6.1818945   6.1654887   5.9496906   5.9465466
   5.9244237   5.9245059   6.1643057   6.1681802   6.1687072   6.1649548
   6.1724409   6.1632068   6.1633677   6.1725124   5.9254069   5.9252762
   8.4950095   8.4876168   8.4952568   8.4878321   8.5071013   8.4873024
   8.4877273   8.4950613   8.4873598   8.5073373   8.4880037   8.4953230
 TTTTTTTTTTTTTTTTTTTTTTTTTTTTTT MOQGAD      TELAPSE      236.64 TCPU     6379.23
 TTTTTTTTTTTTTTTTTTTTTTTTTTTTTT SHELLXN     TELAPSE      257.15 TCPU     7033.63
 TTTTTTTTTTTTTTTTTTTTTTTTTTTTTT MONMO3      TELAPSE      257.76 TCPU     7053.19
 NUMERICALLY INTEGRATED DENSITY    396.0000200890
 TTTTTTTTTTTTTTTTTTTTTTTTTTTTTT NUMDFT      TELAPSE      259.30 TCPU     7102.28
 CYC   8 ETOT(AU) -2.578237223346E+03 DETOT -5.65E-07 tst  2.61E-08 PX  2.13E-04
 TTTTTTTTTTTTTTTTTTTTTTTTTTTTTT DIIS        TELAPSE      259.58 TCPU     7109.11
 DIIS TEST: 0.19604E-05 AT SCF   CYCLE   8 - DIIS ACTIVE - HISTORY:     8 CYCLES
 TTTTTTTTTTTTTTTTTTTTTTTTTTTTTT FDIK        TELAPSE      261.40 TCPU     7167.00
 INSULATING STATE
 TOP OF VALENCE BANDS -    BAND    198; K    3; EIG -2.4225990E-01 AU
 TOP OF VALENCE BANDS -    BAND    198; K    1; EIG -2.4240554E-01 AU
 BOTTOM OF VIRTUAL BANDS - BAND    199; K    1; EIG -9.0732073E-02 AU
 INDIRECT ENERGY BAND GAP:   4.1233 eV
 TTTTTTTTTTTTTTTTTTTTTTTTTTTTTT PDIG        TELAPSE      262.96 TCPU     7173.94
 CHARGE NORMALIZATION FACTOR   1.00000000
 TOTAL ATOMIC CHARGES:
   4.4668384   4.4628162   4.4886199   4.5127733   4.4886518   4.5128213
   4.5126712   4.4885154   4.5125321   4.4883672   4.4625107   4.4666663
   0.8783663   0.8659019   0.8660027   0.8784939   0.8836648   0.8787534
   0.8788491   0.8837292   0.8718456   0.8615700   0.8617607   0.8719876
   0.8718510   0.8615832   0.8617084   0.8719187   0.8836681   0.8787569
   0.8789128   0.8837886   0.8783472   0.8658819   0.8659780   0.8784503
   5.9244622   5.9246426   6.1725830   6.1632211   6.1632307   6.1725866
   6.1644767   6.1686106   6.1686013   6.1644473   5.9252653   5.9250530
   5.9456381   5.9488525   6.1652264   6.1817799   6.1818938   6.1653571
   6.1652967   6.1818368   6.1818586   6.1653745   5.9495018   5.9462168
   5.9246288   5.9248137   6.1644292   6.1685294   6.1687048   6.1645810
   6.1725255   6.1631320   6.1632460   6.1725959   5.9251218   5.9249038
   8.4950046   8.4875981   8.4952449   8.4878096   8.5072467   8.4874144
   8.4876933   8.4951170   8.4874517   8.5073027   8.4879662   8.4953717
 TTTTTTTTTTTTTTTTTTTTTTTTTTTTTT MOQGAD      TELAPSE      263.06 TCPU     7174.04
 TTTTTTTTTTTTTTTTTTTTTTTTTTTTTT SHELLXN     TELAPSE      283.56 TCPU     7828.11
 +++ ENERGIES IN A.U. +++
 ::: EXT EL-POLE                                  -2.8526767389510E+03
 ::: EXT EL-SPHEROPOLE                             3.2778158505486E+01
 ::: BIELET ZONE E-E                               4.4715437384203E+03
 ::: TOTAL E-E                                     1.6516451579748E+03
 ::: TOTAL E-N + N-E                              -6.9541363557043E+03
 ::: TOTAL N-N                                     4.3183747025745E+02
 ::: KINETIC ENERGY                                2.5598505904613E+03
 ::: PSEUDO TOTAL   ENERGY                        -2.3108031370108E+03
 ::: VIRIAL COEFFICIENT                            1.0511322437162E+00
 TTTTTTTTTTTTTTTTTTTTTTTTTTTTTT MONMO3      TELAPSE      284.17 TCPU     7847.67
 NUMERICALLY INTEGRATED DENSITY    396.0000200877
 EXCHANGE ENERGY: -0.252040881996E+03  CORRELATION ENERGY: -0.153932047257E+02
 TTTTTTTTTTTTTTTTTTTTTTTTTTTTTT NUMDFT      TELAPSE      285.71 TCPU     7896.80
 CYC   9 ETOT(AU) -2.578237223732E+03 DETOT -3.86E-07 tst  4.43E-09 PX  2.13E-04

 == SCF ENDED - CONVERGENCE ON ENERGY      E(AU) -2.5782372237323E+03 CYCLES   9


 ENERGY EXPRESSION=HARTREE+FOCK EXCH*0.00000+(HSESOL     EXCH)*1.00000+PBESOL     CORR


 TOTAL ENERGY(DFT)(AU)(  9) -2.5782372237323E+03 DE-3.9E-07 tester 4.4E-09
 TTTTTTTTTTTTTTTTTTTTTTTTTTTTTT EDFT        TELAPSE      285.71 TCPU     7896.81
 
 INFORMATION **** DFTD3 ENERGY **** CALCULATE DFTD3 ENERGY

           DFT-D V3(BJ)
 DF                                         hsesol3c  
 parameters
 s6       :    1.0000
 s8       :    0.0000
 a1       :    0.5196
 a2       :    4.9385
 k1 k3    :   16.0000   -4.0000
 Cutoff   :   50.2022
 CN-Cutoff:   21.1671
 ABC-Cutoff:   21.1671
 
 Edisp /kcal,au:   -56.1352 -0.08945719

 E6    /kcal :   -60.1245
 E8    /kcal :     0.0000
 E6(ABC) "   :   3.989222
 
 INFORMATION **** DFTD3 ENERGY **** NORMAL TERMINATION OF DFTD3 MODULE

 GCP ENERGY CALCULATION
  level        hsesol3c            basis:hsesol3c
  Nbf            948
  Atoms           84

  Parameters: 
  sigma     1.0000
  eta       1.4281
  alpha     0.2936
  beta      1.9467

  dmp_scal      4.0000
  dmp_exp       6.0000
 cutoffs: 
   distance [bohr] 60.0
   noise    [a.u.] 2.2E-16
 SR-damping   T
 ** gCP correction **
  Egcp:        0.1668345474 / (a.u.) ||     104.6903 / (kcal/mol)
 INFORMATION **** GCP **** NORMAL TERMINATION OF GCP MODULE

 *******************************************************************************

 DFT-D3-GCP DISPERSION AND COUNTERPOISE CORRECTION

 D3 DISPERSION ENERGY (AU)      -8.9457189710725E-02
 GCP ENERGY (AU)                 1.6683454736708E-01
 TOTAL ENERGY + DISP + GCP (AU) -2.5781598463747E+03

 *******************************************************************************

 EIGENVECTORS IN FORTRAN UNIT 10
 TTTTTTTTTTTTTTTTTTTTTTTTTTTTTT END         TELAPSE      289.03 TCPU     7906.07
 EEEEEEEEEE TERMINATION  DATE 19 02 2026 TIME 20:15:01.1
