 Default number of threads is:           32

         
 *******************************************************************************
 *                                                                             *
 *                               CRYSTAL23                                     *
 *                      public : 1.0.1 - October 2022                          *
 *                       HTTP://WWW.CRYSTAL.UNITO.IT                           *
 *                                                                             *
 *                              MAIN AUTHORS                                   *
 *                                                                             *
 *  R. DOVESI(1,11), V.R. SAUNDERS(2), C. ROETTI(1,11), R. ORLANDO(1,11),      *
 *  C.M. ZICOVICH-WILSON(1,3), F. PASCALE(4), B. CIVALLERI(1,11),              *
 *  K. DOLL(5), N.M. HARRISON(6), I.J. BUSH(7), Ph. D'ARCO(8),                 *
 *  M. LLUNELL(9), M. CAUSA'(10), Y. NOEL(8), L. MASCHIO(1,11), A. ERBA(1,11)  *
 *  M. RE'RAT(14), S. CASASSA(1,11), B.G. SEARLE(2), J.K. DESMARAIS(1)         *
 *                                                                             *
 *        CONTRIBUTIONS TO THE CODE HAVE ALSO BEEN GIVEN BY                    *
 *                                                                             *
 *  M. FERRABONE(1,11), M. DE LA PIERRE(1,11), M. FERRERO(1,11),               *
 *  J. BAIMA(1,11), E. ALBANESE(1,11), M.F. PEINTINGER(12), R. BAST(13),       *
 *  B. KIRTMAN(15), V. LACIVITA(1,11), R. DEMICHELIS(1,16)                     *
 *  G. BRANDEBURG(17), S. SALUSTRO(1,11), G. SANSONE(1,11)                     *
 *  M.T. RUGGIERO(18), L.E. DAGA(1), L. DONA'(1), A. COSSARD(1)                *
 *                                                                             *
 * (1) THEORETICAL CHEMISTRY GROUP - UNIVERSITA' DI TORINO - TORINO (ITALY)    *
 * (2) SCIENTIFIC COMPUTING DEPARTMENT - STFC DARESBURY (UK)                   *
 * (3) UNIVERSIDAD AUTONOMA DEL ESTADO DE MORELOS - CUERNAVACA (MEXICO)        *
 * (4) UNIVERSITE' DE LORRAINE - NANCY (FRANCE)                                *
 * (5) UNIVERSITAET STUTTGART- STUTTGART (GERMANY)                             *
 * (6) IMPERIAL COLLEGE - LONDON (UK)                                          *
 * (7) SCIENTIFIC COMPUTING DEPARTMENT - STFC RAL (UK)                         *
 * (8) UPMC - SORBONNE UNIVERSITES - PARIS (FRANCE)                            *
 * (9) UNIVERSIDAD DE BARCELONA - BARCELONA (SPAIN)                            *
 *(10) UNIVERSITA' DI NAPOLI "FEDERICO II" - NAPOLI (ITALY)                    *
 *(11) NIS - NANOSTRUCTURED INTERFACES AND SURFACES - TORINO (ITALY)           *
 *(12) MPI FUER CHEMISCHE ENERGIEKONVERSION - MUELHEIM AN DER RUHR (GERMANY)   *
 *(13) UNIVERSITY OF TROMSO - TROMSO (NORWAY)                                  *
 *(14) UNIVERSITE' DE PAU ET DES PAYS DE L'ADOUR - PAU (FRANCE)                *
 *(15) UNIVERSITY OF CALIFORNIA SANTA BARBARA - SANTA BARBARA (USA)            *
 *(16) CURTIN UNIVERSITY - PERTH (AUSTRALIA)                                   *
 *(17) UNIVERSITY COLLEGE LONDON - LONDON (UK)                                 *
 *(18) UNIVERSITY OF VERMONT - BURLINGTON (USA)                                *
 *                                                                             *
 *******************************************************************************
 EEEEEEEEEE STARTING  DATE 19 02 2026 TIME 18:21:33.6
 cof-1_z34_L087_incl                                                             

 CRYSTAL CALCULATION
 (INPUT ACCORDING TO THE INTERNATIONAL TABLES FOR X-RAY CRYSTALLOGRAPHY)
 CRYSTAL FAMILY                       :  TRICLINIC   
 CRYSTAL CLASS  (GROTH - 1921)        :  TRICLINIC PEDIAL                     

 SPACE GROUP (NONCENTROSYMMETRIC)     :  P 1             

 LATTICE PARAMETERS  (ANGSTROMS AND DEGREES) - CONVENTIONAL CELL
        A           B           C        ALPHA        BETA       GAMMA
    15.02361    15.02392     9.31703    36.26082    89.99998   119.99596


 NUMBER OF IRREDUCIBLE ATOMS IN THE CONVENTIONAL CELL:   42

 INPUT COORDINATES

 ATOM AT. N.              COORDINATES
   1   5     4.465633900000E-01 -1.069500600000E-01  5.013973300000E-01
   2   5     6.056190400000E-01  5.210958000000E-02  5.013973500000E-01
   3   5     4.475436400000E-01  5.406162000000E-02  4.984435100000E-01
   4   5     6.013809000000E-02  2.793649300000E-01  5.013973400000E-01
   5   5     2.192460700000E-01  2.793441700000E-01  5.013973300000E-01
   6   5     2.202108600000E-01  4.404526000000E-01  4.984435200000E-01
   7   1     7.379675700000E-01 -2.125561000000E-02  4.952734600000E-01
   8   1    -6.812940000000E-02  3.614920900000E-01  4.943370100000E-01
   9   1     7.382555300000E-01  2.646071600000E-01  4.941928800000E-01
  10   1    -6.799169000000E-02  7.619571000000E-02  4.942288300000E-01
  11   1     5.228106400000E-01 -2.394736100000E-01  5.047114600000E-01
  12   1     1.403958200000E-01  5.663352400000E-01  5.056479700000E-01
  13   1     2.372880200000E-01 -2.401482300000E-01  5.057921800000E-01
  14   1     4.257423000000E-01  5.661732400000E-01  5.057559900000E-01
  15   1     5.259966800000E-01  2.638685200000E-01  4.952735100000E-01
  16   1     1.441979200000E-01  7.604802000000E-02  4.943369500000E-01
  17   1     2.411247200000E-01 -2.064194000000E-02  4.941927700000E-01
  18   1     4.295629700000E-01  3.614686200000E-01  4.942289400000E-01
  19   6     7.257937000000E-01  1.137167000000E-01  4.983354300000E-01
  20   6     7.813650300000E-01  6.250390000000E-02  4.954175600000E-01
  21   6    -1.116519400000E-01  2.770716200000E-01  4.951655000000E-01
  22   6     7.811599100000E-01  2.230741900000E-01  4.959219700000E-01
  23   6    -1.112174900000E-01  1.169288400000E-01  4.939766700000E-01
  24   6    -5.726830000000E-02  2.233936400000E-01  4.959579500000E-01
  25   6     3.868382100000E-01 -2.262679500000E-01  5.016495200000E-01
  26   6     4.390041300000E-01 -2.828256900000E-01  5.045673200000E-01
  27   6     2.245409000000E-01  6.101134200000E-01  5.048194800000E-01
  28   6     2.782819400000E-01 -2.824425800000E-01  5.040630400000E-01
  29   6     3.850628800000E-01  6.092813400000E-01  5.060081900000E-01
  30   6     2.779342900000E-01  5.559706600000E-01  5.040269800000E-01
  31   6     3.879482600000E-01  1.136475600000E-01  4.983354300000E-01
  32   6     4.420861200000E-01  2.233440100000E-01  4.954176200000E-01
  33   6     2.277833300000E-01  1.160583900000E-01  4.951654400000E-01
  34   6     2.809950900000E-01  6.207204000000E-02  4.959218900000E-01
  35   6     3.890991100000E-01  2.777768300000E-01  4.939767400000E-01
  36   6     2.806557900000E-01  2.233162400000E-01  4.959579500000E-01
  37   8     3.943399100000E-01 -5.245674000000E-02  4.992359900000E-01
  38   8     5.512078300000E-01 -5.660367000000E-02  5.054678600000E-01
  39   8     5.543392000000E-01  1.086094100000E-01  4.960660400000E-01
  40   8     1.139277300000E-01  3.868237100000E-01  4.992360300000E-01
  41   8     1.118701000000E-01  2.237136100000E-01  5.054678600000E-01
  42   8     2.739236300000E-01  3.889213800000E-01  4.960660200000E-01

 *******************************************************************************

 << INFORMATION >>: FROM NOW ON, ALL COORDINATES REFER TO THE PRIMITIVE CELL

 *******************************************************************************

 LATTICE PARAMETERS  (ANGSTROMS AND DEGREES) - PRIMITIVE CELL
       A          B          C        ALPHA      BETA     GAMMA        VOLUME
   15.02361   15.02392    9.31703    36.26082  89.99998 119.99596    664.647374

 COORDINATES OF THE EQUIVALENT ATOMS (FRACTIONAL UNITS)

 N. ATOM EQUIV AT. N.          X                  Y                  Z

   1   1   1    5 B     4.46563390000E-01 -1.06950060000E-01 -4.98602670000E-01

   2   2   1    5 B    -3.94380960000E-01  5.21095800000E-02 -4.98602650000E-01

   3   3   1    5 B     4.47543640000E-01  5.40616200000E-02  4.98443510000E-01

   4   4   1    5 B     6.01380900000E-02  2.79364930000E-01 -4.98602660000E-01

   5   5   1    5 B     2.19246070000E-01  2.79344170000E-01 -4.98602670000E-01

   6   6   1    5 B     2.20210860000E-01  4.40452600000E-01  4.98443520000E-01

   7   7   1    1 H    -2.62032430000E-01 -2.12556100000E-02  4.95273460000E-01

   8   8   1    1 H    -6.81294000000E-02  3.61492090000E-01  4.94337010000E-01

   9   9   1    1 H    -2.61744470000E-01  2.64607160000E-01  4.94192880000E-01

  10  10   1    1 H    -6.79916900000E-02  7.61957100000E-02  4.94228830000E-01

  11  11   1    1 H    -4.77189360000E-01 -2.39473610000E-01 -4.95288540000E-01

  12  12   1    1 H     1.40395820000E-01 -4.33664760000E-01 -4.94352030000E-01

  13  13   1    1 H     2.37288020000E-01 -2.40148230000E-01 -4.94207820000E-01

  14  14   1    1 H     4.25742300000E-01 -4.33826760000E-01 -4.94244010000E-01

  15  15   1    1 H    -4.74003320000E-01  2.63868520000E-01  4.95273510000E-01

  16  16   1    1 H     1.44197920000E-01  7.60480200000E-02  4.94336950000E-01

  17  17   1    1 H     2.41124720000E-01 -2.06419400000E-02  4.94192770000E-01

  18  18   1    1 H     4.29562970000E-01  3.61468620000E-01  4.94228940000E-01

  19  19   1    6 C    -2.74206300000E-01  1.13716700000E-01  4.98335430000E-01

  20  20   1    6 C    -2.18634970000E-01  6.25039000000E-02  4.95417560000E-01

  21  21   1    6 C    -1.11651940000E-01  2.77071620000E-01  4.95165500000E-01

  22  22   1    6 C    -2.18840090000E-01  2.23074190000E-01  4.95921970000E-01

  23  23   1    6 C    -1.11217490000E-01  1.16928840000E-01  4.93976670000E-01

  24  24   1    6 C    -5.72683000000E-02  2.23393640000E-01  4.95957950000E-01

  25  25   1    6 C     3.86838210000E-01 -2.26267950000E-01 -4.98350480000E-01

  26  26   1    6 C     4.39004130000E-01 -2.82825690000E-01 -4.95432680000E-01

  27  27   1    6 C     2.24540900000E-01 -3.89886580000E-01 -4.95180520000E-01

  28  28   1    6 C     2.78281940000E-01 -2.82442580000E-01 -4.95936960000E-01

  29  29   1    6 C     3.85062880000E-01 -3.90718660000E-01 -4.93991810000E-01

  30  30   1    6 C     2.77934290000E-01 -4.44029340000E-01 -4.95973020000E-01

  31  31   1    6 C     3.87948260000E-01  1.13647560000E-01  4.98335430000E-01

  32  32   1    6 C     4.42086120000E-01  2.23344010000E-01  4.95417620000E-01

  33  33   1    6 C     2.27783330000E-01  1.16058390000E-01  4.95165440000E-01

  34  34   1    6 C     2.80995090000E-01  6.20720400000E-02  4.95921890000E-01

  35  35   1    6 C     3.89099110000E-01  2.77776830000E-01  4.93976740000E-01

  36  36   1    6 C     2.80655790000E-01  2.23316240000E-01  4.95957950000E-01

  37  37   1    8 O     3.94339910000E-01 -5.24567400000E-02  4.99235990000E-01

  38  38   1    8 O    -4.48792170000E-01 -5.66036700000E-02 -4.94532140000E-01

  39  39   1    8 O    -4.45660800000E-01  1.08609410000E-01  4.96066040000E-01

  40  40   1    8 O     1.13927730000E-01  3.86823710000E-01  4.99236030000E-01

  41  41   1    8 O     1.11870100000E-01  2.23713610000E-01 -4.94532140000E-01

  42  42   1    8 O     2.73923630000E-01  3.88921380000E-01  4.96066020000E-01

 NUMBER OF SYMMETRY OPERATORS         :    1
 *******************************************************************************
 * GEOMETRY EDITING - INPUT COORDINATES ARE GIVEN IN ANGSTROM         
 *******************************************************************************

 GCALCO - MAX INDICES DIRECT LATTICE VECTOR     9    15    22
 NO.OF VECTORS CREATED 6999 STARS 3500 RMAX   217.73840 BOHR

 GEOMETRY FOR WAVE FUNCTION - DIMENSIONALITY OF THE SYSTEM    3
 (NON PERIODIC DIRECTION: LATTICE PARAMETER FORMALLY SET TO 500)
 *******************************************************************************
 LATTICE PARAMETERS (ANGSTROMS AND DEGREES) - BOHR = 0.5291772083 ANGSTROM
 PRIMITIVE CELL - CENTRING CODE 1/0 VOLUME=   664.647374 - DENSITY  0.975 g/cm^3
         A              B              C           ALPHA      BETA       GAMMA 
    15.02361100    15.02391600     9.31702800    36.260818  89.999979 119.995964
 *******************************************************************************
 ATOMS IN THE ASYMMETRIC UNIT   42 - ATOMS IN THE UNIT CELL:   42
     ATOM                 X/A                 Y/B                 Z/C    
 *******************************************************************************
      1 T   5 B     4.465633900000E-01 -1.069500600000E-01 -4.986026700000E-01
      2 T   5 B    -3.943809600000E-01  5.210958000000E-02 -4.986026500000E-01
      3 T   5 B     4.475436400000E-01  5.406162000000E-02  4.984435100000E-01
      4 T   5 B     6.013809000000E-02  2.793649300000E-01 -4.986026600000E-01
      5 T   5 B     2.192460700000E-01  2.793441700000E-01 -4.986026700000E-01
      6 T   5 B     2.202108600000E-01  4.404526000000E-01  4.984435200000E-01
      7 T   1 H    -2.620324300000E-01 -2.125561000000E-02  4.952734600000E-01
      8 T   1 H    -6.812940000000E-02  3.614920900000E-01  4.943370100000E-01
      9 T   1 H    -2.617444700000E-01  2.646071600000E-01  4.941928800000E-01
     10 T   1 H    -6.799169000000E-02  7.619571000000E-02  4.942288300000E-01
     11 T   1 H    -4.771893600000E-01 -2.394736100000E-01 -4.952885400000E-01
     12 T   1 H     1.403958200000E-01 -4.336647600000E-01 -4.943520300000E-01
     13 T   1 H     2.372880200000E-01 -2.401482300000E-01 -4.942078200000E-01
     14 T   1 H     4.257423000000E-01 -4.338267600000E-01 -4.942440100000E-01
     15 T   1 H    -4.740033200000E-01  2.638685200000E-01  4.952735100000E-01
     16 T   1 H     1.441979200000E-01  7.604802000000E-02  4.943369500000E-01
     17 T   1 H     2.411247200000E-01 -2.064194000000E-02  4.941927700000E-01
     18 T   1 H     4.295629700000E-01  3.614686200000E-01  4.942289400000E-01
     19 T   6 C    -2.742063000000E-01  1.137167000000E-01  4.983354300000E-01
     20 T   6 C    -2.186349700000E-01  6.250390000000E-02  4.954175600000E-01
     21 T   6 C    -1.116519400000E-01  2.770716200000E-01  4.951655000000E-01
     22 T   6 C    -2.188400900000E-01  2.230741900000E-01  4.959219700000E-01
     23 T   6 C    -1.112174900000E-01  1.169288400000E-01  4.939766700000E-01
     24 T   6 C    -5.726830000000E-02  2.233936400000E-01  4.959579500000E-01
     25 T   6 C     3.868382100000E-01 -2.262679500000E-01 -4.983504800000E-01
     26 T   6 C     4.390041300000E-01 -2.828256900000E-01 -4.954326800000E-01
     27 T   6 C     2.245409000000E-01 -3.898865800000E-01 -4.951805200000E-01
     28 T   6 C     2.782819400000E-01 -2.824425800000E-01 -4.959369600000E-01
     29 T   6 C     3.850628800000E-01 -3.907186600000E-01 -4.939918100000E-01
     30 T   6 C     2.779342900000E-01 -4.440293400000E-01 -4.959730200000E-01
     31 T   6 C     3.879482600000E-01  1.136475600000E-01  4.983354300000E-01
     32 T   6 C     4.420861200000E-01  2.233440100000E-01  4.954176200000E-01
     33 T   6 C     2.277833300000E-01  1.160583900000E-01  4.951654400000E-01
     34 T   6 C     2.809950900000E-01  6.207204000000E-02  4.959218900000E-01
     35 T   6 C     3.890991100000E-01  2.777768300000E-01  4.939767400000E-01
     36 T   6 C     2.806557900000E-01  2.233162400000E-01  4.959579500000E-01
     37 T   8 O     3.943399100000E-01 -5.245674000000E-02  4.992359900000E-01
     38 T   8 O    -4.487921700000E-01 -5.660367000000E-02 -4.945321400000E-01
     39 T   8 O    -4.456608000000E-01  1.086094100000E-01  4.960660400000E-01
     40 T   8 O     1.139277300000E-01  3.868237100000E-01  4.992360300000E-01
     41 T   8 O     1.118701000000E-01  2.237136100000E-01 -4.945321400000E-01
     42 T   8 O     2.739236300000E-01  3.889213800000E-01  4.960660200000E-01

 T = ATOM BELONGING TO THE ASYMMETRIC UNIT

 ****    1 SYMMOPS - TRANSLATORS IN FRACTIONAL UNITS
 **** MATRICES AND TRANSLATORS IN THE CRYSTALLOGRAPHIC REFERENCE FRAME
   V INV                    ROTATION MATRICES                   TRANSLATORS
   1   1  1.00 -0.00  0.00  0.00  1.00  0.00 -0.00 -0.00  1.00  0.00  0.00  0.00

 DIRECT LATTICE VECTORS CARTESIAN COMPONENTS (ANGSTROM)
          X                    Y                    Z
   0.130113578931E+02  -0.751088897922E+01   0.000000000000E+00
   0.000000000000E+00   0.150239160000E+02   0.000000000000E+00
   0.433671537504E+01   0.751262662482E+01   0.340005172089E+01


 CARTESIAN COORDINATES - PRIMITIVE CELL
 *******************************************************************************
 *      ATOM          X(ANGSTROM)         Y(ANGSTROM)         Z(ANGSTROM)
 *******************************************************************************
    1     5 B    -6.886171508412E-01 -1.195423080775E+00 -5.095326587060E+00
    2     5 B     1.380912922956E+00 -3.735888395974E-04 -5.095326519059E+00
    3     5 B    -6.898844118066E-01  1.194986232540E+00  5.094785434828E+00
    4     5 B    -1.379819609664E+00 -3.508944681273E-04 -1.695274832172E+00
    5     5 B     6.903912183902E-01 -1.195705239578E+00 -1.695274866173E+00
    6     5 B     6.901346131299E-01  1.195336977405E+00 -1.705317972946E+00
    7     1 H    -1.261537697485E+00  5.369558573678E+00  1.683955379983E+00
    8     1 H    -3.079372469762E+00  2.143881912585E+00 -1.719280319339E+00
    9     1 H    -1.262477114766E+00 -5.369860011983E+00  1.680281352094E+00
   10     1 H    -3.078049821536E+00 -2.144233976109E+00 -1.719648136934E+00
   11     1 H    -4.020091597177E+00  3.777993656414E+00  1.716045068125E+00
   12     1 H    -3.171237884750E-01  3.740193433822E+00 -1.680822470326E+00
   13     1 H     5.280916075537E+00 -1.590383011293E+00  1.719719572021E+00
   14     1 H     3.396089838324E+00  1.595365341468E+00 -1.680455196739E+00
   15     1 H    -4.019566593349E+00 -3.778586250382E+00  1.683955549986E+00
   16     1 H    -3.167059789712E-01 -3.739373196325E+00 -1.719280523342E+00
   17     1 H     5.280533412677E+00  1.591501986994E+00  1.680280978089E+00
   18     1 H     3.395812408121E+00 -1.595394725156E+00 -1.719647762928E+00
   19     6 C     2.930057990420E+00  5.218696274657E-04  5.094417957238E+00
   20     6 C    -5.032968268132E+00 -1.209543143244E+00 -1.715606393452E+00
   21     6 C    -3.642066888796E+00  1.208672964691E+00 -1.716463410488E+00
   22     6 C    -5.033449675261E+00  1.208181483355E+00 -1.713891373363E+00
   23     6 C    -3.641569721698E+00 -1.209493051663E+00 -1.720505493976E+00
   24     6 C    -2.931025255130E+00 -2.965992359567E-04 -1.713769039502E+00
   25     6 C    -1.464629166798E+00 -2.537561231880E+00 -5.094469128017E+00
   26     6 C     3.563489331306E+00  3.755454566377E+00 -1.684496736218E+00
   27     6 C     7.741250370238E-01  3.759684642715E+00 -1.683639379176E+00
   28     6 C     1.470088477031E+00  4.964588437068E+00 -1.686211314300E+00
   29     6 C     2.867889065439E+00  2.550451106581E+00 -1.679597703695E+00
   30     6 C     1.465408696503E+00  2.539262783353E+00 -1.686333920165E+00
   31     6 C    -1.465769941957E+00  2.537002708050E+00  5.094417957238E+00
   32     6 C     3.563910561552E+00 -3.755697143632E+00 -1.715606189449E+00
   33     6 C     7.744466304977E-01 -3.759837357076E+00 -1.716463614492E+00
   34     6 C     1.470084392323E+00 -4.964908439961E+00 -1.713891645367E+00
   35     6 C     2.868228924309E+00 -2.550748272310E+00 -1.720505255972E+00
   36     6 C     1.465826020546E+00 -2.539569773727E+00 -1.713769039502E+00
   37     8 O    -1.378700423882E+00  2.242551001992E-04  5.097479907816E+00
   38     8 O     6.906018395528E-01 -1.194415545589E+00 -5.081486574529E+00
   39     8 O     6.893604300401E-01  1.194517008431E+00  5.086701913864E+00
   40     8 O    -6.893163389925E-01  1.193855660392E+00 -1.702623397957E+00
   41     8 O    -6.890632263583E-01 -1.194424738290E+00 -1.681434853641E+00
   42     8 O     1.378700146223E+00 -1.556652892014E-04 -1.713401595913E+00

 *******************************************************************************
 STARTING BASIS SET HANDLING 
 *******************************************************************************

 Loading internal basis set: SOLDEF2MSVP         

 Please cite in your publication:
 L. Dona', J. G. Brandenburg and B. Civalleri, J. Chem. Phys., 151, 121101 (2019
 )                                                                              
                                                                                
                    

 *******************************************************************************
 LOCAL ATOMIC FUNCTIONS BASIS SET
 *******************************************************************************
   ATOM   X(AU)   Y(AU)   Z(AU)  N. TYPE  EXPONENT  S COEF   P COEF   D/F/G COEF
 *******************************************************************************
   1 B   -1.301  -2.259  -9.629
                                  1 S  
                                         2.410E+03 1.755E-03 0.000E+00 0.000E+00
                                         3.619E+02 1.344E-02 0.000E+00 0.000E+00
                                         8.231E+01 6.637E-02 0.000E+00 0.000E+00
                                         2.311E+01 2.303E-01 0.000E+00 0.000E+00
                                         7.252E+00 5.150E-01 0.000E+00 0.000E+00
                                  2 S  
                                         2.367E+00 1.000E+00 0.000E+00 0.000E+00
                                  3 S  
                                         5.533E-01 1.000E+00 0.000E+00 0.000E+00
                                  4 S  
                                         1.716E-01 1.000E+00 0.000E+00 0.000E+00
                           5-     7 P  
                                         6.002E+00 0.000E+00-3.555E-02 0.000E+00
                                         1.240E+00 0.000E+00-1.983E-01 0.000E+00
                                         3.367E-01 0.000E+00-5.048E-01 0.000E+00
                           8-    10 P  
                                         1.256E-01 0.000E+00 1.000E+00 0.000E+00
                          11-    15 D  
                                         8.880E-01 0.000E+00 0.000E+00 1.000E+00
   2 B    2.610  -0.001  -9.629
   3 B   -1.304   2.258   9.628
   4 B   -2.607  -0.001  -3.204
   5 B    1.305  -2.260  -3.204
   6 B    1.304   2.259  -3.223
   7 H   -2.384  10.147   3.182
                                 91 S  
                                         1.874E+01 1.968E-02 0.000E+00 0.000E+00
                                         2.826E+00 1.380E-01 0.000E+00 0.000E+00
                                         6.401E-01 4.783E-01 0.000E+00 0.000E+00
                                 92 S  
                                         1.756E-01 1.000E+00 0.000E+00 0.000E+00
   8 H   -5.819   4.051  -3.249
   9 H   -2.386 -10.148   3.175
  10 H   -5.817  -4.052  -3.250
  11 H   -7.597   7.139   3.243
  12 H   -0.599   7.068  -3.176
  13 H    9.979  -3.005   3.250
  14 H    6.418   3.015  -3.176
  15 H   -7.596  -7.140   3.182
  16 H   -0.598  -7.066  -3.249
  17 H    9.979   3.008   3.175
  18 H    6.417  -3.015  -3.250
  19 C    5.537   0.001   9.627
                                115 S  
                                         3.624E+03 1.634E-03 0.000E+00 0.000E+00
                                         5.440E+02 1.252E-02 0.000E+00 0.000E+00
                                         1.237E+02 6.211E-02 0.000E+00 0.000E+00
                                         3.476E+01 2.182E-01 0.000E+00 0.000E+00
                                         1.093E+01 4.980E-01 0.000E+00 0.000E+00
                                116 S  
                                         3.574E+00 1.000E+00 0.000E+00 0.000E+00
                                117 S  
                                         7.742E-01 1.000E+00 0.000E+00 0.000E+00
                                118 S  
                                         2.330E-01 1.000E+00 0.000E+00 0.000E+00
                         119-   121 P  
                                         9.443E+00 0.000E+00 3.790E-02 0.000E+00
                                         2.002E+00 0.000E+00 2.082E-01 0.000E+00
                                         5.463E-01 0.000E+00 5.047E-01 0.000E+00
                         122-   124 P  
                                         1.820E-01 0.000E+00 1.000E+00 0.000E+00
                         125-   129 D  
                                         8.880E-01 0.000E+00 0.000E+00 1.000E+00
  20 C   -9.511  -2.286  -3.242
  21 C   -6.883   2.284  -3.244
  22 C   -9.512   2.283  -3.239
  23 C   -6.882  -2.286  -3.251
  24 C   -5.539  -0.001  -3.239
  25 C   -2.768  -4.795  -9.627
  26 C    6.734   7.097  -3.183
  27 C    1.463   7.105  -3.182
  28 C    2.778   9.382  -3.186
  29 C    5.420   4.820  -3.174
  30 C    2.769   4.799  -3.187
  31 C   -2.770   4.794   9.627
  32 C    6.735  -7.097  -3.242
  33 C    1.463  -7.105  -3.244
  34 C    2.778  -9.382  -3.239
  35 C    5.420  -4.820  -3.251
  36 C    2.770  -4.799  -3.239
  37 O   -2.605   0.000   9.633
                                385 S  
                                         6.773E+03 1.727E-03 0.000E+00 0.000E+00
                                         1.017E+03 1.325E-02 0.000E+00 0.000E+00
                                         2.313E+02 6.603E-02 0.000E+00 0.000E+00
                                         6.501E+01 2.353E-01 0.000E+00 0.000E+00
                                         2.050E+01 5.498E-01 0.000E+00 0.000E+00
                                386 S  
                                         6.716E+00 1.000E+00 0.000E+00 0.000E+00
                                387 S  
                                         1.147E+00 1.000E+00 0.000E+00 0.000E+00
                                388 S  
                                         3.342E-01 1.000E+00 0.000E+00 0.000E+00
                         389-   391 P  
                                         1.769E+01 0.000E+00 4.359E-02 0.000E+00
                                         3.854E+00 0.000E+00 2.318E-01 0.000E+00
                                         1.047E+00 0.000E+00 5.146E-01 0.000E+00
                         392-   394 P  
                                         2.759E-01 0.000E+00 1.000E+00 0.000E+00
                         395-   399 D  
                                         8.000E-01 0.000E+00 0.000E+00 1.000E+00
  38 O    1.305  -2.257  -9.603
  39 O    1.303   2.257   9.612
  40 O   -1.303   2.256  -3.217
  41 O   -1.302  -2.257  -3.177
  42 O    2.605  -0.000  -3.238

 *******************************************************************************
 FINISHED BASIS SET HANDLING 
 *******************************************************************************

 INFORMATION **** SET_MPP **** PCRYSTAL CALCULATION
 INFORMATION **** READM2 **** NEW DEFAULT: FOCK/KS MATRIX MIXING SET TO 30 %
 INFORMATION **** READM2 **** NEW DEFAULT: FULL DIRECT SCF MODE
 INFORMATION **** READM2 **** NEW DEFAULT: COULOMB BIPOLAR BUFFER SET TO 32 Mb
 INFORMATION **** READM2 **** NEW DEFAULT: EXCHANGE BIPOLAR BUFFER SET TO 32 Mb

 *******************************************************************************
 NEW DEFAULT: DFT INTEGRATION GRID INCREASED TO XLGRID
 NEW DEFAULT: DIIS ACCELERATOR ACTIVE
 USE KEYWORD NODIIS TO TURN IT OFF
 *******************************************************************************

 WARNING **** RDDFTP **** HSEsol-HJS ACTIVE
 RANGE SEPARATION - OMEGA:   0.110000000000000     
 WARNING **** RDDFTP **** HSEsol-3c has to be combined with sol-def2-mSVP basis set
 *******************************************************************************
 N. OF ATOMS PER CELL        42  COULOMB OVERLAP TOL         (T1) 10**   -6
 NUMBER OF SHELLS           234  COULOMB PENETRATION TOL     (T2) 10**   -6
 NUMBER OF AO               474  EXCHANGE OVERLAP TOL        (T3) 10**   -6
 N. OF ELECTRONS PER CELL   198  EXCHANGE PSEUDO OVP (F(G))  (T4) 10**   -6
 CORE ELECTRONS PER CELL     60  EXCHANGE PSEUDO OVP (P(G))  (T5) 10**  -12
 N. OF SYMMETRY OPERATORS     1  POLE ORDER IN MONO ZONE                  4
 *******************************************************************************
 TYPE OF CALCULATION :  RESTRICTED CLOSED SHELL
 KOHN-SHAM HAMILTONIAN

 (EXCHANGE)[CORRELATION] FUNCTIONAL:(HSEsol GGA)[PBEsol]

 RANGE-SEPARATED HYBRID FUNCTIONAL 
 OMEGA (SHORT-RANGE)[LONG-RANGE]:(    0.1100)[    0.0000]

 HYBRID EXCHANGE - PERCENTAGE OF FOCK EXCHANGE    25.0000

 CAPPA:IS1  2;IS2  2;IS3  8; K PTS MONK NET  20; SYMMOPS:K SPACE   2;G SPACE   1

 *******************************************************************************
 MAX NUMBER OF SCF CYCLES      50  CONVERGENCE ON DELTAP        10**-16
 WEIGHT OF F(I) IN F(I+1)      30% CONVERGENCE ON ENERGY        10**- 6
 SHRINK. FACT.(MONKH.)    2  2  8  NUMBER OF K POINTS IN THE IBZ     20
 SHRINKING FACTOR(GILAT NET)    8  NUMBER OF K POINTS(GILAT NET)   1028
 *******************************************************************************
 *** K POINTS COORDINATES (OBLIQUE COORDINATES IN UNITS OF IS =  2)
   1-R(  0  0  0)   2-R(  1  0  0)   3-R(  0  1  0)   4-R(  1  1  0)
   5-C(  0  0  1)   6-C(  1  0  1)   7-C(  0  1  1)   8-C(  1  1  1)
   9-C(  0  0  2)  10-C(  1  0  2)  11-C(  0  1  2)  12-C(  1  1  2)
  13-C(  0  0  3)  14-C(  1  0  3)  15-C(  0  1  3)  16-C(  1  1  3)
  17-R(  0  0  4)  18-R(  1  0  4)  19-R(  0  1  4)  20-R(  1  1  4)

 DIRECT LATTICE VECTORS COMPON. (A.U.)     RECIP. LATTICE VECTORS COMPON. (A.U.) 
        X            Y            Z              X            Y            Z
   24.5879030  -14.1935232    0.0000000      0.2555397    0.0000000   -0.3259371
    0.0000000   28.3910867    0.0000000      0.1277517    0.2213084   -0.6519400
    8.1952044   14.1968069    6.4251666      0.0000000    0.0000000    0.9779023

 DISK SPACE FOR EIGENVECTORS (FTN 10)     7189632 REALS

 SYMMETRY ADAPTION OF THE BLOCH FUNCTIONS DISABLED
 TTTTTTTTTTTTTTTTTTTTTTTTTTTTTT gordsh1     TELAPSE        0.04 TCPU        0.04

 MATRIX SIZE: P(G)  338152, F(G)   64420, P(G) IRR  170225, F(G) IRR   64900
 MAX G-VECTOR INDEX FOR 1- AND 2-ELECTRON INTEGRALS  59

 TTTTTTTTTTTTTTTTTTTTTTTTTTTTTT INPUT       TELAPSE        0.43 TCPU        0.43

 NEIGHBORS OF THE NON-EQUIVALENT ATOMS

 N = NUMBER OF NEIGHBORS AT DISTANCE R
    ATOM  N     R/ANG      R/AU   NEIGHBORS (ATOM LABELS AND CELL INDICES)
   1 B    1     1.3791     2.6061   37 O    1 2-3
   1 B    1     1.3793     2.6065   38 O    0 0 0
   1 B    1     1.5503     2.9297   25 C    0 0 0
   1 B    1     2.3895     4.5155    3 B    1 2-3
   1 B    1     2.3898     4.5160    2 B    0 0 0
   1 B    1     2.5632     4.8437   26 C    0 0-1

   2 B    1     1.3793     2.6065   39 O    1 2-3
   2 B    1     1.3793     2.6065   38 O    0 0 0
   2 B    1     1.5504     2.9298   19 C    1 2-3
   2 B    1     2.3895     4.5156    3 B    1 2-3
   2 B    1     2.3898     4.5160    1 B    0 0 0
   2 B    1     2.5634     4.8440   22 C    1 1-1

   3 B    1     1.3791     2.6061   37 O    0 0 0
   3 B    1     1.3793     2.6064   39 O    0 0 0
   3 B    1     1.5502     2.9294   31 C    0 0 0
   3 B    1     2.3895     4.5155    1 B   -1-2 3
   3 B    1     2.3895     4.5156    2 B   -1-2 3
   3 B    1     2.5629     4.8433   32 C   -1-1 2

   4 B    1     1.3795     2.6068   40 O    0 0 0
   4 B    1     1.3795     2.6070   41 O    0 0 0
   4 B    1     1.5513     2.9316   24 C    0 0 0
   4 B    1     2.3905     4.5174    6 B    0 0 0
   4 B    1     2.3905     4.5175    5 B    0 0 0
   4 B    1     2.5648     4.8468   23 C    0 0 0

   5 B    1     1.3795     2.6069   41 O    0 0 0
   5 B    1     1.3797     2.6072   42 O    0 0 0
   5 B    1     1.5516     2.9322   36 C    0 0 0
   5 B    1     2.3905     4.5175    4 B    0 0 0
   5 B    1     2.3911     4.5185    6 B    0 0 0
   5 B    1     2.5651     4.8473   35 C    0 0 0

   6 B    1     1.3795     2.6068   40 O    0 0 0
   6 B    1     1.3796     2.6071   42 O    0 0 0
   6 B    1     1.5516     2.9322   30 C    0 0 0
   6 B    1     2.3905     4.5174    4 B    0 0 0
   6 B    1     2.3911     4.5185    5 B    0 0 0
   6 B    1     2.5651     4.8473   29 C    0 0 0

   7 H    1     1.0913     2.0623   20 C    0 0 1
   7 H    1     2.1472     4.0576   19 C    0 1-1
   7 H    1     2.1680     4.0969   23 C    0 0 1
   7 H    1     2.5202     4.7625   10 H    0 0 1
   7 H    1     2.5676     4.8520   38 O   -1-1 2
   7 H    1     2.7321     5.1630    2 B   -1-1 2

   8 H    1     1.0914     2.0625   21 C    0 0 0
   8 H    1     2.1493     4.0616   24 C    0 0 0
   8 H    1     2.1666     4.0942   22 C    0 0 0
   8 H    1     2.5198     4.7618    9 H    0 1-1
   8 H    1     2.5720     4.8604   40 O    0 0 0
   8 H    1     2.7362     5.1707    4 B    0 0 0

   9 H    1     1.0914     2.0624   22 C    0-1 1
   9 H    1     2.1471     4.0575   19 C    0 0-1
   9 H    1     2.1680     4.0970   21 C    0-1 1
   9 H    1     2.5198     4.7618    8 H    0-1 1
   9 H    1     2.5665     4.8500   39 O    0 0-1
   9 H    1     2.7315     5.1618    2 B   -1-2 2

  10 H    1     1.0915     2.0626   23 C    0 0 0
  10 H    1     2.1490     4.0610   24 C    0 0 0
  10 H    1     2.1669     4.0948   20 C    0 0 0
  10 H    1     2.5202     4.7625    7 H    0 0-1
  10 H    1     2.5712     4.8588   41 O    0 0 0
  10 H    1     2.7351     5.1686    4 B    0 0 0

  11 H    1     1.0913     2.0623   26 C   -1-1 1
  11 H    1     2.1469     4.0571   25 C   -1-1 2
  11 H    1     2.1680     4.0968   29 C   -1-1 1
  11 H    1     2.5198     4.7617   14 H   -1-1 1
  11 H    1     2.5670     4.8510   38 O   -1-1 2
  11 H    1     2.7310     5.1609    1 B   -1-1 2

  12 H    1     1.0914     2.0625   27 C    0 0 0
  12 H    1     2.1493     4.0617   30 C    0 0 0
  12 H    1     2.1664     4.0939   28 C    0 0 0
  12 H    1     2.5192     4.7606   13 H    0 1-1
  12 H    1     2.5735     4.8632   40 O    0 0 0
  12 H    1     2.7371     5.1723    6 B    0 0 0

  13 H    1     1.0914     2.0624   28 C    0-1 1
  13 H    1     2.1475     4.0581   25 C    0-1 2
  13 H    1     2.1679     4.0967   27 C    0-1 1
  13 H    1     2.5192     4.7606   12 H    0-1 1
  13 H    1     2.5675     4.8519   37 O    1 1-1
  13 H    1     2.7328     5.1643    1 B    0-1 2

  14 H    1     1.0914     2.0625   29 C    0 0 0
  14 H    1     2.1491     4.0612   30 C    0 0 0
  14 H    1     2.1666     4.0942   26 C    0 0 0
  14 H    1     2.5198     4.7617   11 H    1 1-1
  14 H    1     2.5723     4.8609   42 O    0 0 0
  14 H    1     2.7355     5.1693    6 B    0 0 0

  15 H    1     1.0914     2.0624   32 C   -1-1 1
  15 H    1     2.1475     4.0582   31 C    0 0-1
  15 H    1     2.1678     4.0966   35 C   -1-1 1
  15 H    1     2.5200     4.7621   18 H   -1-1 1
  15 H    1     2.5667     4.8503   39 O    0 0-1
  15 H    1     2.7315     5.1618    3 B    0 0-1

  16 H    1     1.0913     2.0623   33 C    0 0 0
  16 H    1     2.1487     4.0605   36 C    0 0 0
  16 H    1     2.1667     4.0945   34 C    0 0 0
  16 H    1     2.5197     4.7616   17 H    0 0-1
  16 H    1     2.5723     4.8610   41 O    0 0 0
  16 H    1     2.7359     5.1701    5 B    0 0 0

  17 H    1     1.0915     2.0626   34 C    0 0 1
  17 H    1     2.1479     4.0589   31 C    1 1-1
  17 H    1     2.1679     4.0968   33 C    0 0 1
  17 H    1     2.5197     4.7616   16 H    0 0 1
  17 H    1     2.5677     4.8522   37 O    1 1-1
  17 H    1     2.7331     5.1648    3 B    1 1-1

  18 H    1     1.0914     2.0624   35 C    0 0 0
  18 H    1     2.1486     4.0602   36 C    0 0 0
  18 H    1     2.1668     4.0947   32 C    0 0 0
  18 H    1     2.5200     4.7621   15 H    1 1-1
  18 H    1     2.5717     4.8598   42 O    0 0 0
  18 H    1     2.7349     5.1682    5 B    0 0 0

  19 C    1     1.4020     2.6495   22 C    0-1 2
  19 C    1     1.4021     2.6495   20 C    0-1 2
  19 C    1     1.5504     2.9298    2 B   -1-2 3
  19 C    1     2.1471     4.0575    9 H    0 0 1
  19 C    1     2.1472     4.0576    7 H    0-1 1
  19 C    1     2.4246     4.5817   21 C    0-1 2

  20 C    1     1.0913     2.0623    7 H    0 0-1
  20 C    1     1.3914     2.6294   23 C    0 0 0
  20 C    1     1.4021     2.6495   19 C    0 1-2
  20 C    1     2.1669     4.0948   10 H    0 0 0
  20 C    1     2.4177     4.5688   22 C    0 0 0
  20 C    1     2.4250     4.5825   24 C    0 0 0

  21 C    1     1.0914     2.0625    8 H    0 0 0
  21 C    1     1.3914     2.6293   22 C    0 0 0
  21 C    1     1.4026     2.6505   24 C    0 0 0
  21 C    1     2.1680     4.0970    9 H    0 1-1
  21 C    1     2.4182     4.5697   23 C    0 0 0
  21 C    1     2.4246     4.5817   19 C    0 1-2

  22 C    1     1.0914     2.0624    9 H    0 1-1
  22 C    1     1.3914     2.6293   21 C    0 0 0
  22 C    1     1.4020     2.6495   19 C    0 1-2
  22 C    1     2.1666     4.0942    8 H    0 0 0
  22 C    1     2.4177     4.5688   20 C    0 0 0
  22 C    1     2.4250     4.5826   24 C    0 0 0

  23 C    1     1.0915     2.0626   10 H    0 0 0
  23 C    1     1.3914     2.6294   20 C    0 0 0
  23 C    1     1.4025     2.6504   24 C    0 0 0
  23 C    1     2.1680     4.0969    7 H    0 0-1
  23 C    1     2.4182     4.5697   21 C    0 0 0
  23 C    1     2.4246     4.5818   19 C    0 1-2

  24 C    1     1.4025     2.6504   23 C    0 0 0
  24 C    1     1.4026     2.6505   21 C    0 0 0
  24 C    1     1.5513     2.9316    4 B    0 0 0
  24 C    1     2.1490     4.0610   10 H    0 0 0
  24 C    1     2.1493     4.0616    8 H    0 0 0
  24 C    1     2.4250     4.5825   20 C    0 0 0

  25 C    1     1.4020     2.6494   26 C    0 0-1
  25 C    1     1.4021     2.6495   28 C    0 0-1
  25 C    1     1.5503     2.9297    1 B    0 0 0
  25 C    1     2.1469     4.0571   11 H    1 1-2
  25 C    1     2.1475     4.0581   13 H    0 1-2
  25 C    1     2.4246     4.5818   27 C    0 0-1

  26 C    1     1.0913     2.0623   11 H    1 1-1
  26 C    1     1.3914     2.6293   29 C    0 0 0
  26 C    1     1.4020     2.6494   25 C    0 0 1
  26 C    1     2.1666     4.0942   14 H    0 0 0
  26 C    1     2.4175     4.5684   28 C    0 0 0
  26 C    1     2.4251     4.5828   30 C    0 0 0

  27 C    1     1.0914     2.0625   12 H    0 0 0
  27 C    1     1.3915     2.6295   28 C    0 0 0
  27 C    1     1.4026     2.6505   30 C    0 0 0
  27 C    1     2.1679     4.0967   13 H    0 1-1
  27 C    1     2.4179     4.5691   29 C    0 0 0
  27 C    1     2.4246     4.5818   25 C    0 0 1

  28 C    1     1.0914     2.0624   13 H    0 1-1
  28 C    1     1.3915     2.6295   27 C    0 0 0
  28 C    1     1.4021     2.6495   25 C    0 0 1
  28 C    1     2.1664     4.0939   12 H    0 0 0
  28 C    1     2.4175     4.5684   26 C    0 0 0
  28 C    1     2.4253     4.5832   30 C    0 0 0

  29 C    1     1.0914     2.0625   14 H    0 0 0
  29 C    1     1.3914     2.6293   26 C    0 0 0
  29 C    1     1.4025     2.6504   30 C    0 0 0
  29 C    1     2.1680     4.0968   11 H    1 1-1
  29 C    1     2.4179     4.5691   27 C    0 0 0
  29 C    1     2.4247     4.5819   25 C    0 0 1

  30 C    1     1.4025     2.6504   29 C    0 0 0
  30 C    1     1.4026     2.6505   27 C    0 0 0
  30 C    1     1.5516     2.9322    6 B    0 0 0
  30 C    1     2.1491     4.0612   14 H    0 0 0
  30 C    1     2.1493     4.0617   12 H    0 0 0
  30 C    1     2.4251     4.5828   26 C    0 0 0

  31 C    1     1.4021     2.6496   32 C   -1-1 2
  31 C    1     1.4021     2.6497   34 C   -1-1 2
  31 C    1     1.5502     2.9294    3 B    0 0 0
  31 C    1     2.1475     4.0582   15 H    0 0 1
  31 C    1     2.1479     4.0589   17 H   -1-1 1
  31 C    1     2.4244     4.5814   33 C   -1-1 2

  32 C    1     1.0914     2.0624   15 H    1 1-1
  32 C    1     1.3914     2.6293   35 C    0 0 0
  32 C    1     1.4021     2.6496   31 C    1 1-2
  32 C    1     2.1668     4.0947   18 H    0 0 0
  32 C    1     2.4179     4.5692   34 C    0 0 0
  32 C    1     2.4251     4.5827   36 C    0 0 0

  33 C    1     1.0913     2.0623   16 H    0 0 0
  33 C    1     1.3914     2.6294   34 C    0 0 0
  33 C    1     1.4025     2.6504   36 C    0 0 0
  33 C    1     2.1679     4.0968   17 H    0 0-1
  33 C    1     2.4178     4.5690   35 C    0 0 0
  33 C    1     2.4244     4.5814   31 C    1 1-2

  34 C    1     1.0915     2.0626   17 H    0 0-1
  34 C    1     1.3914     2.6294   33 C    0 0 0
  34 C    1     1.4021     2.6497   31 C    1 1-2
  34 C    1     2.1667     4.0945   16 H    0 0 0
  34 C    1     2.4179     4.5692   32 C    0 0 0
  34 C    1     2.4253     4.5832   36 C    0 0 0

  35 C    1     1.0914     2.0624   18 H    0 0 0
  35 C    1     1.3914     2.6293   32 C    0 0 0
  35 C    1     1.4025     2.6503   36 C    0 0 0
  35 C    1     2.1678     4.0966   15 H    1 1-1
  35 C    1     2.4178     4.5690   33 C    0 0 0
  35 C    1     2.4245     4.5817   31 C    1 1-2

  36 C    1     1.4025     2.6503   35 C    0 0 0
  36 C    1     1.4025     2.6504   33 C    0 0 0
  36 C    1     1.5516     2.9322    5 B    0 0 0
  36 C    1     2.1486     4.0602   18 H    0 0 0
  36 C    1     2.1487     4.0605   16 H    0 0 0
  36 C    1     2.4251     4.5827   32 C    0 0 0

  37 O    1     1.3791     2.6061    3 B    0 0 0
  37 O    1     1.3791     2.6061    1 B   -1-2 3
  37 O    1     2.3880     4.5126   38 O   -1-2 3
  37 O    1     2.3882     4.5130   39 O    0 0 0
  37 O    1     2.5383     4.7966   31 C    0 0 0
  37 O    1     2.5384     4.7968   25 C   -1-2 3

  38 O    1     1.3793     2.6065    1 B    0 0 0
  38 O    1     1.3793     2.6065    2 B    0 0 0
  38 O    1     2.3880     4.5126   37 O    1 2-3
  38 O    1     2.3882     4.5131   39 O    1 2-3
  38 O    1     2.5391     4.7981   19 C    1 2-3
  38 O    1     2.5395     4.7990   25 C    0 0 0

  39 O    1     1.3793     2.6064    3 B    0 0 0
  39 O    1     1.3793     2.6065    2 B   -1-2 3
  39 O    1     2.3882     4.5130   37 O    0 0 0
  39 O    1     2.3882     4.5131   38 O   -1-2 3
  39 O    1     2.5390     4.7980   19 C    0 0 0
  39 O    1     2.5391     4.7982   31 C    0 0 0

  40 O    1     1.3795     2.6068    6 B    0 0 0
  40 O    1     1.3795     2.6068    4 B    0 0 0
  40 O    1     2.3880     4.5126   42 O    0 0 0
  40 O    1     2.3884     4.5134   41 O    0 0 0
  40 O    1     2.5400     4.7998   24 C    0 0 0
  40 O    1     2.5403     4.8005   30 C    0 0 0

  41 O    1     1.3795     2.6069    5 B    0 0 0
  41 O    1     1.3795     2.6070    4 B    0 0 0
  41 O    1     2.3881     4.5128   42 O    0 0 0
  41 O    1     2.3884     4.5134   40 O    0 0 0
  41 O    1     2.5404     4.8006   24 C    0 0 0
  41 O    1     2.5405     4.8008   36 C    0 0 0

  42 O    1     1.3796     2.6071    6 B    0 0 0
  42 O    1     1.3797     2.6072    5 B    0 0 0
  42 O    1     2.3880     4.5126   40 O    0 0 0
  42 O    1     2.3881     4.5128   41 O    0 0 0
  42 O    1     2.5409     4.8016   36 C    0 0 0
  42 O    1     2.5410     4.8019   30 C    0 0 0


 SYMMETRY ALLOWED INTERNAL DEGREE(S) OF FREEDOM: 123
 TTTTTTTTTTTTTTTTTTTTTTTTTTTTTT SYMM        TELAPSE        0.44 TCPU        0.44
 TTTTTTTTTTTTTTTTTTTTTTTTTTTTTT INT_SCREEN  TELAPSE        0.47 TCPU        0.47

 DFT PARAMETERS

     ATOM       ELECTRONS   NET CHARGE   R(ANGSTROM)
   1   5  B       5.0000      0.0000     0.89000000
   7   1  H       1.0000      0.0000     1.11000000
  19   6  C       6.0000      0.0000     0.77000000
  37   8  O       8.0000      0.0000     0.74000000

 SIZE OF GRID=    1286568
 TTTTTTTTTTTTTTTTTTTTTTTTTTTTTT MAKE_GRID2  TELAPSE        9.76 TCPU        9.74
 BECKE WEIGHT FUNCTION
 RADSAFE =     2.00
 TOLERANCES - DENSITY:10**- 6; POTENTIAL:10**- 9; GRID WGT:10**-14

 RADIAL INTEGRATION  - INTERVALS (POINTS,UPPER LIMIT):            1( 75,  4.0*R)

 ANGULAR INTEGRATION - INTERVALS (ACCURACY LEVEL [N. POINTS] UPPER LIMIT):
  1(  4[  86]   0.2)  2(  8[ 194]   0.5)  3( 12[ 350]   0.9)  4( 16[ 974]   3.5)
  5( 12[ 350]9999.0)
 TTTTTTTTTTTTTTTTTTTTTTTTTTTTTT INT_CALC    TELAPSE        9.83 TCPU        9.82
 EEEEEEEEEE INT_CALC TERMINATION  DATE 19 02 2026 TIME 18:21:43.4

 *******************************************************************************
 cof-1_z34_L087_incl                                                             
 CRYSTAL - SCF - TYPE OF CALCULATION :  RESTRICTED CLOSED SHELL
 *******************************************************************************

 CAPPA:IS1  2;IS2  2;IS3  8; K PTS MONK NET  20; SYMMOPS:K SPACE   2;G SPACE   1

 TTTTTTTTTTTTTTTTTTTTTTTTTTTTTT SDIK        TELAPSE       10.49 TCPU       17.01

 AAAAAAAAAAAAAAAAAAAAAAAAAAAAAAAAAAAAAAAAAAAAAAAAAAAAAAAAAAAAAAAAAAAAAAAAAAAAAAA
         ATOMIC WAVEFUNCTION(S)


 NUCLEAR CHARGE  5.0  SYMMETRY SPECIES            S    P
 N. ELECTRONS    5.0  NUMBER OF PRIMITIVE GTOS    8    4
                      NUMBER OF CONTRACTED GTOS   4    2
                      NUMBER OF CLOSED SHELLS     2    0
                      OPEN SHELL OCCUPATION       0    1

  ZNUC  SCFIT    TOTAL HF ENERGY   KINETIC ENERGY   VIRIAL THEOREM ACCURACY
   5.0    11    -2.451164084E+01  2.462155050E+01 -1.995536038E+00  1.5E-06

 NUCLEAR CHARGE  1.0  SYMMETRY SPECIES            S
 N. ELECTRONS    1.0  NUMBER OF PRIMITIVE GTOS    4
                      NUMBER OF CONTRACTED GTOS   2
                      NUMBER OF CLOSED SHELLS     0
                      OPEN SHELL OCCUPATION       1

  ZNUC  SCFIT    TOTAL HF ENERGY   KINETIC ENERGY   VIRIAL THEOREM ACCURACY
   1.0     1    -4.977266687E-01  5.190767460E-01 -1.958869132E+00  0.0E+00

 NUCLEAR CHARGE  6.0  SYMMETRY SPECIES            S    P
 N. ELECTRONS    6.0  NUMBER OF PRIMITIVE GTOS    8    4
                      NUMBER OF CONTRACTED GTOS   4    2
                      NUMBER OF CLOSED SHELLS     2    0
                      OPEN SHELL OCCUPATION       0    2

  ZNUC  SCFIT    TOTAL HF ENERGY   KINETIC ENERGY   VIRIAL THEOREM ACCURACY
   6.0     9    -3.766704647E+01  3.775180683E+01 -1.997754800E+00  1.1E-06

 NUCLEAR CHARGE  8.0  SYMMETRY SPECIES            S    P
 N. ELECTRONS    8.0  NUMBER OF PRIMITIVE GTOS    8    4
                      NUMBER OF CONTRACTED GTOS   4    2
                      NUMBER OF CLOSED SHELLS     2    0
                      OPEN SHELL OCCUPATION       0    4

  ZNUC  SCFIT    TOTAL HF ENERGY   KINETIC ENERGY   VIRIAL THEOREM ACCURACY
   8.0    12    -7.477373220E+01  7.477365593E+01 -2.000001020E+00  3.8E-06

 AAAAAAAAAAAAAAAAAAAAAAAAAAAAAAAAAAAAAAAAAAAAAAAAAAAAAAAAAAAAAAAAAAAAAAAAAAAAAAA

 CHARGE NORMALIZATION FACTOR   1.00000000
 TOTAL ATOMIC CHARGES:
   5.0000000   5.0000000   5.0000000   5.0000000   5.0000000   5.0000000
   1.0000000   1.0000000   1.0000000   1.0000000   1.0000000   1.0000000
   1.0000000   1.0000000   1.0000000   1.0000000   1.0000000   1.0000000
   6.0000000   6.0000000   6.0000000   6.0000000   6.0000000   6.0000000
   6.0000000   6.0000000   6.0000000   6.0000000   6.0000000   6.0000000
   6.0000000   6.0000000   6.0000000   6.0000000   6.0000000   6.0000000
   8.0000000   8.0000000   8.0000000   8.0000000   8.0000000   8.0000000
 TTTTTTTTTTTTTTTTTTTTTTTTTTTTTT MOQGAD      TELAPSE       10.54 TCPU       18.10
 TTTTTTTTTTTTTTTTTTTTTTTTTTTTTT SHELLXN     TELAPSE       18.53 TCPU      270.40
 TTTTTTTTTTTTTTTTTTTTTTTTTTTTTT MONMO3      TELAPSE       18.68 TCPU      275.24
 NUMERICALLY INTEGRATED DENSITY    197.9999327330
 TTTTTTTTTTTTTTTTTTTTTTTTTTTTTT NUMDFT      TELAPSE       19.38 TCPU      297.44
 CYC   0 ETOT(AU) -1.295968967975E+03 DETOT -1.30E+03 tst  0.00E+00 PX  1.00E+00
 TTTTTTTTTTTTTTTTTTTTTTTTTTTTTT DIIS        TELAPSE       19.42 TCPU      298.81
 TTTTTTTTTTTTTTTTTTTTTTTTTTTTTT FDIK        TELAPSE       19.96 TCPU      315.98
 INSULATING STATE
 TOP OF VALENCE BANDS -    BAND     99; K    1; EIG -3.0728864E-01 AU
 BOTTOM OF VIRTUAL BANDS - BAND    100; K    1; EIG -1.5706811E-01 AU
 DIRECT ENERGY BAND GAP:   4.0877 eV
 TTTTTTTTTTTTTTTTTTTTTTTTTTTTTT PDIG        TELAPSE       20.31 TCPU      322.05
 CHARGE NORMALIZATION FACTOR   1.00000000
 TOTAL ATOMIC CHARGES:
   4.1520795   4.1516493   4.1521213   4.1516150   4.1512367   4.1509985
   0.7857377   0.7858631   0.7856869   0.7858265   0.7857217   0.7858810
   0.7857218   0.7858455   0.7856902   0.7859038   0.7856859   0.7858488
   6.0441775   6.2672408   6.2671498   6.2671822   6.2671531   6.0438622
   6.0442682   6.2672412   6.2673831   6.2671551   6.2673616   6.0428679
   6.0447691   6.2668660   6.2675524   6.2668147   6.2674450   6.0434585
   8.6981735   8.6983793   8.6983312   8.6986448   8.6985469   8.6988625
 TTTTTTTTTTTTTTTTTTTTTTTTTTTTTT MOQGAD      TELAPSE       20.36 TCPU      322.10
 TTTTTTTTTTTTTTTTTTTTTTTTTTTTTT SHELLXN     TELAPSE       28.65 TCPU      586.55
 TTTTTTTTTTTTTTTTTTTTTTTTTTTTTT MONMO3      TELAPSE       28.81 TCPU      591.52
 NUMERICALLY INTEGRATED DENSITY    197.9999643758
 TTTTTTTTTTTTTTTTTTTTTTTTTTTTTT NUMDFT      TELAPSE       29.55 TCPU      614.27
 CYC   1 ETOT(AU) -1.288822487884E+03 DETOT  7.15E+00 tst  0.00E+00 PX  1.00E+00
 TTTTTTTTTTTTTTTTTTTTTTTTTTTTTT DIIS        TELAPSE       29.61 TCPU      616.00
 DIIS TEST: 0.11093E+01 AT SCF   CYCLE   1 - MIX   30 %
 TTTTTTTTTTTTTTTTTTTTTTTTTTTTTT FDIK        TELAPSE       30.38 TCPU      640.30
 INSULATING STATE
 TOP OF VALENCE BANDS -    BAND     99; K    1; EIG -2.1872043E-01 AU
 BOTTOM OF VIRTUAL BANDS - BAND    100; K   17; EIG -8.3729883E-02 AU
 INDIRECT ENERGY BAND GAP:   3.6733 eV
 BOTTOM OF VIRTUAL BANDS - BAND    100; K    1; EIG -8.1276060E-02 AU
 TTTTTTTTTTTTTTTTTTTTTTTTTTTTTT PDIG        TELAPSE       30.73 TCPU      646.38
 CHARGE NORMALIZATION FACTOR   1.00000000
 TOTAL ATOMIC CHARGES:
   4.7024508   4.7011301   4.7020389   4.7021767   4.7011111   4.7021005
   0.9038755   0.9039719   0.9041635   0.9036288   0.9035545   0.9040960
   0.9035255   0.9039598   0.9040375   0.9037261   0.9039524   0.9040203
   5.8755555   6.1356301   6.1354994   6.1351746   6.1357469   5.8789510
   5.8761837   6.1345009   6.1359014   6.1350020   6.1359386   5.8791776
   5.8760940   6.1354298   6.1356007   6.1357430   6.1350675   5.8785908
   8.3416630   8.3423862   8.3424823   8.3419115   8.3414067   8.3428428
 TTTTTTTTTTTTTTTTTTTTTTTTTTTTTT MOQGAD      TELAPSE       30.77 TCPU      646.42
 TTTTTTTTTTTTTTTTTTTTTTTTTTTTTT SHELLXN     TELAPSE       39.19 TCPU      914.78
 TTTTTTTTTTTTTTTTTTTTTTTTTTTTTT MONMO3      TELAPSE       39.35 TCPU      919.69
 NUMERICALLY INTEGRATED DENSITY    197.9999547385
 TTTTTTTTTTTTTTTTTTTTTTTTTTTTTT NUMDFT      TELAPSE       40.06 TCPU      942.42
 CYC   2 ETOT(AU) -1.289015269892E+03 DETOT -1.93E-01 tst  3.36E-03 PX  1.57E-01
 TTTTTTTTTTTTTTTTTTTTTTTTTTTTTT DIIS        TELAPSE       40.12 TCPU      944.29
 DIIS TEST: 0.46024E+00 AT SCF   CYCLE   2 - DIIS ACTIVE - HISTORY:     2 CYCLES
 TTTTTTTTTTTTTTTTTTTTTTTTTTTTTT FDIK        TELAPSE       40.66 TCPU      961.72
 INSULATING STATE
 TOP OF VALENCE BANDS -    BAND     99; K    1; EIG -2.3192547E-01 AU
 BOTTOM OF VIRTUAL BANDS - BAND    100; K    1; EIG -7.5556641E-02 AU
 DIRECT ENERGY BAND GAP:   4.2550 eV
 TTTTTTTTTTTTTTTTTTTTTTTTTTTTTT PDIG        TELAPSE       41.02 TCPU      967.80
 CHARGE NORMALIZATION FACTOR   1.00000000
 TOTAL ATOMIC CHARGES:
   4.4918701   4.4907148   4.4914656   4.4915009   4.4906898   4.4912373
   0.8836134   0.8837871   0.8837350   0.8835605   0.8832895   0.8839731
   0.8833059   0.8838103   0.8836703   0.8835807   0.8837183   0.8837433
   5.8904994   6.1671015   6.1662670   6.1664462   6.1665057   5.8903620
   5.8910098   6.1667469   6.1663581   6.1667182   6.1664964   5.8895217
   5.8905546   6.1663440   6.1668638   6.1666890   6.1664198   5.8904077
   8.5175284   8.5180551   8.5178911   8.5177824   8.5179034   8.5182621
 TTTTTTTTTTTTTTTTTTTTTTTTTTTTTT MOQGAD      TELAPSE       41.06 TCPU      967.84
 TTTTTTTTTTTTTTTTTTTTTTTTTTTTTT SHELLXN     TELAPSE       49.30 TCPU     1230.51
 TTTTTTTTTTTTTTTTTTTTTTTTTTTTTT MONMO3      TELAPSE       49.45 TCPU     1235.38
 NUMERICALLY INTEGRATED DENSITY    197.9999560372
 TTTTTTTTTTTTTTTTTTTTTTTTTTTTTT NUMDFT      TELAPSE       50.16 TCPU     1257.97
 CYC   3 ETOT(AU) -1.289109581487E+03 DETOT -9.43E-02 tst  7.06E-04 PX  6.15E-02
 TTTTTTTTTTTTTTTTTTTTTTTTTTTTTT DIIS        TELAPSE       50.23 TCPU     1260.14
 DIIS TEST: 0.13196E-01 AT SCF   CYCLE   3 - DIIS ACTIVE - HISTORY:     3 CYCLES
 TTTTTTTTTTTTTTTTTTTTTTTTTTTTTT FDIK        TELAPSE       50.77 TCPU     1277.56
 INSULATING STATE
 TOP OF VALENCE BANDS -    BAND     99; K    1; EIG -2.4054210E-01 AU
 BOTTOM OF VIRTUAL BANDS - BAND    100; K   17; EIG -8.4080446E-02 AU
 INDIRECT ENERGY BAND GAP:   4.2575 eV
 BOTTOM OF VIRTUAL BANDS - BAND    100; K    1; EIG -8.4005941E-02 AU
 TTTTTTTTTTTTTTTTTTTTTTTTTTTTTT PDIG        TELAPSE       51.13 TCPU     1283.64
 CHARGE NORMALIZATION FACTOR   1.00000000
 TOTAL ATOMIC CHARGES:
   4.4980318   4.4967880   4.4976366   4.4975306   4.4964906   4.4972485
   0.8675024   0.8675430   0.8675876   0.8673185   0.8672608   0.8676378
   0.8672388   0.8675098   0.8674927   0.8674110   0.8675449   0.8675684
   5.9437699   6.1683464   6.1685589   6.1682116   6.1685177   5.9459290
   5.9438997   6.1675882   6.1688162   6.1679079   6.1687937   5.9459834
   5.9444982   6.1683086   6.1685236   6.1683397   6.1683666   5.9453429
   8.4857371   8.4863338   8.4863935   8.4860993   8.4855554   8.4868364
 TTTTTTTTTTTTTTTTTTTTTTTTTTTTTT MOQGAD      TELAPSE       51.17 TCPU     1283.69
 TTTTTTTTTTTTTTTTTTTTTTTTTTTTTT SHELLXN     TELAPSE       59.64 TCPU     1553.53
 TTTTTTTTTTTTTTTTTTTTTTTTTTTTTT MONMO3      TELAPSE       59.79 TCPU     1558.47
 NUMERICALLY INTEGRATED DENSITY    197.9999567469
 TTTTTTTTTTTTTTTTTTTTTTTTTTTTTT NUMDFT      TELAPSE       60.50 TCPU     1581.16
 CYC   4 ETOT(AU) -1.289112347524E+03 DETOT -2.77E-03 tst  3.00E-05 PX  1.23E-02
 TTTTTTTTTTTTTTTTTTTTTTTTTTTTTT DIIS        TELAPSE       60.57 TCPU     1583.44
 DIIS TEST: 0.36605E-02 AT SCF   CYCLE   4 - DIIS ACTIVE - HISTORY:     4 CYCLES
 TTTTTTTTTTTTTTTTTTTTTTTTTTTTTT FDIK        TELAPSE       61.13 TCPU     1601.30
 INSULATING STATE
 TOP OF VALENCE BANDS -    BAND     99; K    1; EIG -2.3920555E-01 AU
 BOTTOM OF VIRTUAL BANDS - BAND    100; K   17; EIG -8.3878028E-02 AU
 INDIRECT ENERGY BAND GAP:   4.2267 eV
 BOTTOM OF VIRTUAL BANDS - BAND    100; K    1; EIG -8.3828832E-02 AU
 TTTTTTTTTTTTTTTTTTTTTTTTTTTTTT PDIG        TELAPSE       61.49 TCPU     1607.37
 CHARGE NORMALIZATION FACTOR   1.00000000
 TOTAL ATOMIC CHARGES:
   4.5011084   4.4998614   4.5006692   4.5007103   4.4997740   4.5004949
   0.8697840   0.8699664   0.8699381   0.8697028   0.8694873   0.8701128
   0.8694917   0.8699565   0.8698700   0.8697445   0.8698761   0.8699461
   5.9228258   6.1711431   6.1704142   6.1705325   6.1707446   5.9234496
   5.9234135   6.1706156   6.1705604   6.1706890   6.1707132   5.9228338
   5.9229705   6.1704579   6.1710060   6.1708088   6.1704999   5.9234353
   8.4949955   8.4956005   8.4954532   8.4952381   8.4952321   8.4958727
 TTTTTTTTTTTTTTTTTTTTTTTTTTTTTT MOQGAD      TELAPSE       61.54 TCPU     1607.42
 TTTTTTTTTTTTTTTTTTTTTTTTTTTTTT SHELLXN     TELAPSE       69.79 TCPU     1870.58
 TTTTTTTTTTTTTTTTTTTTTTTTTTTTTT MONMO3      TELAPSE       69.94 TCPU     1875.45
 NUMERICALLY INTEGRATED DENSITY    197.9999567097
 TTTTTTTTTTTTTTTTTTTTTTTTTTTTTT NUMDFT      TELAPSE       70.65 TCPU     1897.97
 CYC   5 ETOT(AU) -1.289113190092E+03 DETOT -8.43E-04 tst  5.25E-06 PX  6.64E-03
 TTTTTTTTTTTTTTTTTTTTTTTTTTTTTT DIIS        TELAPSE       70.72 TCPU     1900.43
 DIIS TEST: 0.77384E-04 AT SCF   CYCLE   5 - DIIS ACTIVE - HISTORY:     5 CYCLES
 TTTTTTTTTTTTTTTTTTTTTTTTTTTTTT FDIK        TELAPSE       71.26 TCPU     1917.72
 INSULATING STATE
 TOP OF VALENCE BANDS -    BAND     99; K    1; EIG -2.3909785E-01 AU
 BOTTOM OF VIRTUAL BANDS - BAND    100; K   17; EIG -8.3342107E-02 AU
 INDIRECT ENERGY BAND GAP:   4.2383 eV
 BOTTOM OF VIRTUAL BANDS - BAND    100; K    1; EIG -8.3295296E-02 AU
 TTTTTTTTTTTTTTTTTTTTTTTTTTTTTT PDIG        TELAPSE       71.62 TCPU     1923.80
 CHARGE NORMALIZATION FACTOR   1.00000000
 TOTAL ATOMIC CHARGES:
   4.5005383   4.4992990   4.5001249   4.5000636   4.4991026   4.4997817
   0.8707818   0.8708277   0.8708737   0.8706197   0.8705106   0.8709619
   0.8704881   0.8708316   0.8707734   0.8706952   0.8708333   0.8708488
   5.9233006   6.1700010   6.1700759   6.1697941   6.1699837   5.9248354
   5.9233465   6.1693294   6.1703094   6.1696017   6.1702757   5.9247887
   5.9239391   6.1698850   6.1700597   6.1699419   6.1699049   5.9243171
   8.4943167   8.4948437   8.4949414   8.4946909   8.4942608   8.4953009
 TTTTTTTTTTTTTTTTTTTTTTTTTTTTTT MOQGAD      TELAPSE       71.67 TCPU     1923.84
 TTTTTTTTTTTTTTTTTTTTTTTTTTTTTT SHELLXN     TELAPSE       79.95 TCPU     2187.90
 TTTTTTTTTTTTTTTTTTTTTTTTTTTTTT MONMO3      TELAPSE       80.10 TCPU     2192.83
 NUMERICALLY INTEGRATED DENSITY    197.9999566687
 TTTTTTTTTTTTTTTTTTTTTTTTTTTTTT NUMDFT      TELAPSE       80.82 TCPU     2215.78
 CYC   6 ETOT(AU) -1.289113211501E+03 DETOT -2.14E-05 tst  2.30E-07 PX  7.63E-04
 TTTTTTTTTTTTTTTTTTTTTTTTTTTTTT DIIS        TELAPSE       80.90 TCPU     2218.29
 DIIS TEST: 0.50404E-05 AT SCF   CYCLE   6 - DIIS ACTIVE - HISTORY:     6 CYCLES
 TTTTTTTTTTTTTTTTTTTTTTTTTTTTTT FDIK        TELAPSE       81.46 TCPU     2236.06
 INSULATING STATE
 TOP OF VALENCE BANDS -    BAND     99; K    1; EIG -2.3906959E-01 AU
 BOTTOM OF VIRTUAL BANDS - BAND    100; K   17; EIG -8.3427462E-02 AU
 INDIRECT ENERGY BAND GAP:   4.2352 eV
 BOTTOM OF VIRTUAL BANDS - BAND    100; K    1; EIG -8.3382987E-02 AU
 TTTTTTTTTTTTTTTTTTTTTTTTTTTTTT PDIG        TELAPSE       81.81 TCPU     2242.13
 CHARGE NORMALIZATION FACTOR   1.00000000
 TOTAL ATOMIC CHARGES:
   4.5007533   4.4995027   4.5003127   4.5003485   4.4994073   4.5001136
   0.8706783   0.8708544   0.8708335   0.8705848   0.8703759   0.8710087
   0.8703835   0.8708480   0.8707673   0.8706245   0.8707752   0.8708292
   5.9237296   6.1702232   6.1694892   6.1695778   6.1698729   5.9244660
   5.9243958   6.1697194   6.1696042   6.1697730   6.1697817   5.9237890
   5.9238375   6.1694881   6.1701417   6.1698661   6.1696053   5.9244881
   8.4944546   8.4950894   8.4948934   8.4946757   8.4946863   8.4953505
 TTTTTTTTTTTTTTTTTTTTTTTTTTTTTT MOQGAD      TELAPSE       81.86 TCPU     2242.17
 TTTTTTTTTTTTTTTTTTTTTTTTTTTTTT SHELLXN     TELAPSE       90.30 TCPU     2511.24
 TTTTTTTTTTTTTTTTTTTTTTTTTTTTTT MONMO3      TELAPSE       90.45 TCPU     2516.18
 NUMERICALLY INTEGRATED DENSITY    197.9999566630
 TTTTTTTTTTTTTTTTTTTTTTTTTTTTTT NUMDFT      TELAPSE       91.17 TCPU     2539.08
 CYC   7 ETOT(AU) -1.289113211777E+03 DETOT -2.75E-07 tst  2.68E-08 PX  2.49E-04
 TTTTTTTTTTTTTTTTTTTTTTTTTTTTTT DIIS        TELAPSE       91.26 TCPU     2541.92
 DIIS TEST: 0.10166E-05 AT SCF   CYCLE   7 - DIIS ACTIVE - HISTORY:     7 CYCLES
 TTTTTTTTTTTTTTTTTTTTTTTTTTTTTT FDIK        TELAPSE       91.81 TCPU     2559.60
 INSULATING STATE
 TOP OF VALENCE BANDS -    BAND     99; K    1; EIG -2.3908555E-01 AU
 BOTTOM OF VIRTUAL BANDS - BAND    100; K   17; EIG -8.3426824E-02 AU
 INDIRECT ENERGY BAND GAP:   4.2357 eV
 BOTTOM OF VIRTUAL BANDS - BAND    100; K    1; EIG -8.3381289E-02 AU
 TTTTTTTTTTTTTTTTTTTTTTTTTTTTTT PDIG        TELAPSE       92.17 TCPU     2565.68
 CHARGE NORMALIZATION FACTOR   1.00000000
 TOTAL ATOMIC CHARGES:
   4.5007857   4.4995426   4.5003597   4.5003435   4.4993915   4.5000939
   0.8706843   0.8707895   0.8708009   0.8705586   0.8704022   0.8709277
   0.8703908   0.8707864   0.8707142   0.8706199   0.8707531   0.8707932
   5.9234165   6.1700926   6.1698177   6.1697254   6.1699006   5.9245344
   5.9236819   6.1694788   6.1700198   6.1696718   6.1700619   5.9242587
   5.9238526   6.1697465   6.1700539   6.1699211   6.1697511   5.9242253
   8.4944341   8.4949904   8.4949932   8.4947572   8.4945044   8.4953725
 TTTTTTTTTTTTTTTTTTTTTTTTTTTTTT MOQGAD      TELAPSE       92.21 TCPU     2565.72
 TTTTTTTTTTTTTTTTTTTTTTTTTTTTTT SHELLXN     TELAPSE      100.47 TCPU     2828.70
 +++ ENERGIES IN A.U. +++
 ::: EXT EL-POLE                                  -1.5268311758386E+03
 ::: EXT EL-SPHEROPOLE                             1.6841030810293E+01
 ::: BIELET ZONE E-E                               2.1453166424127E+03
 ::: TOTAL E-E                                     6.3532649738436E+02
 ::: TOTAL E-N + N-E                              -3.0955241956371E+03
 ::: TOTAL N-N                                     2.4855171502539E+01
 ::: KINETIC ENERGY                                1.2799493778273E+03
 ::: PSEUDO TOTAL   ENERGY                        -1.1553931489229E+03
 ::: VIRIAL COEFFICIENT                            1.0511452608971E+00
 TTTTTTTTTTTTTTTTTTTTTTTTTTTTTT MONMO3      TELAPSE      100.62 TCPU     2833.62
 NUMERICALLY INTEGRATED DENSITY    197.9999566633
 EXCHANGE ENERGY: -0.126025069208E+03  CORRELATION ENERGY: -0.769499394743E+01
 TTTTTTTTTTTTTTTTTTTTTTTTTTTTTT NUMDFT      TELAPSE      101.33 TCPU     2856.20
 CYC   8 ETOT(AU) -1.289113212079E+03 DETOT -3.02E-07 tst  9.22E-09 PX  2.49E-04

 == SCF ENDED - CONVERGENCE ON ENERGY      E(AU) -1.2891132120786E+03 CYCLES   8


 ENERGY EXPRESSION=HARTREE+FOCK EXCH*0.00000+(HSESOL     EXCH)*1.00000+PBESOL     CORR


 TOTAL ENERGY(DFT)(AU)(  8) -1.2891132120786E+03 DE-3.0E-07 tester 9.2E-09
 TTTTTTTTTTTTTTTTTTTTTTTTTTTTTT EDFT        TELAPSE      101.33 TCPU     2856.21
 
 INFORMATION **** DFTD3 ENERGY **** CALCULATE DFTD3 ENERGY

           DFT-D V3(BJ)
 DF                                         hsesol3c  
 parameters
 s6       :    1.0000
 s8       :    0.0000
 a1       :    0.5196
 a2       :    4.9385
 k1 k3    :   16.0000   -4.0000
 Cutoff   :   50.2022
 CN-Cutoff:   21.1671
 ABC-Cutoff:   21.1671
 
 Edisp /kcal,au:   -26.4931 -0.04221942

 E6    /kcal :   -28.1073
 E8    /kcal :     0.0000
 E6(ABC) "   :   1.614217
 
 INFORMATION **** DFTD3 ENERGY **** NORMAL TERMINATION OF DFTD3 MODULE

 GCP ENERGY CALCULATION
  level        hsesol3c            basis:hsesol3c
  Nbf            474
  Atoms           42

  Parameters: 
  sigma     1.0000
  eta       1.4281
  alpha     0.2936
  beta      1.9467

  dmp_scal      4.0000
  dmp_exp       6.0000
 cutoffs: 
   distance [bohr] 60.0
   noise    [a.u.] 2.2E-16
 SR-damping   T
 ** gCP correction **
  Egcp:        0.0834789942 / (a.u.) ||      52.3839 / (kcal/mol)
 INFORMATION **** GCP **** NORMAL TERMINATION OF GCP MODULE

 *******************************************************************************

 DFT-D3-GCP DISPERSION AND COUNTERPOISE CORRECTION

 D3 DISPERSION ENERGY (AU)      -4.2219419416325E-02
 GCP ENERGY (AU)                 8.3478994242960E-02
 TOTAL ENERGY + DISP + GCP (AU) -1.2890719525038E+03

 *******************************************************************************

 EIGENVECTORS IN FORTRAN UNIT  8
 TTTTTTTTTTTTTTTTTTTTTTTTTTTTTT END         TELAPSE      103.63 TCPU     2864.31
 EEEEEEEEEE TERMINATION  DATE 19 02 2026 TIME 18:23:17.2
