 Default number of threads is:           32

         
 *******************************************************************************
 *                                                                             *
 *                               CRYSTAL23                                     *
 *                      public : 1.0.1 - October 2022                          *
 *                       HTTP://WWW.CRYSTAL.UNITO.IT                           *
 *                                                                             *
 *                              MAIN AUTHORS                                   *
 *                                                                             *
 *  R. DOVESI(1,11), V.R. SAUNDERS(2), C. ROETTI(1,11), R. ORLANDO(1,11),      *
 *  C.M. ZICOVICH-WILSON(1,3), F. PASCALE(4), B. CIVALLERI(1,11),              *
 *  K. DOLL(5), N.M. HARRISON(6), I.J. BUSH(7), Ph. D'ARCO(8),                 *
 *  M. LLUNELL(9), M. CAUSA'(10), Y. NOEL(8), L. MASCHIO(1,11), A. ERBA(1,11)  *
 *  M. RE'RAT(14), S. CASASSA(1,11), B.G. SEARLE(2), J.K. DESMARAIS(1)         *
 *                                                                             *
 *        CONTRIBUTIONS TO THE CODE HAVE ALSO BEEN GIVEN BY                    *
 *                                                                             *
 *  M. FERRABONE(1,11), M. DE LA PIERRE(1,11), M. FERRERO(1,11),               *
 *  J. BAIMA(1,11), E. ALBANESE(1,11), M.F. PEINTINGER(12), R. BAST(13),       *
 *  B. KIRTMAN(15), V. LACIVITA(1,11), R. DEMICHELIS(1,16)                     *
 *  G. BRANDEBURG(17), S. SALUSTRO(1,11), G. SANSONE(1,11)                     *
 *  M.T. RUGGIERO(18), L.E. DAGA(1), L. DONA'(1), A. COSSARD(1)                *
 *                                                                             *
 * (1) THEORETICAL CHEMISTRY GROUP - UNIVERSITA' DI TORINO - TORINO (ITALY)    *
 * (2) SCIENTIFIC COMPUTING DEPARTMENT - STFC DARESBURY (UK)                   *
 * (3) UNIVERSIDAD AUTONOMA DEL ESTADO DE MORELOS - CUERNAVACA (MEXICO)        *
 * (4) UNIVERSITE' DE LORRAINE - NANCY (FRANCE)                                *
 * (5) UNIVERSITAET STUTTGART- STUTTGART (GERMANY)                             *
 * (6) IMPERIAL COLLEGE - LONDON (UK)                                          *
 * (7) SCIENTIFIC COMPUTING DEPARTMENT - STFC RAL (UK)                         *
 * (8) UPMC - SORBONNE UNIVERSITES - PARIS (FRANCE)                            *
 * (9) UNIVERSIDAD DE BARCELONA - BARCELONA (SPAIN)                            *
 *(10) UNIVERSITA' DI NAPOLI "FEDERICO II" - NAPOLI (ITALY)                    *
 *(11) NIS - NANOSTRUCTURED INTERFACES AND SURFACES - TORINO (ITALY)           *
 *(12) MPI FUER CHEMISCHE ENERGIEKONVERSION - MUELHEIM AN DER RUHR (GERMANY)   *
 *(13) UNIVERSITY OF TROMSO - TROMSO (NORWAY)                                  *
 *(14) UNIVERSITE' DE PAU ET DES PAYS DE L'ADOUR - PAU (FRANCE)                *
 *(15) UNIVERSITY OF CALIFORNIA SANTA BARBARA - SANTA BARBARA (USA)            *
 *(16) CURTIN UNIVERSITY - PERTH (AUSTRALIA)                                   *
 *(17) UNIVERSITY COLLEGE LONDON - LONDON (UK)                                 *
 *(18) UNIVERSITY OF VERMONT - BURLINGTON (USA)                                *
 *                                                                             *
 *******************************************************************************
 EEEEEEEEEE STARTING  DATE 19 02 2026 TIME 19:07:37.3
 cof-1_z40_L070_incl                                                             

 CRYSTAL CALCULATION
 (INPUT ACCORDING TO THE INTERNATIONAL TABLES FOR X-RAY CRYSTALLOGRAPHY)
 CRYSTAL FAMILY                       :  TRICLINIC   
 CRYSTAL CLASS  (GROTH - 1921)        :  TRICLINIC PEDIAL                     

 SPACE GROUP (NONCENTROSYMMETRIC)     :  P 1             

 LATTICE PARAMETERS  (ANGSTROMS AND DEGREES) - CONVENTIONAL CELL
        A           B           C        ALPHA        BETA       GAMMA
    15.02361    15.02392     8.06226    41.24056    89.99997   119.99596


 NUMBER OF IRREDUCIBLE ATOMS IN THE CONVENTIONAL CELL:   42

 INPUT COORDINATES

 ATOM AT. N.              COORDINATES
   1   5     4.788792800000E-01 -4.231171000000E-02  5.011889800000E-01
   2   5     6.379349300000E-01  1.167479400000E-01  5.011890000000E-01
   3   5     4.795503100000E-01  1.180814800000E-01  4.986782200000E-01
   4   5     9.245398000000E-02  3.440032800000E-01  5.011889900000E-01
   5   5     2.515619500000E-01  3.439825100000E-01  5.011889900000E-01
   6   5     2.522175400000E-01  5.044724600000E-01  4.986782200000E-01
   7   1     7.696424000000E-01  4.210048000000E-02  4.959836500000E-01
   8   1    -3.655260000000E-02  4.246521000000E-01  4.951876700000E-01
   9   1     7.698172300000E-01  3.277369900000E-01  4.950651700000E-01
  10   1    -3.642622000000E-02  1.393330600000E-01  4.950957200000E-01
  11   1     5.554734600000E-01 -1.741413100000E-01  5.040060000000E-01
  12   1     1.731566800000E-01  6.318636200000E-01  5.048020400000E-01
  13   1     2.700639800000E-01 -1.745896500000E-01  5.049246200000E-01
  14   1     4.585144700000E-01  6.317242300000E-01  5.048938600000E-01
  15   1     5.576715000000E-01  3.272246200000E-01  4.959837000000E-01
  16   1     1.757747100000E-01  1.392080100000E-01  4.951876200000E-01
  17   1     2.726864100000E-01  4.248786000000E-02  4.950650700000E-01
  18   1     4.611284500000E-01  4.246060000000E-01  4.950958200000E-01
  19   6     7.577890600000E-01  1.777139200000E-01  4.985863500000E-01
  20   6     8.130549400000E-01  1.258901600000E-01  4.961061500000E-01
  21   6    -7.998842000000E-02  3.404051000000E-01  4.958918900000E-01
  22   6     8.129026200000E-01  2.865660600000E-01  4.965349000000E-01
  23   6    -7.967841000000E-02  1.800134000000E-01  4.948813800000E-01
  24   6    -2.552182000000E-02  2.868930500000E-01  4.965654900000E-01
  25   6     4.191805000000E-01 -1.615767900000E-01  5.014033400000E-01
  26   6     4.716518600000E-01 -2.175235900000E-01  5.038834900000E-01
  27   6     2.572150300000E-01  6.754683200000E-01  5.040978300000E-01
  28   6     3.108768800000E-01 -2.172460600000E-01  5.034548400000E-01
  29   6     4.178614500000E-01  6.748851400000E-01  5.051082400000E-01
  30   6     3.105254600000E-01  6.211596300000E-01  5.034241900000E-01
  31   6     4.199436200000E-01  1.776447800000E-01  4.985863400000E-01
  32   6     4.737760400000E-01  2.867302800000E-01  4.961062000000E-01
  33   6     2.594468400000E-01  1.793918500000E-01  4.958918400000E-01
  34   6     3.127377900000E-01  1.255639000000E-01  4.965348300000E-01
  35   6     4.206381900000E-01  3.408613900000E-01  4.948814500000E-01
  36   6     3.124022700000E-01  2.868156500000E-01  4.965654900000E-01
  37   8     4.264295400000E-01  1.172905000000E-02  4.993518300000E-01
  38   8     5.839498300000E-01  8.887000000000E-03  5.046489500000E-01
  39   8     5.860969900000E-01  1.721314500000E-01  4.966573600000E-01
  40   8     1.460173700000E-01  4.510095100000E-01  4.993518600000E-01
  41   8     1.446121100000E-01  2.892042900000E-01  5.046489400000E-01
  42   8     3.056814200000E-01  4.524434200000E-01  4.966573400000E-01

 *******************************************************************************

 << INFORMATION >>: FROM NOW ON, ALL COORDINATES REFER TO THE PRIMITIVE CELL

 *******************************************************************************

 LATTICE PARAMETERS  (ANGSTROMS AND DEGREES) - PRIMITIVE CELL
       A          B          C        ALPHA      BETA     GAMMA        VOLUME
   15.02361   15.02392    8.06226    41.24056  89.99997 119.99596    781.934356

 COORDINATES OF THE EQUIVALENT ATOMS (FRACTIONAL UNITS)

 N. ATOM EQUIV AT. N.          X                  Y                  Z

   1   1   1    5 B     4.78879280000E-01 -4.23117100000E-02 -4.98811020000E-01

   2   2   1    5 B    -3.62065070000E-01  1.16747940000E-01 -4.98811000000E-01

   3   3   1    5 B     4.79550310000E-01  1.18081480000E-01  4.98678220000E-01

   4   4   1    5 B     9.24539800000E-02  3.44003280000E-01 -4.98811010000E-01

   5   5   1    5 B     2.51561950000E-01  3.43982510000E-01 -4.98811010000E-01

   6   6   1    5 B     2.52217540000E-01 -4.95527540000E-01  4.98678220000E-01

   7   7   1    1 H    -2.30357600000E-01  4.21004800000E-02  4.95983650000E-01

   8   8   1    1 H    -3.65526000000E-02  4.24652100000E-01  4.95187670000E-01

   9   9   1    1 H    -2.30182770000E-01  3.27736990000E-01  4.95065170000E-01

  10  10   1    1 H    -3.64262200000E-02  1.39333060000E-01  4.95095720000E-01

  11  11   1    1 H    -4.44526540000E-01 -1.74141310000E-01 -4.95994000000E-01

  12  12   1    1 H     1.73156680000E-01 -3.68136380000E-01 -4.95197960000E-01

  13  13   1    1 H     2.70063980000E-01 -1.74589650000E-01 -4.95075380000E-01

  14  14   1    1 H     4.58514470000E-01 -3.68275770000E-01 -4.95106140000E-01

  15  15   1    1 H    -4.42328500000E-01  3.27224620000E-01  4.95983700000E-01

  16  16   1    1 H     1.75774710000E-01  1.39208010000E-01  4.95187620000E-01

  17  17   1    1 H     2.72686410000E-01  4.24878600000E-02  4.95065070000E-01

  18  18   1    1 H     4.61128450000E-01  4.24606000000E-01  4.95095820000E-01

  19  19   1    6 C    -2.42210940000E-01  1.77713920000E-01  4.98586350000E-01

  20  20   1    6 C    -1.86945060000E-01  1.25890160000E-01  4.96106150000E-01

  21  21   1    6 C    -7.99884200000E-02  3.40405100000E-01  4.95891890000E-01

  22  22   1    6 C    -1.87097380000E-01  2.86566060000E-01  4.96534900000E-01

  23  23   1    6 C    -7.96784100000E-02  1.80013400000E-01  4.94881380000E-01

  24  24   1    6 C    -2.55218200000E-02  2.86893050000E-01  4.96565490000E-01

  25  25   1    6 C     4.19180500000E-01 -1.61576790000E-01 -4.98596660000E-01

  26  26   1    6 C     4.71651860000E-01 -2.17523590000E-01 -4.96116510000E-01

  27  27   1    6 C     2.57215030000E-01 -3.24531680000E-01 -4.95902170000E-01

  28  28   1    6 C     3.10876880000E-01 -2.17246060000E-01 -4.96545160000E-01

  29  29   1    6 C     4.17861450000E-01 -3.25114860000E-01 -4.94891760000E-01

  30  30   1    6 C     3.10525460000E-01 -3.78840370000E-01 -4.96575810000E-01

  31  31   1    6 C     4.19943620000E-01  1.77644780000E-01  4.98586340000E-01

  32  32   1    6 C     4.73776040000E-01  2.86730280000E-01  4.96106200000E-01

  33  33   1    6 C     2.59446840000E-01  1.79391850000E-01  4.95891840000E-01

  34  34   1    6 C     3.12737790000E-01  1.25563900000E-01  4.96534830000E-01

  35  35   1    6 C     4.20638190000E-01  3.40861390000E-01  4.94881450000E-01

  36  36   1    6 C     3.12402270000E-01  2.86815650000E-01  4.96565490000E-01

  37  37   1    8 O     4.26429540000E-01  1.17290500000E-02  4.99351830000E-01

  38  38   1    8 O    -4.16050170000E-01  8.88700000000E-03 -4.95351050000E-01

  39  39   1    8 O    -4.13903010000E-01  1.72131450000E-01  4.96657360000E-01

  40  40   1    8 O     1.46017370000E-01  4.51009510000E-01  4.99351860000E-01

  41  41   1    8 O     1.44612110000E-01  2.89204290000E-01 -4.95351060000E-01

  42  42   1    8 O     3.05681420000E-01  4.52443420000E-01  4.96657340000E-01

 NUMBER OF SYMMETRY OPERATORS         :    1
 *******************************************************************************
 * GEOMETRY EDITING - INPUT COORDINATES ARE GIVEN IN ANGSTROM         
 *******************************************************************************

 GCALCO - MAX INDICES DIRECT LATTICE VECTOR     9    14    24
 NO.OF VECTORS CREATED 6999 STARS 3500 RMAX   213.17309 BOHR

 GEOMETRY FOR WAVE FUNCTION - DIMENSIONALITY OF THE SYSTEM    3
 (NON PERIODIC DIRECTION: LATTICE PARAMETER FORMALLY SET TO 500)
 *******************************************************************************
 LATTICE PARAMETERS (ANGSTROMS AND DEGREES) - BOHR = 0.5291772083 ANGSTROM
 PRIMITIVE CELL - CENTRING CODE 1/0 VOLUME=   781.934356 - DENSITY  0.828 g/cm^3
         A              B              C           ALPHA      BETA       GAMMA 
    15.02361100    15.02391600     8.06225800    41.240563  89.999972 119.995964
 *******************************************************************************
 ATOMS IN THE ASYMMETRIC UNIT   42 - ATOMS IN THE UNIT CELL:   42
     ATOM                 X/A                 Y/B                 Z/C    
 *******************************************************************************
      1 T   5 B     4.788792800000E-01 -4.231171000000E-02 -4.988110200000E-01
      2 T   5 B    -3.620650700000E-01  1.167479400000E-01 -4.988110000000E-01
      3 T   5 B     4.795503100000E-01  1.180814800000E-01  4.986782200000E-01
      4 T   5 B     9.245398000000E-02  3.440032800000E-01 -4.988110100000E-01
      5 T   5 B     2.515619500000E-01  3.439825100000E-01 -4.988110100000E-01
      6 T   5 B     2.522175400000E-01 -4.955275400000E-01  4.986782200000E-01
      7 T   1 H    -2.303576000000E-01  4.210048000000E-02  4.959836500000E-01
      8 T   1 H    -3.655260000000E-02  4.246521000000E-01  4.951876700000E-01
      9 T   1 H    -2.301827700000E-01  3.277369900000E-01  4.950651700000E-01
     10 T   1 H    -3.642622000000E-02  1.393330600000E-01  4.950957200000E-01
     11 T   1 H    -4.445265400000E-01 -1.741413100000E-01 -4.959940000000E-01
     12 T   1 H     1.731566800000E-01 -3.681363800000E-01 -4.951979600000E-01
     13 T   1 H     2.700639800000E-01 -1.745896500000E-01 -4.950753800000E-01
     14 T   1 H     4.585144700000E-01 -3.682757700000E-01 -4.951061400000E-01
     15 T   1 H    -4.423285000000E-01  3.272246200000E-01  4.959837000000E-01
     16 T   1 H     1.757747100000E-01  1.392080100000E-01  4.951876200000E-01
     17 T   1 H     2.726864100000E-01  4.248786000000E-02  4.950650700000E-01
     18 T   1 H     4.611284500000E-01  4.246060000000E-01  4.950958200000E-01
     19 T   6 C    -2.422109400000E-01  1.777139200000E-01  4.985863500000E-01
     20 T   6 C    -1.869450600000E-01  1.258901600000E-01  4.961061500000E-01
     21 T   6 C    -7.998842000000E-02  3.404051000000E-01  4.958918900000E-01
     22 T   6 C    -1.870973800000E-01  2.865660600000E-01  4.965349000000E-01
     23 T   6 C    -7.967841000000E-02  1.800134000000E-01  4.948813800000E-01
     24 T   6 C    -2.552182000000E-02  2.868930500000E-01  4.965654900000E-01
     25 T   6 C     4.191805000000E-01 -1.615767900000E-01 -4.985966600000E-01
     26 T   6 C     4.716518600000E-01 -2.175235900000E-01 -4.961165100000E-01
     27 T   6 C     2.572150300000E-01 -3.245316800000E-01 -4.959021700000E-01
     28 T   6 C     3.108768800000E-01 -2.172460600000E-01 -4.965451600000E-01
     29 T   6 C     4.178614500000E-01 -3.251148600000E-01 -4.948917600000E-01
     30 T   6 C     3.105254600000E-01 -3.788403700000E-01 -4.965758100000E-01
     31 T   6 C     4.199436200000E-01  1.776447800000E-01  4.985863400000E-01
     32 T   6 C     4.737760400000E-01  2.867302800000E-01  4.961062000000E-01
     33 T   6 C     2.594468400000E-01  1.793918500000E-01  4.958918400000E-01
     34 T   6 C     3.127377900000E-01  1.255639000000E-01  4.965348300000E-01
     35 T   6 C     4.206381900000E-01  3.408613900000E-01  4.948814500000E-01
     36 T   6 C     3.124022700000E-01  2.868156500000E-01  4.965654900000E-01
     37 T   8 O     4.264295400000E-01  1.172905000000E-02  4.993518300000E-01
     38 T   8 O    -4.160501700000E-01  8.887000000000E-03 -4.953510500000E-01
     39 T   8 O    -4.139030100000E-01  1.721314500000E-01  4.966573600000E-01
     40 T   8 O     1.460173700000E-01  4.510095100000E-01  4.993518600000E-01
     41 T   8 O     1.446121100000E-01  2.892042900000E-01 -4.953510600000E-01
     42 T   8 O     3.056814200000E-01  4.524434200000E-01  4.966573400000E-01

 T = ATOM BELONGING TO THE ASYMMETRIC UNIT

 ****    1 SYMMOPS - TRANSLATORS IN FRACTIONAL UNITS
 **** MATRICES AND TRANSLATORS IN THE CRYSTALLOGRAPHIC REFERENCE FRAME
   V INV                    ROTATION MATRICES                   TRANSLATORS
   1   1  1.00 -0.00  0.00  0.00  1.00  0.00 -0.00  0.00  1.00  0.00  0.00  0.00

 DIRECT LATTICE VECTORS CARTESIAN COMPONENTS (ANGSTROM)
          X                    Y                    Z
   0.130113578931E+02  -0.751088897922E+01   0.000000000000E+00
   0.000000000000E+00   0.150239160000E+02   0.000000000000E+00
   0.349956458950E+01   0.606240197098E+01   0.400004176037E+01


 CARTESIAN COORDINATES - PRIMITIVE CELL
 *******************************************************************************
 *      ATOM          X(ANGSTROM)         Y(ANGSTROM)         Z(ANGSTROM)
 *******************************************************************************
    1     5 B     9.856837277020E-01  1.705024434842E+00 -5.995306670907E+00
    2     5 B    -6.456579518799E+00  1.449448998209E+00 -1.995264830533E+00
    3     5 B    -1.527035952151E+00 -2.552401276741E-01  5.994775465361E+00
    4     5 B    -5.426695250322E-01  1.449871952807E+00 -1.995264870534E+00
    5     5 B     1.527541216276E+00  2.545176076935E-01 -1.995264870534E+00
    6     5 B     1.527284730612E+00  2.645559774635E+00 -2.005308055384E+00
    7     1 H    -4.761102947976E+00 -6.928452794477E-01 -2.016086447911E+00
    8     1 H    -2.242222314934E+00  3.594104735758E+00 -2.019270401151E+00
    9     1 H    -1.262477862857E+00 -5.369861699377E+00  1.980281354106E+00
   10     1 H    -2.240899724487E+00 -6.940112184127E-01 -2.019638204991E+00
   11     1 H    -4.020092354406E+00  3.777992044471E+00  2.016045047479E+00
   12     1 H     5.200262894439E-01  5.190416262117E+00 -1.980812519651E+00
   13     1 H     5.280915418323E+00 -1.590384795650E+00  2.019719565840E+00
   14     1 H     4.233239952726E+00  3.045588048170E+00 -1.980445235817E+00
   15     1 H    -4.019567426309E+00 -3.778587979691E+00  1.983955512464E+00
   16     1 H     5.204441309680E-01 -2.289150450884E+00 -2.019270601153E+00
   17     1 H     1.780968072052E+00 -4.470901826840E+00 -2.019760806271E+00
   18     1 H     4.232962508201E+00 -1.451718120001E-01 -2.019637804987E+00
   19     6 C    -4.906222680187E+00  1.449407385966E+00 -2.005675539221E+00
   20     6 C    -4.195818156327E+00  2.406797105349E-01 -2.015596442795E+00
   21     6 C    -2.804916850957E+00  2.658895770964E+00 -2.016453491743E+00
   22     6 C    -4.196299608043E+00  2.658404248814E+00 -2.013881424890E+00
   23     6 C    -2.804419544910E+00  2.407297745583E-01 -2.020495573942E+00
   24     6 C    -2.093875118431E+00  1.449926275068E+00 -2.013759063613E+00
   25     6 C     2.096717020085E-01  3.628863364500E-01 -5.994449221955E+00
   26     6 C     9.010747912206E-01 -8.567245805189E-01 -5.984528518383E+00
   27     6 C     1.611275136814E+00  5.209907473404E+00 -1.983629389060E+00
   28     6 C    -1.192326102170E+00  3.524093836994E-01 -5.986243136284E+00
   29     6 C     3.705039196729E+00  4.000673912118E+00 -1.979587706864E+00
   30     6 C     2.302558774287E+00  3.989485679146E+00 -1.986323977191E+00
   31     6 C     3.709307245497E+00 -3.525000815452E+00 -2.005675579221E+00
   32     6 C     4.401060718246E+00 -2.305474362361E+00 -2.015596242793E+00
   33     6 C     1.611596623448E+00 -2.309614628535E+00 -2.016453691745E+00
   34     6 C     2.307234431394E+00 -3.514685572991E+00 -2.013881704893E+00
   35     6 C     3.705379042497E+00 -1.100525547604E+00 -2.020495293939E+00
   36     6 C     2.302976157244E+00 -1.089346899423E+00 -2.013759063613E+00
   37     8 O    -2.215851960472E+00 -1.450002201838E+00  5.997469933492E+00
   38     8 O     2.364902646265E+00  1.706032046103E+00 -5.981466646418E+00
   39     8 O    -1.477910964499E-01 -2.557094688227E-01  5.986691940970E+00
   40     8 O     1.478337571289E-01  2.644078467631E+00 -2.002613467253E+00
   41     8 O     1.480868899318E-01  2.557982140684E-01 -1.981424926045E+00
   42     8 O     2.215850207556E+00  1.450067194141E+00 -2.013391659777E+00

 *******************************************************************************
 STARTING BASIS SET HANDLING 
 *******************************************************************************

 Loading internal basis set: SOLDEF2MSVP         

 Please cite in your publication:
 L. Dona', J. G. Brandenburg and B. Civalleri, J. Chem. Phys., 151, 121101 (2019
 )                                                                              
                                                                                
                    

 *******************************************************************************
 LOCAL ATOMIC FUNCTIONS BASIS SET
 *******************************************************************************
   ATOM   X(AU)   Y(AU)   Z(AU)  N. TYPE  EXPONENT  S COEF   P COEF   D/F/G COEF
 *******************************************************************************
   1 B    1.863   3.222 -11.329
                                  1 S  
                                         2.410E+03 1.755E-03 0.000E+00 0.000E+00
                                         3.619E+02 1.344E-02 0.000E+00 0.000E+00
                                         8.231E+01 6.637E-02 0.000E+00 0.000E+00
                                         2.311E+01 2.303E-01 0.000E+00 0.000E+00
                                         7.252E+00 5.150E-01 0.000E+00 0.000E+00
                                  2 S  
                                         2.367E+00 1.000E+00 0.000E+00 0.000E+00
                                  3 S  
                                         5.533E-01 1.000E+00 0.000E+00 0.000E+00
                                  4 S  
                                         1.716E-01 1.000E+00 0.000E+00 0.000E+00
                           5-     7 P  
                                         6.002E+00 0.000E+00-3.555E-02 0.000E+00
                                         1.240E+00 0.000E+00-1.983E-01 0.000E+00
                                         3.367E-01 0.000E+00-5.048E-01 0.000E+00
                           8-    10 P  
                                         1.256E-01 0.000E+00 1.000E+00 0.000E+00
                          11-    15 D  
                                         8.880E-01 0.000E+00 0.000E+00 1.000E+00
   2 B  -12.201   2.739  -3.771
   3 B   -2.886  -0.482  11.328
   4 B   -1.025   2.740  -3.771
   5 B    2.887   0.481  -3.771
   6 B    2.886   4.999  -3.789
   7 H   -8.997  -1.309  -3.810
                                 91 S  
                                         1.874E+01 1.968E-02 0.000E+00 0.000E+00
                                         2.826E+00 1.380E-01 0.000E+00 0.000E+00
                                         6.401E-01 4.783E-01 0.000E+00 0.000E+00
                                 92 S  
                                         1.756E-01 1.000E+00 0.000E+00 0.000E+00
   8 H   -4.237   6.792  -3.816
   9 H   -2.386 -10.148   3.742
  10 H   -4.235  -1.311  -3.817
  11 H   -7.597   7.139   3.810
  12 H    0.983   9.808  -3.743
  13 H    9.979  -3.005   3.817
  14 H    8.000   5.755  -3.742
  15 H   -7.596  -7.140   3.749
  16 H    0.983  -4.326  -3.816
  17 H    3.366  -8.449  -3.817
  18 H    7.999  -0.274  -3.817
  19 C   -9.271   2.739  -3.790
                                115 S  
                                         3.624E+03 1.634E-03 0.000E+00 0.000E+00
                                         5.440E+02 1.252E-02 0.000E+00 0.000E+00
                                         1.237E+02 6.211E-02 0.000E+00 0.000E+00
                                         3.476E+01 2.182E-01 0.000E+00 0.000E+00
                                         1.093E+01 4.980E-01 0.000E+00 0.000E+00
                                116 S  
                                         3.574E+00 1.000E+00 0.000E+00 0.000E+00
                                117 S  
                                         7.742E-01 1.000E+00 0.000E+00 0.000E+00
                                118 S  
                                         2.330E-01 1.000E+00 0.000E+00 0.000E+00
                         119-   121 P  
                                         9.443E+00 0.000E+00 3.790E-02 0.000E+00
                                         2.002E+00 0.000E+00 2.082E-01 0.000E+00
                                         5.463E-01 0.000E+00 5.047E-01 0.000E+00
                         122-   124 P  
                                         1.820E-01 0.000E+00 1.000E+00 0.000E+00
                         125-   129 D  
                                         8.880E-01 0.000E+00 0.000E+00 1.000E+00
  20 C   -7.929   0.455  -3.809
  21 C   -5.301   5.025  -3.811
  22 C   -7.930   5.024  -3.806
  23 C   -5.300   0.455  -3.818
  24 C   -3.957   2.740  -3.805
  25 C    0.396   0.686 -11.328
  26 C    1.703  -1.619 -11.309
  27 C    3.045   9.845  -3.749
  28 C   -2.253   0.666 -11.312
  29 C    7.002   7.560  -3.741
  30 C    4.351   7.539  -3.754
  31 C    7.010  -6.661  -3.790
  32 C    8.317  -4.357  -3.809
  33 C    3.045  -4.365  -3.811
  34 C    4.360  -6.642  -3.806
  35 C    7.002  -2.080  -3.818
  36 C    4.352  -2.059  -3.805
  37 O   -4.187  -2.740  11.334
                                385 S  
                                         6.773E+03 1.727E-03 0.000E+00 0.000E+00
                                         1.017E+03 1.325E-02 0.000E+00 0.000E+00
                                         2.313E+02 6.603E-02 0.000E+00 0.000E+00
                                         6.501E+01 2.353E-01 0.000E+00 0.000E+00
                                         2.050E+01 5.498E-01 0.000E+00 0.000E+00
                                386 S  
                                         6.716E+00 1.000E+00 0.000E+00 0.000E+00
                                387 S  
                                         1.147E+00 1.000E+00 0.000E+00 0.000E+00
                                388 S  
                                         3.342E-01 1.000E+00 0.000E+00 0.000E+00
                         389-   391 P  
                                         1.769E+01 0.000E+00 4.359E-02 0.000E+00
                                         3.854E+00 0.000E+00 2.318E-01 0.000E+00
                                         1.047E+00 0.000E+00 5.146E-01 0.000E+00
                         392-   394 P  
                                         2.759E-01 0.000E+00 1.000E+00 0.000E+00
                         395-   399 D  
                                         8.000E-01 0.000E+00 0.000E+00 1.000E+00
  38 O    4.469   3.224 -11.303
  39 O   -0.279  -0.483  11.313
  40 O    0.279   4.997  -3.784
  41 O    0.280   0.483  -3.744
  42 O    4.187   2.740  -3.805

 *******************************************************************************
 FINISHED BASIS SET HANDLING 
 *******************************************************************************

 INFORMATION **** SET_MPP **** PCRYSTAL CALCULATION
 INFORMATION **** READM2 **** NEW DEFAULT: FOCK/KS MATRIX MIXING SET TO 30 %
 INFORMATION **** READM2 **** NEW DEFAULT: FULL DIRECT SCF MODE
 INFORMATION **** READM2 **** NEW DEFAULT: COULOMB BIPOLAR BUFFER SET TO 32 Mb
 INFORMATION **** READM2 **** NEW DEFAULT: EXCHANGE BIPOLAR BUFFER SET TO 32 Mb

 *******************************************************************************
 NEW DEFAULT: DFT INTEGRATION GRID INCREASED TO XLGRID
 NEW DEFAULT: DIIS ACCELERATOR ACTIVE
 USE KEYWORD NODIIS TO TURN IT OFF
 *******************************************************************************

 WARNING **** RDDFTP **** HSEsol-HJS ACTIVE
 RANGE SEPARATION - OMEGA:   0.110000000000000     
 WARNING **** RDDFTP **** HSEsol-3c has to be combined with sol-def2-mSVP basis set
 *******************************************************************************
 N. OF ATOMS PER CELL        42  COULOMB OVERLAP TOL         (T1) 10**   -6
 NUMBER OF SHELLS           234  COULOMB PENETRATION TOL     (T2) 10**   -6
 NUMBER OF AO               474  EXCHANGE OVERLAP TOL        (T3) 10**   -6
 N. OF ELECTRONS PER CELL   198  EXCHANGE PSEUDO OVP (F(G))  (T4) 10**   -6
 CORE ELECTRONS PER CELL     60  EXCHANGE PSEUDO OVP (P(G))  (T5) 10**  -12
 N. OF SYMMETRY OPERATORS     1  POLE ORDER IN MONO ZONE                  4
 *******************************************************************************
 TYPE OF CALCULATION :  RESTRICTED CLOSED SHELL
 KOHN-SHAM HAMILTONIAN

 (EXCHANGE)[CORRELATION] FUNCTIONAL:(HSEsol GGA)[PBEsol]

 RANGE-SEPARATED HYBRID FUNCTIONAL 
 OMEGA (SHORT-RANGE)[LONG-RANGE]:(    0.1100)[    0.0000]

 HYBRID EXCHANGE - PERCENTAGE OF FOCK EXCHANGE    25.0000

 CAPPA:IS1  2;IS2  2;IS3  8; K PTS MONK NET  20; SYMMOPS:K SPACE   2;G SPACE   1

 *******************************************************************************
 MAX NUMBER OF SCF CYCLES      50  CONVERGENCE ON DELTAP        10**-16
 WEIGHT OF F(I) IN F(I+1)      30% CONVERGENCE ON ENERGY        10**- 6
 SHRINK. FACT.(MONKH.)    2  2  8  NUMBER OF K POINTS IN THE IBZ     20
 SHRINKING FACTOR(GILAT NET)    8  NUMBER OF K POINTS(GILAT NET)   1028
 *******************************************************************************
 *** K POINTS COORDINATES (OBLIQUE COORDINATES IN UNITS OF IS =  2)
   1-R(  0  0  0)   2-R(  1  0  0)   3-R(  0  1  0)   4-R(  1  1  0)
   5-C(  0  0  1)   6-C(  1  0  1)   7-C(  0  1  1)   8-C(  1  1  1)
   9-C(  0  0  2)  10-C(  1  0  2)  11-C(  0  1  2)  12-C(  1  1  2)
  13-C(  0  0  3)  14-C(  1  0  3)  15-C(  0  1  3)  16-C(  1  1  3)
  17-R(  0  0  4)  18-R(  1  0  4)  19-R(  0  1  4)  20-R(  1  1  4)

 DIRECT LATTICE VECTORS COMPON. (A.U.)     RECIP. LATTICE VECTORS COMPON. (A.U.) 
        X            Y            Z              X            Y            Z
   24.5879030  -14.1935232    0.0000000      0.2555397    0.0000000   -0.2235671
    0.0000000   28.3910867    0.0000000      0.1277517    0.2213084   -0.4471792
    6.6132187   11.4562794    7.5589835      0.0000000    0.0000000    0.8312209

 DISK SPACE FOR EIGENVECTORS (FTN 10)     7189632 REALS

 SYMMETRY ADAPTION OF THE BLOCH FUNCTIONS DISABLED
 TTTTTTTTTTTTTTTTTTTTTTTTTTTTTT gordsh1     TELAPSE        0.04 TCPU        0.04

 MATRIX SIZE: P(G)  293270, F(G)   58834, P(G) IRR  147820, F(G) IRR   59314
 MAX G-VECTOR INDEX FOR 1- AND 2-ELECTRON INTEGRALS  51

 TTTTTTTTTTTTTTTTTTTTTTTTTTTTTT INPUT       TELAPSE        0.39 TCPU        0.39

 NEIGHBORS OF THE NON-EQUIVALENT ATOMS

 N = NUMBER OF NEIGHBORS AT DISTANCE R
    ATOM  N     R/ANG      R/AU   NEIGHBORS (ATOM LABELS AND CELL INDICES)
   1 B    1     1.3791     2.6061   37 O    1 2-3
   1 B    1     1.3793     2.6065   38 O    0 0 0
   1 B    1     1.5503     2.9297   25 C    0 0 0
   1 B    1     2.3895     4.5155    3 B    1 2-3
   1 B    1     2.3898     4.5160    2 B    1 1-1
   1 B    1     2.5632     4.8437   26 C    0 0 0

   2 B    1     1.3793     2.6065   39 O    0 1-2
   2 B    1     1.3793     2.6065   38 O   -1-1 1
   2 B    1     1.5504     2.9298   19 C    0 0 0
   2 B    1     2.3895     4.5156    3 B    0 1-2
   2 B    1     2.3898     4.5160    1 B   -1-1 1
   2 B    1     2.5634     4.8440   22 C    0 0 0

   3 B    1     1.3791     2.6061   37 O    0 0 0
   3 B    1     1.3793     2.6064   39 O    0 0 0
   3 B    1     1.5502     2.9294   31 C   -1-1 2
   3 B    1     2.3895     4.5155    1 B   -1-2 3
   3 B    1     2.3895     4.5156    2 B    0-1 2
   3 B    1     2.5629     4.8433   32 C   -1-1 2

   4 B    1     1.3795     2.6068   40 O    0 0 0
   4 B    1     1.3795     2.6070   41 O    0 0 0
   4 B    1     1.5513     2.9316   24 C    0 0 0
   4 B    1     2.3905     4.5174    6 B    0 0 0
   4 B    1     2.3905     4.5175    5 B    0 0 0
   4 B    1     2.5648     4.8468   23 C    0 0 0

   5 B    1     1.3795     2.6069   41 O    0 0 0
   5 B    1     1.3797     2.6072   42 O    0 0 0
   5 B    1     1.5516     2.9322   36 C    0 0 0
   5 B    1     2.3905     4.5175    4 B    0 0 0
   5 B    1     2.3911     4.5185    6 B    0 0 0
   5 B    1     2.5651     4.8473   35 C    0 0 0

   6 B    1     1.3795     2.6068   40 O    0 0 0
   6 B    1     1.3796     2.6071   42 O    0 0 0
   6 B    1     1.5516     2.9322   30 C    0 0 0
   6 B    1     2.3905     4.5174    4 B    0 0 0
   6 B    1     2.3911     4.5185    5 B    0 0 0
   6 B    1     2.5651     4.8473   29 C    0 0 0

   7 H    1     1.0913     2.0623   20 C    0 0 0
   7 H    1     2.1472     4.0576   19 C    0 0 0
   7 H    1     2.1680     4.0969   23 C    0 0 0
   7 H    1     2.5202     4.7625   10 H    0 0 0
   7 H    1     2.5676     4.8520   38 O   -1-1 1
   7 H    1     2.7321     5.1630    2 B    0 0 0

   8 H    1     1.0914     2.0625   21 C    0 0 0
   8 H    1     2.1493     4.0616   24 C    0 0 0
   8 H    1     2.1666     4.0942   22 C    0 0 0
   8 H    1     2.5198     4.7618    9 H    0 1-1
   8 H    1     2.5720     4.8604   40 O    0 0 0
   8 H    1     2.7362     5.1707    4 B    0 0 0

   9 H    1     1.0914     2.0624   22 C    0-1 1
   9 H    1     2.1471     4.0575   19 C    0-1 1
   9 H    1     2.1680     4.0970   21 C    0-1 1
   9 H    1     2.5198     4.7618    8 H    0-1 1
   9 H    1     2.5665     4.8500   39 O    0 0-1
   9 H    1     2.7315     5.1618    2 B    0-1 1

  10 H    1     1.0915     2.0626   23 C    0 0 0
  10 H    1     2.1490     4.0610   24 C    0 0 0
  10 H    1     2.1669     4.0948   20 C    0 0 0
  10 H    1     2.5202     4.7625    7 H    0 0 0
  10 H    1     2.5712     4.8588   41 O    0 0 0
  10 H    1     2.7351     5.1686    4 B    0 0 0

  11 H    1     1.0913     2.0623   26 C   -1-1 2
  11 H    1     2.1469     4.0571   25 C   -1-1 2
  11 H    1     2.1680     4.0968   29 C   -1-1 1
  11 H    1     2.5198     4.7617   14 H   -1-1 1
  11 H    1     2.5670     4.8510   38 O   -1-1 2
  11 H    1     2.7310     5.1609    1 B   -1-1 2

  12 H    1     1.0914     2.0625   27 C    0 0 0
  12 H    1     2.1493     4.0617   30 C    0 0 0
  12 H    1     2.1664     4.0939   28 C    0 0 1
  12 H    1     2.5192     4.7606   13 H    0 1-1
  12 H    1     2.5735     4.8632   40 O    0 0 0
  12 H    1     2.7371     5.1723    6 B    0 0 0

  13 H    1     1.0914     2.0624   28 C    0-1 2
  13 H    1     2.1475     4.0581   25 C    0-1 2
  13 H    1     2.1679     4.0967   27 C    0-1 1
  13 H    1     2.5192     4.7606   12 H    0-1 1
  13 H    1     2.5675     4.8519   37 O    1 1-1
  13 H    1     2.7328     5.1643    1 B    0-1 2

  14 H    1     1.0914     2.0625   29 C    0 0 0
  14 H    1     2.1491     4.0612   30 C    0 0 0
  14 H    1     2.1666     4.0942   26 C    0 0 1
  14 H    1     2.5198     4.7617   11 H    1 1-1
  14 H    1     2.5723     4.8609   42 O    0 0 0
  14 H    1     2.7355     5.1693    6 B    0 0 0

  15 H    1     1.0914     2.0624   32 C   -1-1 1
  15 H    1     2.1475     4.0582   31 C   -1-1 1
  15 H    1     2.1678     4.0966   35 C   -1-1 1
  15 H    1     2.5200     4.7621   18 H   -1-1 1
  15 H    1     2.5667     4.8503   39 O    0 0-1
  15 H    1     2.7315     5.1618    3 B    0 0-1

  16 H    1     1.0913     2.0623   33 C    0 0 0
  16 H    1     2.1487     4.0605   36 C    0 0 0
  16 H    1     2.1667     4.0945   34 C    0 0 0
  16 H    1     2.5197     4.7616   17 H    0 0 0
  16 H    1     2.5723     4.8610   41 O    0 0 0
  16 H    1     2.7359     5.1701    5 B    0 0 0

  17 H    1     1.0915     2.0626   34 C    0 0 0
  17 H    1     2.1479     4.0589   31 C    0 0 0
  17 H    1     2.1679     4.0968   33 C    0 0 0
  17 H    1     2.5197     4.7616   16 H    0 0 0
  17 H    1     2.5677     4.8522   37 O    1 1-2
  17 H    1     2.7331     5.1648    3 B    1 1-2

  18 H    1     1.0914     2.0624   35 C    0 0 0
  18 H    1     2.1486     4.0602   36 C    0 0 0
  18 H    1     2.1668     4.0947   32 C    0 0 0
  18 H    1     2.5200     4.7621   15 H    1 1-1
  18 H    1     2.5717     4.8598   42 O    0 0 0
  18 H    1     2.7349     5.1682    5 B    0 0 0

  19 C    1     1.4020     2.6495   22 C    0 0 0
  19 C    1     1.4021     2.6495   20 C    0 0 0
  19 C    1     1.5504     2.9298    2 B    0 0 0
  19 C    1     2.1471     4.0575    9 H    0 1-1
  19 C    1     2.1472     4.0576    7 H    0 0 0
  19 C    1     2.4246     4.5817   21 C    0 0 0

  20 C    1     1.0913     2.0623    7 H    0 0 0
  20 C    1     1.3914     2.6294   23 C    0 0 0
  20 C    1     1.4021     2.6495   19 C    0 0 0
  20 C    1     2.1669     4.0948   10 H    0 0 0
  20 C    1     2.4177     4.5688   22 C    0 0 0
  20 C    1     2.4250     4.5825   24 C    0 0 0

  21 C    1     1.0914     2.0625    8 H    0 0 0
  21 C    1     1.3914     2.6293   22 C    0 0 0
  21 C    1     1.4026     2.6505   24 C    0 0 0
  21 C    1     2.1680     4.0970    9 H    0 1-1
  21 C    1     2.4182     4.5697   23 C    0 0 0
  21 C    1     2.4246     4.5817   19 C    0 0 0

  22 C    1     1.0914     2.0624    9 H    0 1-1
  22 C    1     1.3914     2.6293   21 C    0 0 0
  22 C    1     1.4020     2.6495   19 C    0 0 0
  22 C    1     2.1666     4.0942    8 H    0 0 0
  22 C    1     2.4177     4.5688   20 C    0 0 0
  22 C    1     2.4250     4.5826   24 C    0 0 0

  23 C    1     1.0915     2.0626   10 H    0 0 0
  23 C    1     1.3914     2.6294   20 C    0 0 0
  23 C    1     1.4025     2.6504   24 C    0 0 0
  23 C    1     2.1680     4.0969    7 H    0 0 0
  23 C    1     2.4182     4.5697   21 C    0 0 0
  23 C    1     2.4246     4.5818   19 C    0 0 0

  24 C    1     1.4025     2.6504   23 C    0 0 0
  24 C    1     1.4026     2.6505   21 C    0 0 0
  24 C    1     1.5513     2.9316    4 B    0 0 0
  24 C    1     2.1490     4.0610   10 H    0 0 0
  24 C    1     2.1493     4.0616    8 H    0 0 0
  24 C    1     2.4250     4.5825   20 C    0 0 0

  25 C    1     1.4020     2.6494   26 C    0 0 0
  25 C    1     1.4021     2.6495   28 C    0 0 0
  25 C    1     1.5503     2.9297    1 B    0 0 0
  25 C    1     2.1469     4.0571   11 H    1 1-2
  25 C    1     2.1475     4.0581   13 H    0 1-2
  25 C    1     2.4246     4.5818   27 C    0 0-1

  26 C    1     1.0913     2.0623   11 H    1 1-2
  26 C    1     1.3914     2.6293   29 C    0 0-1
  26 C    1     1.4020     2.6494   25 C    0 0 0
  26 C    1     2.1666     4.0942   14 H    0 0-1
  26 C    1     2.4175     4.5684   28 C    0 0 0
  26 C    1     2.4251     4.5828   30 C    0 0-1

  27 C    1     1.0914     2.0625   12 H    0 0 0
  27 C    1     1.3915     2.6295   28 C    0 0 1
  27 C    1     1.4026     2.6505   30 C    0 0 0
  27 C    1     2.1679     4.0967   13 H    0 1-1
  27 C    1     2.4179     4.5691   29 C    0 0 0
  27 C    1     2.4246     4.5818   25 C    0 0 1

  28 C    1     1.0914     2.0624   13 H    0 1-2
  28 C    1     1.3915     2.6295   27 C    0 0-1
  28 C    1     1.4021     2.6495   25 C    0 0 0
  28 C    1     2.1664     4.0939   12 H    0 0-1
  28 C    1     2.4175     4.5684   26 C    0 0 0
  28 C    1     2.4253     4.5832   30 C    0 0-1

  29 C    1     1.0914     2.0625   14 H    0 0 0
  29 C    1     1.3914     2.6293   26 C    0 0 1
  29 C    1     1.4025     2.6504   30 C    0 0 0
  29 C    1     2.1680     4.0968   11 H    1 1-1
  29 C    1     2.4179     4.5691   27 C    0 0 0
  29 C    1     2.4247     4.5819   25 C    0 0 1

  30 C    1     1.4025     2.6504   29 C    0 0 0
  30 C    1     1.4026     2.6505   27 C    0 0 0
  30 C    1     1.5516     2.9322    6 B    0 0 0
  30 C    1     2.1491     4.0612   14 H    0 0 0
  30 C    1     2.1493     4.0617   12 H    0 0 0
  30 C    1     2.4251     4.5828   26 C    0 0 1

  31 C    1     1.4021     2.6496   32 C    0 0 0
  31 C    1     1.4021     2.6497   34 C    0 0 0
  31 C    1     1.5502     2.9294    3 B    1 1-2
  31 C    1     2.1475     4.0582   15 H    1 1-1
  31 C    1     2.1479     4.0589   17 H    0 0 0
  31 C    1     2.4244     4.5814   33 C    0 0 0

  32 C    1     1.0914     2.0624   15 H    1 1-1
  32 C    1     1.3914     2.6293   35 C    0 0 0
  32 C    1     1.4021     2.6496   31 C    0 0 0
  32 C    1     2.1668     4.0947   18 H    0 0 0
  32 C    1     2.4179     4.5692   34 C    0 0 0
  32 C    1     2.4251     4.5827   36 C    0 0 0

  33 C    1     1.0913     2.0623   16 H    0 0 0
  33 C    1     1.3914     2.6294   34 C    0 0 0
  33 C    1     1.4025     2.6504   36 C    0 0 0
  33 C    1     2.1679     4.0968   17 H    0 0 0
  33 C    1     2.4178     4.5690   35 C    0 0 0
  33 C    1     2.4244     4.5814   31 C    0 0 0

  34 C    1     1.0915     2.0626   17 H    0 0 0
  34 C    1     1.3914     2.6294   33 C    0 0 0
  34 C    1     1.4021     2.6497   31 C    0 0 0
  34 C    1     2.1667     4.0945   16 H    0 0 0
  34 C    1     2.4179     4.5692   32 C    0 0 0
  34 C    1     2.4253     4.5832   36 C    0 0 0

  35 C    1     1.0914     2.0624   18 H    0 0 0
  35 C    1     1.3914     2.6293   32 C    0 0 0
  35 C    1     1.4025     2.6503   36 C    0 0 0
  35 C    1     2.1678     4.0966   15 H    1 1-1
  35 C    1     2.4178     4.5690   33 C    0 0 0
  35 C    1     2.4245     4.5817   31 C    0 0 0

  36 C    1     1.4025     2.6503   35 C    0 0 0
  36 C    1     1.4025     2.6504   33 C    0 0 0
  36 C    1     1.5516     2.9322    5 B    0 0 0
  36 C    1     2.1486     4.0602   18 H    0 0 0
  36 C    1     2.1487     4.0605   16 H    0 0 0
  36 C    1     2.4251     4.5827   32 C    0 0 0

  37 O    2     1.3791     2.6061    1 B   -1-2 3    3 B    0 0 0
  37 O    1     2.3880     4.5126   38 O   -1-2 3
  37 O    1     2.3882     4.5130   39 O    0 0 0
  37 O    1     2.5383     4.7966   31 C   -1-1 2
  37 O    1     2.5384     4.7968   25 C   -1-2 3
  37 O    1     2.5675     4.8519   13 H   -1-1 1

  38 O    1     1.3793     2.6065    1 B    0 0 0
  38 O    1     1.3793     2.6065    2 B    1 1-1
  38 O    1     2.3880     4.5126   37 O    1 2-3
  38 O    1     2.3882     4.5131   39 O    1 2-3
  38 O    1     2.5391     4.7981   19 C    1 1-1
  38 O    1     2.5395     4.7990   25 C    0 0 0

  39 O    1     1.3793     2.6064    3 B    0 0 0
  39 O    1     1.3793     2.6065    2 B    0-1 2
  39 O    1     2.3882     4.5130   37 O    0 0 0
  39 O    1     2.3882     4.5131   38 O   -1-2 3
  39 O    1     2.5390     4.7980   19 C    0-1 2
  39 O    1     2.5391     4.7982   31 C   -1-1 2

  40 O    1     1.3795     2.6068    6 B    0 0 0
  40 O    1     1.3795     2.6068    4 B    0 0 0
  40 O    1     2.3880     4.5126   42 O    0 0 0
  40 O    1     2.3884     4.5134   41 O    0 0 0
  40 O    1     2.5400     4.7998   24 C    0 0 0
  40 O    1     2.5403     4.8005   30 C    0 0 0

  41 O    1     1.3795     2.6069    5 B    0 0 0
  41 O    1     1.3795     2.6070    4 B    0 0 0
  41 O    1     2.3881     4.5128   42 O    0 0 0
  41 O    1     2.3884     4.5134   40 O    0 0 0
  41 O    1     2.5404     4.8006   24 C    0 0 0
  41 O    1     2.5405     4.8008   36 C    0 0 0

  42 O    1     1.3796     2.6071    6 B    0 0 0
  42 O    1     1.3797     2.6072    5 B    0 0 0
  42 O    1     2.3880     4.5126   40 O    0 0 0
  42 O    1     2.3881     4.5128   41 O    0 0 0
  42 O    1     2.5409     4.8016   36 C    0 0 0
  42 O    1     2.5410     4.8019   30 C    0 0 0


 SYMMETRY ALLOWED INTERNAL DEGREE(S) OF FREEDOM: 123
 TTTTTTTTTTTTTTTTTTTTTTTTTTTTTT SYMM        TELAPSE        0.40 TCPU        0.39
 TTTTTTTTTTTTTTTTTTTTTTTTTTTTTT INT_SCREEN  TELAPSE        0.43 TCPU        0.43

 DFT PARAMETERS

     ATOM       ELECTRONS   NET CHARGE   R(ANGSTROM)
   1   5  B       5.0000      0.0000     0.89000000
   7   1  H       1.0000      0.0000     1.11000000
  19   6  C       6.0000      0.0000     0.77000000
  37   8  O       8.0000      0.0000     0.74000000

 SIZE OF GRID=    1325453
 TTTTTTTTTTTTTTTTTTTTTTTTTTTTTT MAKE_GRID2  TELAPSE        8.27 TCPU        8.26
 BECKE WEIGHT FUNCTION
 RADSAFE =     2.00
 TOLERANCES - DENSITY:10**- 6; POTENTIAL:10**- 9; GRID WGT:10**-14

 RADIAL INTEGRATION  - INTERVALS (POINTS,UPPER LIMIT):            1( 75,  4.0*R)

 ANGULAR INTEGRATION - INTERVALS (ACCURACY LEVEL [N. POINTS] UPPER LIMIT):
  1(  4[  86]   0.2)  2(  8[ 194]   0.5)  3( 12[ 350]   0.9)  4( 16[ 974]   3.5)
  5( 12[ 350]9999.0)
 TTTTTTTTTTTTTTTTTTTTTTTTTTTTTT INT_CALC    TELAPSE        8.34 TCPU        8.33
 EEEEEEEEEE INT_CALC TERMINATION  DATE 19 02 2026 TIME 19:07:45.7

 *******************************************************************************
 cof-1_z40_L070_incl                                                             
 CRYSTAL - SCF - TYPE OF CALCULATION :  RESTRICTED CLOSED SHELL
 *******************************************************************************

 CAPPA:IS1  2;IS2  2;IS3  8; K PTS MONK NET  20; SYMMOPS:K SPACE   2;G SPACE   1

 TTTTTTTTTTTTTTTTTTTTTTTTTTTTTT SDIK        TELAPSE        8.92 TCPU       16.28

 AAAAAAAAAAAAAAAAAAAAAAAAAAAAAAAAAAAAAAAAAAAAAAAAAAAAAAAAAAAAAAAAAAAAAAAAAAAAAAA
         ATOMIC WAVEFUNCTION(S)


 NUCLEAR CHARGE  5.0  SYMMETRY SPECIES            S    P
 N. ELECTRONS    5.0  NUMBER OF PRIMITIVE GTOS    8    4
                      NUMBER OF CONTRACTED GTOS   4    2
                      NUMBER OF CLOSED SHELLS     2    0
                      OPEN SHELL OCCUPATION       0    1

  ZNUC  SCFIT    TOTAL HF ENERGY   KINETIC ENERGY   VIRIAL THEOREM ACCURACY
   5.0    11    -2.451164084E+01  2.462155050E+01 -1.995536038E+00  1.5E-06

 NUCLEAR CHARGE  1.0  SYMMETRY SPECIES            S
 N. ELECTRONS    1.0  NUMBER OF PRIMITIVE GTOS    4
                      NUMBER OF CONTRACTED GTOS   2
                      NUMBER OF CLOSED SHELLS     0
                      OPEN SHELL OCCUPATION       1

  ZNUC  SCFIT    TOTAL HF ENERGY   KINETIC ENERGY   VIRIAL THEOREM ACCURACY
   1.0     1    -4.977266687E-01  5.190767460E-01 -1.958869132E+00  0.0E+00

 NUCLEAR CHARGE  6.0  SYMMETRY SPECIES            S    P
 N. ELECTRONS    6.0  NUMBER OF PRIMITIVE GTOS    8    4
                      NUMBER OF CONTRACTED GTOS   4    2
                      NUMBER OF CLOSED SHELLS     2    0
                      OPEN SHELL OCCUPATION       0    2

  ZNUC  SCFIT    TOTAL HF ENERGY   KINETIC ENERGY   VIRIAL THEOREM ACCURACY
   6.0     9    -3.766704647E+01  3.775180683E+01 -1.997754800E+00  1.1E-06

 NUCLEAR CHARGE  8.0  SYMMETRY SPECIES            S    P
 N. ELECTRONS    8.0  NUMBER OF PRIMITIVE GTOS    8    4
                      NUMBER OF CONTRACTED GTOS   4    2
                      NUMBER OF CLOSED SHELLS     2    0
                      OPEN SHELL OCCUPATION       0    4

  ZNUC  SCFIT    TOTAL HF ENERGY   KINETIC ENERGY   VIRIAL THEOREM ACCURACY
   8.0    12    -7.477373220E+01  7.477365593E+01 -2.000001020E+00  3.8E-06

 AAAAAAAAAAAAAAAAAAAAAAAAAAAAAAAAAAAAAAAAAAAAAAAAAAAAAAAAAAAAAAAAAAAAAAAAAAAAAAA

 CHARGE NORMALIZATION FACTOR   1.00000000
 TOTAL ATOMIC CHARGES:
   5.0000000   5.0000000   5.0000000   5.0000000   5.0000000   5.0000000
   1.0000000   1.0000000   1.0000000   1.0000000   1.0000000   1.0000000
   1.0000000   1.0000000   1.0000000   1.0000000   1.0000000   1.0000000
   6.0000000   6.0000000   6.0000000   6.0000000   6.0000000   6.0000000
   6.0000000   6.0000000   6.0000000   6.0000000   6.0000000   6.0000000
   6.0000000   6.0000000   6.0000000   6.0000000   6.0000000   6.0000000
   8.0000000   8.0000000   8.0000000   8.0000000   8.0000000   8.0000000
 TTTTTTTTTTTTTTTTTTTTTTTTTTTTTT MOQGAD      TELAPSE        8.96 TCPU       17.58
 TTTTTTTTTTTTTTTTTTTTTTTTTTTTTT SHELLXN     TELAPSE       14.53 TCPU      195.74
 TTTTTTTTTTTTTTTTTTTTTTTTTTTTTT MONMO3      TELAPSE       14.66 TCPU      199.85
 NUMERICALLY INTEGRATED DENSITY    197.9999898199
 TTTTTTTTTTTTTTTTTTTTTTTTTTTTTT NUMDFT      TELAPSE       15.23 TCPU      217.96
 CYC   0 ETOT(AU) -1.295955485890E+03 DETOT -1.30E+03 tst  0.00E+00 PX  1.00E+00
 TTTTTTTTTTTTTTTTTTTTTTTTTTTTTT DIIS        TELAPSE       15.27 TCPU      219.17
 TTTTTTTTTTTTTTTTTTTTTTTTTTTTTT FDIK        TELAPSE       15.75 TCPU      234.64
 INSULATING STATE
 TOP OF VALENCE BANDS -    BAND     99; K    1; EIG -3.1228205E-01 AU
 BOTTOM OF VIRTUAL BANDS - BAND    100; K   17; EIG -1.5680831E-01 AU
 INDIRECT ENERGY BAND GAP:   4.2307 eV
 BOTTOM OF VIRTUAL BANDS - BAND    100; K    1; EIG -1.5674329E-01 AU
 TTTTTTTTTTTTTTTTTTTTTTTTTTTTTT PDIG        TELAPSE       16.08 TCPU      240.70
 CHARGE NORMALIZATION FACTOR   1.00000000
 TOTAL ATOMIC CHARGES:
   4.1546016   4.1648367   4.1651708   4.1646514   4.1643690   4.1539358
   0.7851721   0.7852948   0.7851196   0.7852573   0.7854823   0.7856637
   0.7854677   0.7856180   0.7851223   0.7853242   0.7851208   0.7852880
   6.0432259   6.2656061   6.2655855   6.2652545   6.2652565   6.0426549
   6.0456506   6.2653470   6.2655179   6.2652693   6.2655077   6.0443805
   6.0436345   6.2650065   6.2656246   6.2652231   6.2658693   6.0422099
   8.6933864   8.6936056   8.6931332   8.6938577   8.6935810   8.6941158
 TTTTTTTTTTTTTTTTTTTTTTTTTTTTTT MOQGAD      TELAPSE       16.12 TCPU      240.75
 TTTTTTTTTTTTTTTTTTTTTTTTTTTTTT SHELLXN     TELAPSE       21.93 TCPU      425.85
 TTTTTTTTTTTTTTTTTTTTTTTTTTTTTT MONMO3      TELAPSE       22.05 TCPU      429.95
 NUMERICALLY INTEGRATED DENSITY    198.0000023607
 TTTTTTTTTTTTTTTTTTTTTTTTTTTTTT NUMDFT      TELAPSE       22.63 TCPU      448.36
 CYC   1 ETOT(AU) -1.288812796530E+03 DETOT  7.14E+00 tst  0.00E+00 PX  1.00E+00
 TTTTTTTTTTTTTTTTTTTTTTTTTTTTTT DIIS        TELAPSE       22.68 TCPU      449.82
 DIIS TEST: 0.11137E+01 AT SCF   CYCLE   1 - MIX   30 %
 TTTTTTTTTTTTTTTTTTTTTTTTTTTTTT FDIK        TELAPSE       23.17 TCPU      465.58
 INSULATING STATE
 TOP OF VALENCE BANDS -    BAND     99; K    1; EIG -2.2380231E-01 AU
 BOTTOM OF VIRTUAL BANDS - BAND    100; K    1; EIG -8.1802328E-02 AU
 DIRECT ENERGY BAND GAP:   3.8640 eV
 TTTTTTTTTTTTTTTTTTTTTTTTTTTTTT PDIG        TELAPSE       23.49 TCPU      471.64
 CHARGE NORMALIZATION FACTOR   1.00000000
 TOTAL ATOMIC CHARGES:
   4.7138089   4.7065842   4.7070698   4.7068377   4.7064321   4.7142398
   0.9085677   0.9086870   0.9097615   0.9096107   0.9058910   0.9060749
   0.9059579   0.9059727   0.9096903   0.9096748   0.9086254   0.9086650
   5.8679605   6.1405165   6.1410385   6.1307473   6.1307964   5.8705543
   5.8851022   6.1261696   6.1273998   6.1265940   6.1273369   5.8886011
   5.8679312   6.1307777   6.1308873   6.1409325   6.1404417   5.8705120
   8.3359563   8.3363097   8.3297567   8.3359808   8.3292358   8.3363102
 TTTTTTTTTTTTTTTTTTTTTTTTTTTTTT MOQGAD      TELAPSE       23.54 TCPU      471.68
 TTTTTTTTTTTTTTTTTTTTTTTTTTTTTT SHELLXN     TELAPSE       29.34 TCPU      656.79
 TTTTTTTTTTTTTTTTTTTTTTTTTTTTTT MONMO3      TELAPSE       29.47 TCPU      660.89
 NUMERICALLY INTEGRATED DENSITY    198.0000030639
 TTTTTTTTTTTTTTTTTTTTTTTTTTTTTT NUMDFT      TELAPSE       30.05 TCPU      679.28
 CYC   2 ETOT(AU) -1.289007509356E+03 DETOT -1.95E-01 tst  3.29E-03 PX  1.59E-01
 TTTTTTTTTTTTTTTTTTTTTTTTTTTTTT DIIS        TELAPSE       30.10 TCPU      680.92
 DIIS TEST: 0.46248E+00 AT SCF   CYCLE   2 - DIIS ACTIVE - HISTORY:     2 CYCLES
 TTTTTTTTTTTTTTTTTTTTTTTTTTTTTT FDIK        TELAPSE       30.59 TCPU      696.58
 INSULATING STATE
 TOP OF VALENCE BANDS -    BAND     99; K    1; EIG -2.3707226E-01 AU
 BOTTOM OF VIRTUAL BANDS - BAND    100; K    1; EIG -7.6038893E-02 AU
 DIRECT ENERGY BAND GAP:   4.3819 eV
 TTTTTTTTTTTTTTTTTTTTTTTTTTTTTT PDIG        TELAPSE       30.91 TCPU      702.64
 CHARGE NORMALIZATION FACTOR   1.00000000
 TOTAL ATOMIC CHARGES:
   4.5019119   4.5017438   4.5021349   4.5019492   4.5014895   4.5019371
   0.8871947   0.8874749   0.8881358   0.8880448   0.8839382   0.8843947
   0.8840429   0.8842614   0.8880583   0.8881199   0.8873200   0.8873523
   5.8914696   6.1611021   6.1606632   6.1607105   6.1605698   5.8914145
   5.8914350   6.1623484   6.1618672   6.1622558   6.1620065   5.8903106
   5.8914738   6.1607200   6.1606855   6.1608051   6.1608257   5.8914090
   8.5102458   8.5106129   8.5129747   8.5104896   8.5132491   8.5108513
 TTTTTTTTTTTTTTTTTTTTTTTTTTTTTT MOQGAD      TELAPSE       30.96 TCPU      702.68
 TTTTTTTTTTTTTTTTTTTTTTTTTTTTTT SHELLXN     TELAPSE       36.76 TCPU      887.78
 TTTTTTTTTTTTTTTTTTTTTTTTTTTTTT MONMO3      TELAPSE       36.89 TCPU      891.88
 NUMERICALLY INTEGRATED DENSITY    198.0000032180
 TTTTTTTTTTTTTTTTTTTTTTTTTTTTTT NUMDFT      TELAPSE       37.47 TCPU      910.31
 CYC   3 ETOT(AU) -1.289102877829E+03 DETOT -9.54E-02 tst  6.83E-04 PX  6.47E-02
 TTTTTTTTTTTTTTTTTTTTTTTTTTTTTT DIIS        TELAPSE       37.52 TCPU      911.99
 DIIS TEST: 0.13426E-01 AT SCF   CYCLE   3 - DIIS ACTIVE - HISTORY:     3 CYCLES
 TTTTTTTTTTTTTTTTTTTTTTTTTTTTTT FDIK        TELAPSE       38.01 TCPU      927.64
 INSULATING STATE
 TOP OF VALENCE BANDS -    BAND     99; K    1; EIG -2.4656461E-01 AU
 BOTTOM OF VIRTUAL BANDS - BAND    100; K    1; EIG -8.4728080E-02 AU
 DIRECT ENERGY BAND GAP:   4.4038 eV
 TTTTTTTTTTTTTTTTTTTTTTTTTTTTTT PDIG        TELAPSE       38.34 TCPU      933.71
 CHARGE NORMALIZATION FACTOR   1.00000000
 TOTAL ATOMIC CHARGES:
   4.5078583   4.5064987   4.5069119   4.5066006   4.5061053   4.5078895
   0.8700231   0.8701554   0.8712802   0.8712233   0.8676127   0.8677735
   0.8676736   0.8676792   0.8712443   0.8712828   0.8700740   0.8701174
   5.9385476   6.1705585   6.1710378   6.1644485   6.1645215   5.9401387
   5.9491178   6.1627294   6.1637378   6.1629900   6.1636251   5.9514045
   5.9387633   6.1643168   6.1647430   6.1707547   6.1707033   5.9399060
   8.4799295   8.4801828   8.4748155   8.4800928   8.4745743   8.4803566
 TTTTTTTTTTTTTTTTTTTTTTTTTTTTTT MOQGAD      TELAPSE       38.38 TCPU      933.75
 TTTTTTTTTTTTTTTTTTTTTTTTTTTTTT SHELLXN     TELAPSE       44.19 TCPU     1118.91
 TTTTTTTTTTTTTTTTTTTTTTTTTTTTTT MONMO3      TELAPSE       44.31 TCPU     1123.01
 NUMERICALLY INTEGRATED DENSITY    198.0000031637
 TTTTTTTTTTTTTTTTTTTTTTTTTTTTTT NUMDFT      TELAPSE       44.89 TCPU     1141.40
 CYC   4 ETOT(AU) -1.289105703455E+03 DETOT -2.83E-03 tst  3.08E-05 PX  1.34E-02
 TTTTTTTTTTTTTTTTTTTTTTTTTTTTTT DIIS        TELAPSE       44.95 TCPU     1143.42
 DIIS TEST: 0.39618E-02 AT SCF   CYCLE   4 - DIIS ACTIVE - HISTORY:     4 CYCLES
 TTTTTTTTTTTTTTTTTTTTTTTTTTTTTT FDIK        TELAPSE       45.45 TCPU     1159.23
 INSULATING STATE
 TOP OF VALENCE BANDS -    BAND     99; K    1; EIG -2.4482313E-01 AU
 BOTTOM OF VIRTUAL BANDS - BAND    100; K    1; EIG -8.4406495E-02 AU
 DIRECT ENERGY BAND GAP:   4.3652 eV
 TTTTTTTTTTTTTTTTTTTTTTTTTTTTTT PDIG        TELAPSE       45.77 TCPU     1165.29
 CHARGE NORMALIZATION FACTOR   1.00000000
 TOTAL ATOMIC CHARGES:
   4.5111831   4.5083829   4.5088171   4.5086240   4.5081391   4.5113347
   0.8731719   0.8734106   0.8742336   0.8741712   0.8702349   0.8706116
   0.8703256   0.8704901   0.8741676   0.8742459   0.8732733   0.8733218
   5.9211270   6.1695924   6.1693758   6.1656501   6.1654467   5.9215288
   5.9278531   6.1652513   6.1651255   6.1652468   6.1652546   5.9277295
   5.9210975   6.1656378   6.1655752   6.1694301   6.1693949   5.9215290
   8.4882852   8.4886520   8.4878666   8.4884641   8.4879139   8.4888330
 TTTTTTTTTTTTTTTTTTTTTTTTTTTTTT MOQGAD      TELAPSE       45.82 TCPU     1165.33
 TTTTTTTTTTTTTTTTTTTTTTTTTTTTTT SHELLXN     TELAPSE       51.62 TCPU     1350.45
 TTTTTTTTTTTTTTTTTTTTTTTTTTTTTT MONMO3      TELAPSE       51.75 TCPU     1354.55
 NUMERICALLY INTEGRATED DENSITY    198.0000031683
 TTTTTTTTTTTTTTTTTTTTTTTTTTTTTT NUMDFT      TELAPSE       52.33 TCPU     1372.99
 CYC   5 ETOT(AU) -1.289106611457E+03 DETOT -9.08E-04 tst  7.04E-06 PX  6.72E-03
 TTTTTTTTTTTTTTTTTTTTTTTTTTTTTT DIIS        TELAPSE       52.39 TCPU     1375.02
 DIIS TEST: 0.66445E-04 AT SCF   CYCLE   5 - DIIS ACTIVE - HISTORY:     5 CYCLES
 TTTTTTTTTTTTTTTTTTTTTTTTTTTTTT FDIK        TELAPSE       52.88 TCPU     1390.72
 INSULATING STATE
 TOP OF VALENCE BANDS -    BAND     99; K    1; EIG -2.4465870E-01 AU
 BOTTOM OF VIRTUAL BANDS - BAND    100; K    1; EIG -8.3824848E-02 AU
 DIRECT ENERGY BAND GAP:   4.3765 eV
 TTTTTTTTTTTTTTTTTTTTTTTTTTTTTT PDIG        TELAPSE       53.21 TCPU     1396.79
 CHARGE NORMALIZATION FACTOR   1.00000000
 TOTAL ATOMIC CHARGES:
   4.5102443   4.5085746   4.5089888   4.5086875   4.5082138   4.5102524
   0.8740520   0.8742115   0.8750977   0.8750081   0.8712493   0.8714664
   0.8713103   0.8713752   0.8750452   0.8750685   0.8741132   0.8741621
   5.9207371   6.1690472   6.1693464   6.1648788   6.1650149   5.9220347
   5.9267181   6.1643374   6.1651414   6.1645669   6.1650280   5.9282838
   5.9209561   6.1647906   6.1652142   6.1691596   6.1690943   5.9217952
   8.4885274   8.4887817   8.4858961   8.4887266   8.4858168   8.4889859
 TTTTTTTTTTTTTTTTTTTTTTTTTTTTTT MOQGAD      TELAPSE       53.25 TCPU     1396.83
 TTTTTTTTTTTTTTTTTTTTTTTTTTTTTT SHELLXN     TELAPSE       59.06 TCPU     1581.93
 TTTTTTTTTTTTTTTTTTTTTTTTTTTTTT MONMO3      TELAPSE       59.18 TCPU     1586.03
 NUMERICALLY INTEGRATED DENSITY    198.0000031703
 TTTTTTTTTTTTTTTTTTTTTTTTTTTTTT NUMDFT      TELAPSE       59.76 TCPU     1604.37
 CYC   6 ETOT(AU) -1.289106629888E+03 DETOT -1.84E-05 tst  1.82E-07 PX  1.18E-03
 TTTTTTTTTTTTTTTTTTTTTTTTTTTTTT DIIS        TELAPSE       59.83 TCPU     1606.71
 DIIS TEST: 0.72011E-05 AT SCF   CYCLE   6 - DIIS ACTIVE - HISTORY:     6 CYCLES
 TTTTTTTTTTTTTTTTTTTTTTTTTTTTTT FDIK        TELAPSE       60.33 TCPU     1622.61
 INSULATING STATE
 TOP OF VALENCE BANDS -    BAND     99; K    1; EIG -2.4464766E-01 AU
 BOTTOM OF VIRTUAL BANDS - BAND    100; K    1; EIG -8.3917922E-02 AU
 DIRECT ENERGY BAND GAP:   4.3737 eV
 TTTTTTTTTTTTTTTTTTTTTTTTTTTTTT PDIG        TELAPSE       60.66 TCPU     1628.67
 CHARGE NORMALIZATION FACTOR   1.00000000
 TOTAL ATOMIC CHARGES:
   4.5107666   4.5084322   4.5088591   4.5086668   4.5081816   4.5108949
   0.8740129   0.8742388   0.8750919   0.8750332   0.8711093   0.8714766
   0.8712020   0.8713527   0.8750293   0.8751041   0.8741133   0.8741508
   5.9212827   6.1689576   6.1688069   6.1649565   6.1647393   5.9217484
   5.9280600   6.1645055   6.1644297   6.1644960   6.1645610   5.9281295
   5.9212547   6.1649239   6.1648857   6.1688089   6.1688143   5.9217525
   8.4880062   8.4883723   8.4870182   8.4881871   8.4870296   8.4885572
 TTTTTTTTTTTTTTTTTTTTTTTTTTTTTT MOQGAD      TELAPSE       60.70 TCPU     1628.71
 TTTTTTTTTTTTTTTTTTTTTTTTTTTTTT SHELLXN     TELAPSE       66.50 TCPU     1813.82
 TTTTTTTTTTTTTTTTTTTTTTTTTTTTTT MONMO3      TELAPSE       66.63 TCPU     1817.92
 NUMERICALLY INTEGRATED DENSITY    198.0000031739
 TTTTTTTTTTTTTTTTTTTTTTTTTTTTTT NUMDFT      TELAPSE       67.21 TCPU     1836.37
 CYC   7 ETOT(AU) -1.289106630766E+03 DETOT -8.78E-07 tst  1.95E-08 PX  4.73E-04
 TTTTTTTTTTTTTTTTTTTTTTTTTTTTTT DIIS        TELAPSE       67.28 TCPU     1838.72
 DIIS TEST: 0.12282E-05 AT SCF   CYCLE   7 - DIIS ACTIVE - HISTORY:     7 CYCLES
 TTTTTTTTTTTTTTTTTTTTTTTTTTTTTT FDIK        TELAPSE       67.78 TCPU     1854.43
 INSULATING STATE
 TOP OF VALENCE BANDS -    BAND     99; K    1; EIG -2.4465528E-01 AU
 BOTTOM OF VIRTUAL BANDS - BAND    100; K    1; EIG -8.3925071E-02 AU
 DIRECT ENERGY BAND GAP:   4.3737 eV
 TTTTTTTTTTTTTTTTTTTTTTTTTTTTTT PDIG        TELAPSE       68.10 TCPU     1860.49
 CHARGE NORMALIZATION FACTOR   1.00000000
 TOTAL ATOMIC CHARGES:
   4.5107511   4.5085427   4.5089650   4.5087149   4.5082352   4.5108286
   0.8739925   0.8741904   0.8750656   0.8749859   0.8711249   0.8714167
   0.8711991   0.8713118   0.8750060   0.8750540   0.8740729   0.8741224
   5.9209976   6.1689761   6.1690282   6.1648547   6.1648425   5.9218861
   5.9274975   6.1643547   6.1647264   6.1644838   6.1647185   5.9282650
   5.9211099   6.1648066   6.1650036   6.1689641   6.1688989   5.9217503
   8.4882312   8.4885357   8.4866810   8.4884180   8.4866640   8.4887260
 TTTTTTTTTTTTTTTTTTTTTTTTTTTTTT MOQGAD      TELAPSE       68.14 TCPU     1860.54
 TTTTTTTTTTTTTTTTTTTTTTTTTTTTTT SHELLXN     TELAPSE       74.03 TCPU     2048.11
 +++ ENERGIES IN A.U. +++
 ::: EXT EL-POLE                                  -1.3186553014761E+03
 ::: EXT EL-SPHEROPOLE                             1.4294350071706E+01
 ::: BIELET ZONE E-E                               2.0099214747450E+03
 ::: TOTAL E-E                                     7.0556052334066E+02
 ::: TOTAL E-N + N-E                              -3.2408130246199E+03
 ::: TOTAL N-N                                     9.9919685662852E+01
 ::: KINETIC ENERGY                                1.2799451899180E+03
 ::: PSEUDO TOTAL   ENERGY                        -1.1553876256985E+03
 ::: VIRIAL COEFFICIENT                            1.0511460131530E+00
 TTTTTTTTTTTTTTTTTTTTTTTTTTTTTT MONMO3      TELAPSE       74.17 TCPU     2052.48
 NUMERICALLY INTEGRATED DENSITY    198.0000031727
 EXCHANGE ENERGY: -0.126028967145E+03  CORRELATION ENERGY: -0.769003811915E+01
 TTTTTTTTTTTTTTTTTTTTTTTTTTTTTT NUMDFT      TELAPSE       74.77 TCPU     2071.68
 CYC   8 ETOT(AU) -1.289106630963E+03 DETOT -1.97E-07 tst  2.72E-09 PX  4.73E-04

 == SCF ENDED - CONVERGENCE ON ENERGY      E(AU) -1.2891066309631E+03 CYCLES   8


 ENERGY EXPRESSION=HARTREE+FOCK EXCH*0.00000+(HSESOL     EXCH)*1.00000+PBESOL     CORR


 TOTAL ENERGY(DFT)(AU)(  8) -1.2891066309631E+03 DE-2.0E-07 tester 2.7E-09
 TTTTTTTTTTTTTTTTTTTTTTTTTTTTTT EDFT        TELAPSE       74.77 TCPU     2071.69
 
 INFORMATION **** DFTD3 ENERGY **** CALCULATE DFTD3 ENERGY

           DFT-D V3(BJ)
 DF                                         hsesol3c  
 parameters
 s6       :    1.0000
 s8       :    0.0000
 a1       :    0.5196
 a2       :    4.9385
 k1 k3    :   16.0000   -4.0000
 Cutoff   :   50.2022
 CN-Cutoff:   21.1671
 ABC-Cutoff:   21.1671
 
 Edisp /kcal,au:   -23.1806 -0.03694069

 E6    /kcal :   -24.3646
 E8    /kcal :     0.0000
 E6(ABC) "   :   1.183989
 
 INFORMATION **** DFTD3 ENERGY **** NORMAL TERMINATION OF DFTD3 MODULE

 GCP ENERGY CALCULATION
  level        hsesol3c            basis:hsesol3c
  Nbf            474
  Atoms           42

  Parameters: 
  sigma     1.0000
  eta       1.4281
  alpha     0.2936
  beta      1.9467

  dmp_scal      4.0000
  dmp_exp       6.0000
 cutoffs: 
   distance [bohr] 60.0
   noise    [a.u.] 2.2E-16
 SR-damping   T
 ** gCP correction **
  Egcp:        0.0829509652 / (a.u.) ||      52.0525 / (kcal/mol)
 INFORMATION **** GCP **** NORMAL TERMINATION OF GCP MODULE

 *******************************************************************************

 DFT-D3-GCP DISPERSION AND COUNTERPOISE CORRECTION

 D3 DISPERSION ENERGY (AU)      -3.6940686581340E-02
 GCP ENERGY (AU)                 8.2950965203231E-02
 TOTAL ENERGY + DISP + GCP (AU) -1.2890606206844E+03

 *******************************************************************************

 EIGENVECTORS IN FORTRAN UNIT  8
 TTTTTTTTTTTTTTTTTTTTTTTTTTTTTT END         TELAPSE       76.12 TCPU     2078.90
 EEEEEEEEEE TERMINATION  DATE 19 02 2026 TIME 19:08:53.4
