 Default number of threads is:           32

         
 *******************************************************************************
 *                                                                             *
 *                               CRYSTAL23                                     *
 *                      public : 1.0.1 - October 2022                          *
 *                       HTTP://WWW.CRYSTAL.UNITO.IT                           *
 *                                                                             *
 *                              MAIN AUTHORS                                   *
 *                                                                             *
 *  R. DOVESI(1,11), V.R. SAUNDERS(2), C. ROETTI(1,11), R. ORLANDO(1,11),      *
 *  C.M. ZICOVICH-WILSON(1,3), F. PASCALE(4), B. CIVALLERI(1,11),              *
 *  K. DOLL(5), N.M. HARRISON(6), I.J. BUSH(7), Ph. D'ARCO(8),                 *
 *  M. LLUNELL(9), M. CAUSA'(10), Y. NOEL(8), L. MASCHIO(1,11), A. ERBA(1,11)  *
 *  M. RE'RAT(14), S. CASASSA(1,11), B.G. SEARLE(2), J.K. DESMARAIS(1)         *
 *                                                                             *
 *        CONTRIBUTIONS TO THE CODE HAVE ALSO BEEN GIVEN BY                    *
 *                                                                             *
 *  M. FERRABONE(1,11), M. DE LA PIERRE(1,11), M. FERRERO(1,11),               *
 *  J. BAIMA(1,11), E. ALBANESE(1,11), M.F. PEINTINGER(12), R. BAST(13),       *
 *  B. KIRTMAN(15), V. LACIVITA(1,11), R. DEMICHELIS(1,16)                     *
 *  G. BRANDEBURG(17), S. SALUSTRO(1,11), G. SANSONE(1,11)                     *
 *  M.T. RUGGIERO(18), L.E. DAGA(1), L. DONA'(1), A. COSSARD(1)                *
 *                                                                             *
 * (1) THEORETICAL CHEMISTRY GROUP - UNIVERSITA' DI TORINO - TORINO (ITALY)    *
 * (2) SCIENTIFIC COMPUTING DEPARTMENT - STFC DARESBURY (UK)                   *
 * (3) UNIVERSIDAD AUTONOMA DEL ESTADO DE MORELOS - CUERNAVACA (MEXICO)        *
 * (4) UNIVERSITE' DE LORRAINE - NANCY (FRANCE)                                *
 * (5) UNIVERSITAET STUTTGART- STUTTGART (GERMANY)                             *
 * (6) IMPERIAL COLLEGE - LONDON (UK)                                          *
 * (7) SCIENTIFIC COMPUTING DEPARTMENT - STFC RAL (UK)                         *
 * (8) UPMC - SORBONNE UNIVERSITES - PARIS (FRANCE)                            *
 * (9) UNIVERSIDAD DE BARCELONA - BARCELONA (SPAIN)                            *
 *(10) UNIVERSITA' DI NAPOLI "FEDERICO II" - NAPOLI (ITALY)                    *
 *(11) NIS - NANOSTRUCTURED INTERFACES AND SURFACES - TORINO (ITALY)           *
 *(12) MPI FUER CHEMISCHE ENERGIEKONVERSION - MUELHEIM AN DER RUHR (GERMANY)   *
 *(13) UNIVERSITY OF TROMSO - TROMSO (NORWAY)                                  *
 *(14) UNIVERSITE' DE PAU ET DES PAYS DE L'ADOUR - PAU (FRANCE)                *
 *(15) UNIVERSITY OF CALIFORNIA SANTA BARBARA - SANTA BARBARA (USA)            *
 *(16) CURTIN UNIVERSITY - PERTH (AUSTRALIA)                                   *
 *(17) UNIVERSITY COLLEGE LONDON - LONDON (UK)                                 *
 *(18) UNIVERSITY OF VERMONT - BURLINGTON (USA)                                *
 *                                                                             *
 *******************************************************************************
 EEEEEEEEEE STARTING  DATE 02 12 2025 TIME 07:56:47.2
 COF-5_z32_inc_L030                                                              

 CRYSTAL CALCULATION
 (INPUT ACCORDING TO THE INTERNATIONAL TABLES FOR X-RAY CRYSTALLOGRAPHY)
 CRYSTAL FAMILY                       :  TRICLINIC   
 CRYSTAL CLASS  (GROTH - 1921)        :  TRICLINIC PEDIAL                     

 SPACE GROUP (NONCENTROSYMMETRIC)     :  P 1             

 LATTICE PARAMETERS  (ANGSTROMS AND DEGREES) - CONVENTIONAL CELL
        A           B           C        ALPHA        BETA       GAMMA
    15.02070    15.04439     4.38634    53.70441    89.99948   120.05310


 NUMBER OF IRREDUCIBLE ATOMS IN THE CONVENTIONAL CELL:   42

 INPUT COORDINATES

 ATOM AT. N.              COORDINATES
   1   5     5.577632800000E-01  1.127360500000E-01  5.006422200000E-01
   2   5     7.165415300000E-01  2.717604700000E-01  5.006522100000E-01
   3   5     5.574750600000E-01  2.717773000000E-01  4.992222700000E-01
   4   5     1.703827100000E-01  4.979153300000E-01  5.054371200000E-01
   5   5     3.284900100000E-01  4.964828900000E-01  5.094809200000E-01
   6   5     3.294519200000E-01  6.571957400000E-01  5.035154100000E-01
   7   1     8.461178000000E-01  1.933114800000E-01  5.045405400000E-01
   8   1     4.190505000000E-02  5.778730100000E-01  4.929504600000E-01
   9   1     8.475387500000E-01  4.806053900000E-01  4.928121700000E-01
  10   1     4.060703000000E-02  2.906246300000E-01  5.041091200000E-01
  11   1     5.361323900000E-01  7.870632700000E-01  5.042311800000E-01
  12   1     3.511077000000E-01 -1.530700000000E-02  4.945826500000E-01
  13   1     2.526164000000E-01  7.906800900000E-01  4.958894700000E-01
  14   1     6.344490500000E-01 -1.881790000000E-02  5.023699000000E-01
  15   1     5.364745600000E-01  5.758837700000E-01  4.977869000000E-01
  16   1     3.482071400000E-01  1.923623700000E-01  5.060698500000E-01
  17   1     2.508852500000E-01  2.883679000000E-01  5.057049800000E-01
  18   1     6.341581000000E-01  4.798094800000E-01  4.987203300000E-01
  19   6     8.358629300000E-01  3.312471600000E-01  5.004022300000E-01
  20   6     8.901830500000E-01  2.776638100000E-01  5.021682800000E-01
  21   6    -2.061130000000E-03  4.934728900000E-01  4.957755300000E-01
  22   6     8.909214300000E-01  4.398703100000E-01  4.961126800000E-01
  23   6    -2.711920000000E-03  3.313770500000E-01  5.015245900000E-01
  24   6     5.204167000000E-02  4.395521300000E-01  4.993413700000E-01
  25   6     3.886035500000E-01  7.769477400000E-01  5.018836600000E-01
  26   6     4.964317300000E-01  8.313398900000E-01  5.022738200000E-01
  27   6     3.905819600000E-01 -5.989947000000E-02  4.969975800000E-01
  28   6     3.363343800000E-01  8.328875900000E-01  4.981162300000E-01
  29   6     5.506811300000E-01 -6.146243000000E-02  5.008364500000E-01
  30   6     4.981893400000E-01 -6.095000000000E-03  4.992122300000E-01
  31   6     3.884237800000E-01  4.383320300000E-01  4.999834300000E-01
  32   6     4.963367000000E-01  4.917140700000E-01  4.994319600000E-01
  33   6     3.889764100000E-01  2.766425100000E-01  5.039553900000E-01
  34   6     3.351452000000E-01  3.298281700000E-01  5.033474600000E-01
  35   6     5.500419000000E-01  4.384333600000E-01  5.003703000000E-01
  36   6     4.971437900000E-01  3.304239600000E-01  5.016121200000E-01
  37   8     5.047655900000E-01  1.657888100000E-01  4.996121300000E-01
  38   8     6.635795200000E-01  1.653971800000E-01  5.026021100000E-01
  39   8     6.637102300000E-01  3.251822100000E-01  4.980825000000E-01
  40   8     2.235320000000E-01  6.043963400000E-01  5.027487800000E-01
  41   8     2.224269700000E-01  4.436097100000E-01  5.102363500000E-01
  42   8     3.820548800000E-01  6.035372600000E-01  5.052204500000E-01

 *******************************************************************************

 << INFORMATION >>: FROM NOW ON, ALL COORDINATES REFER TO THE PRIMITIVE CELL

 *******************************************************************************

 LATTICE PARAMETERS  (ANGSTROMS AND DEGREES) - PRIMITIVE CELL
       A          B          C        ALPHA      BETA     GAMMA        VOLUME
   15.02070   15.04439    4.38634    53.70441  89.99948 120.05310    625.945923

 COORDINATES OF THE EQUIVALENT ATOMS (FRACTIONAL UNITS)

 N. ATOM EQUIV AT. N.          X                  Y                  Z

   1   1   1    5 B    -4.42236720000E-01  1.12736050000E-01 -4.99357780000E-01

   2   2   1    5 B    -2.83458470000E-01  2.71760470000E-01 -4.99347790000E-01

   3   3   1    5 B    -4.42524940000E-01  2.71777300000E-01  4.99222270000E-01

   4   4   1    5 B     1.70382710000E-01  4.97915330000E-01 -4.94562880000E-01

   5   5   1    5 B     3.28490010000E-01  4.96482890000E-01 -4.90519080000E-01

   6   6   1    5 B     3.29451920000E-01 -3.42804260000E-01 -4.96484590000E-01

   7   7   1    1 H    -1.53882200000E-01  1.93311480000E-01 -4.95459460000E-01

   8   8   1    1 H     4.19050500000E-02 -4.22126990000E-01  4.92950460000E-01

   9   9   1    1 H    -1.52461250000E-01  4.80605390000E-01  4.92812170000E-01

  10  10   1    1 H     4.06070300000E-02  2.90624630000E-01 -4.95890880000E-01

  11  11   1    1 H    -4.63867610000E-01 -2.12936730000E-01 -4.95768820000E-01

  12  12   1    1 H     3.51107700000E-01 -1.53070000000E-02  4.94582650000E-01

  13  13   1    1 H     2.52616400000E-01 -2.09319910000E-01  4.95889470000E-01

  14  14   1    1 H    -3.65550950000E-01 -1.88179000000E-02 -4.97630100000E-01

  15  15   1    1 H    -4.63525440000E-01 -4.24116230000E-01  4.97786900000E-01

  16  16   1    1 H     3.48207140000E-01  1.92362370000E-01 -4.93930150000E-01

  17  17   1    1 H     2.50885250000E-01  2.88367900000E-01 -4.94295020000E-01

  18  18   1    1 H    -3.65841900000E-01  4.79809480000E-01  4.98720330000E-01

  19  19   1    6 C    -1.64137070000E-01  3.31247160000E-01 -4.99597770000E-01

  20  20   1    6 C    -1.09816950000E-01  2.77663810000E-01 -4.97831720000E-01

  21  21   1    6 C    -2.06113000000E-03  4.93472890000E-01  4.95775530000E-01

  22  22   1    6 C    -1.09078570000E-01  4.39870310000E-01  4.96112680000E-01

  23  23   1    6 C    -2.71192000000E-03  3.31377050000E-01 -4.98475410000E-01

  24  24   1    6 C     5.20416700000E-02  4.39552130000E-01  4.99341370000E-01

  25  25   1    6 C     3.88603550000E-01 -2.23052260000E-01 -4.98116340000E-01

  26  26   1    6 C     4.96431730000E-01 -1.68660110000E-01 -4.97726180000E-01

  27  27   1    6 C     3.90581960000E-01 -5.98994700000E-02  4.96997580000E-01

  28  28   1    6 C     3.36334380000E-01 -1.67112410000E-01  4.98116230000E-01

  29  29   1    6 C    -4.49318870000E-01 -6.14624300000E-02 -4.99163550000E-01

  30  30   1    6 C     4.98189340000E-01 -6.09500000000E-03  4.99212230000E-01

  31  31   1    6 C     3.88423780000E-01  4.38332030000E-01  4.99983430000E-01

  32  32   1    6 C     4.96336700000E-01  4.91714070000E-01  4.99431960000E-01

  33  33   1    6 C     3.88976410000E-01  2.76642510000E-01 -4.96044610000E-01

  34  34   1    6 C     3.35145200000E-01  3.29828170000E-01 -4.96652540000E-01

  35  35   1    6 C    -4.49958100000E-01  4.38433360000E-01 -4.99629700000E-01

  36  36   1    6 C     4.97143790000E-01  3.30423960000E-01 -4.98387880000E-01

  37  37   1    8 O    -4.95234410000E-01  1.65788810000E-01  4.99612130000E-01

  38  38   1    8 O    -3.36420480000E-01  1.65397180000E-01 -4.97397890000E-01

  39  39   1    8 O    -3.36289770000E-01  3.25182210000E-01  4.98082500000E-01

  40  40   1    8 O     2.23532000000E-01 -3.95603660000E-01 -4.97251220000E-01

  41  41   1    8 O     2.22426970000E-01  4.43609710000E-01 -4.89763650000E-01

  42  42   1    8 O     3.82054880000E-01 -3.96462740000E-01 -4.94779550000E-01

 NUMBER OF SYMMETRY OPERATORS         :    1
 *******************************************************************************
 * GEOMETRY EDITING - INPUT COORDINATES ARE GIVEN IN ANGSTROM         
 *******************************************************************************

 GCALCO - MAX INDICES DIRECT LATTICE VECTOR     8    11    33
 NO.OF VECTORS CREATED 6999 STARS 3500 RMAX   191.51129 BOHR

 GEOMETRY FOR WAVE FUNCTION - DIMENSIONALITY OF THE SYSTEM    3
 (NON PERIODIC DIRECTION: LATTICE PARAMETER FORMALLY SET TO 500)
 *******************************************************************************
 LATTICE PARAMETERS (ANGSTROMS AND DEGREES) - BOHR = 0.5291772083 ANGSTROM
 PRIMITIVE CELL - CENTRING CODE 1/0 VOLUME=   625.945923 - DENSITY  1.035 g/cm^3
         A              B              C           ALPHA      BETA       GAMMA 
    15.02070100    15.04438700     4.38634200    53.704413  89.999479 120.053104
 *******************************************************************************
 ATOMS IN THE ASYMMETRIC UNIT   42 - ATOMS IN THE UNIT CELL:   42
     ATOM                 X/A                 Y/B                 Z/C    
 *******************************************************************************
      1 T   5 B    -4.422367200000E-01  1.127360500000E-01 -4.993577800000E-01
      2 T   5 B    -2.834584700000E-01  2.717604700000E-01 -4.993477900000E-01
      3 T   5 B    -4.425249400000E-01  2.717773000000E-01  4.992222700000E-01
      4 T   5 B     1.703827100000E-01  4.979153300000E-01 -4.945628800000E-01
      5 T   5 B     3.284900100000E-01  4.964828900000E-01 -4.905190800000E-01
      6 T   5 B     3.294519200000E-01 -3.428042600000E-01 -4.964845900000E-01
      7 T   1 H    -1.538822000000E-01  1.933114800000E-01 -4.954594600000E-01
      8 T   1 H     4.190505000000E-02 -4.221269900000E-01  4.929504600000E-01
      9 T   1 H    -1.524612500000E-01  4.806053900000E-01  4.928121700000E-01
     10 T   1 H     4.060703000000E-02  2.906246300000E-01 -4.958908800000E-01
     11 T   1 H    -4.638676100000E-01 -2.129367300000E-01 -4.957688200000E-01
     12 T   1 H     3.511077000000E-01 -1.530700000000E-02  4.945826500000E-01
     13 T   1 H     2.526164000000E-01 -2.093199100000E-01  4.958894700000E-01
     14 T   1 H    -3.655509500000E-01 -1.881790000000E-02 -4.976301000000E-01
     15 T   1 H    -4.635254400000E-01 -4.241162300000E-01  4.977869000000E-01
     16 T   1 H     3.482071400000E-01  1.923623700000E-01 -4.939301500000E-01
     17 T   1 H     2.508852500000E-01  2.883679000000E-01 -4.942950200000E-01
     18 T   1 H    -3.658419000000E-01  4.798094800000E-01  4.987203300000E-01
     19 T   6 C    -1.641370700000E-01  3.312471600000E-01 -4.995977700000E-01
     20 T   6 C    -1.098169500000E-01  2.776638100000E-01 -4.978317200000E-01
     21 T   6 C    -2.061130000000E-03  4.934728900000E-01  4.957755300000E-01
     22 T   6 C    -1.090785700000E-01  4.398703100000E-01  4.961126800000E-01
     23 T   6 C    -2.711920000000E-03  3.313770500000E-01 -4.984754100000E-01
     24 T   6 C     5.204167000000E-02  4.395521300000E-01  4.993413700000E-01
     25 T   6 C     3.886035500000E-01 -2.230522600000E-01 -4.981163400000E-01
     26 T   6 C     4.964317300000E-01 -1.686601100000E-01 -4.977261800000E-01
     27 T   6 C     3.905819600000E-01 -5.989947000000E-02  4.969975800000E-01
     28 T   6 C     3.363343800000E-01 -1.671124100000E-01  4.981162300000E-01
     29 T   6 C    -4.493188700000E-01 -6.146243000000E-02 -4.991635500000E-01
     30 T   6 C     4.981893400000E-01 -6.095000000000E-03  4.992122300000E-01
     31 T   6 C     3.884237800000E-01  4.383320300000E-01  4.999834300000E-01
     32 T   6 C     4.963367000000E-01  4.917140700000E-01  4.994319600000E-01
     33 T   6 C     3.889764100000E-01  2.766425100000E-01 -4.960446100000E-01
     34 T   6 C     3.351452000000E-01  3.298281700000E-01 -4.966525400000E-01
     35 T   6 C    -4.499581000000E-01  4.384333600000E-01 -4.996297000000E-01
     36 T   6 C     4.971437900000E-01  3.304239600000E-01 -4.983878800000E-01
     37 T   8 O    -4.952344100000E-01  1.657888100000E-01  4.996121300000E-01
     38 T   8 O    -3.364204800000E-01  1.653971800000E-01 -4.973978900000E-01
     39 T   8 O    -3.362897700000E-01  3.251822100000E-01  4.980825000000E-01
     40 T   8 O     2.235320000000E-01 -3.956036600000E-01 -4.972512200000E-01
     41 T   8 O     2.224269700000E-01  4.436097100000E-01 -4.897636500000E-01
     42 T   8 O     3.820548800000E-01 -3.964627400000E-01 -4.947795500000E-01

 T = ATOM BELONGING TO THE ASYMMETRIC UNIT

 ****    1 SYMMOPS - TRANSLATORS IN FRACTIONAL UNITS
 **** MATRICES AND TRANSLATORS IN THE CRYSTALLOGRAPHIC REFERENCE FRAME
   V INV                    ROTATION MATRICES                   TRANSLATORS
   1   1  1.00 -0.00  0.00  0.00  1.00  0.00  0.00 -0.00  1.00  0.00  0.00  0.00

 DIRECT LATTICE VECTORS CARTESIAN COMPONENTS (ANGSTROM)
          X                    Y                    Z
   0.130013421718E+02  -0.752240388864E+01   0.000000000000E+00
   0.000000000000E+00   0.150443870000E+02   0.000000000000E+00
   0.150234648461E+01   0.259649998650E+01   0.320017796399E+01


 CARTESIAN COORDINATES - PRIMITIVE CELL
 *******************************************************************************
 *      ATOM          X(ANGSTROM)         Y(ANGSTROM)         Z(ANGSTROM)
 *******************************************************************************
    1     5 B    -6.499879322990E+00  3.726145518249E+00 -1.598033763704E+00
    2     5 B    -4.435533956863E+00  4.924202248983E+00 -1.598001793926E+00
    3     5 B     6.495582345052E+00 -1.405099049336E+00 -1.602577856404E+00
    4     5 B    -3.014737593667E-02  2.328510859742E+00 -4.782867194376E+00
    5     5 B     2.031534919933E+00  1.128113436330E+00 -4.769926314725E+00
    6     5 B     2.035078778004E+00  3.523214425444E+00 -4.789017008371E+00
    7     1 H    -2.745026914344E+00  2.779356295132E+00 -1.585558445943E+00
    8     1 H     1.285404284445E+00 -5.385922649042E+00  1.577529199432E+00
    9     1 H     2.605202366004E-01 -2.791011639429E+00  4.777264610813E+00
   10     1 H    -2.170540287101E-01  2.779226261846E+00 -1.586939066721E+00
   11     1 H    -5.273371579308E+00  1.595133192710E+00  1.613629510994E+00
   12     1 H     5.307905852422E+00 -1.587274515571E+00  1.582752497903E+00
   13     1 H     4.029350056613E+00 -3.761795320377E+00  1.586934554470E+00
   14     1 H    -3.997919328927E+00  3.771121556220E+00  1.607673083753E+00
   15     1 H    -5.278604451461E+00 -1.601239445629E+00  1.593006668144E+00
   16     1 H     3.785105949298E+00 -1.007870433281E+00 -1.580664381781E+00
   17     1 H     2.519242595442E+00  1.167621093015E+00 -1.581832030715E+00
   18     1 H    -2.504838503479E+00 -1.182509648805E+00  4.796171774253E+00
   19     6 C    -2.884571163622E+00  4.920910198267E+00 -1.598801774413E+00
   20     6 C    -2.175683477681E+00  3.710749210992E+00 -1.593150100120E+00
   21     6 C    -7.843173163508E-01  6.130282953945E+00 -1.613608037799E+00
   22     6 C     8.295118132048E-01 -3.721618213986E+00  4.787826830185E+00
   23     6 C    -7.841413797419E-01  3.711473345334E+00 -1.595210022674E+00
   24     6 C    -7.555117391102E-02  4.921353763577E+00 -1.602196715208E+00
   25     6 C     2.801677905776E+00  4.875610567084E+00 -4.794238898764E+00
   26     6 C    -5.792474077328E+00  2.554809912994E+00  1.607365610654E+00
   27     6 C     5.824752275256E+00 -2.548811852750E+00  1.590480703673E+00
   28     6 C     5.121141525580E+00 -3.750788032066E+00  1.594060582753E+00
   29     6 C    -5.089318493081E+00  3.755715267714E+00  1.602765770854E+00
   30     6 C    -5.774222357287E+00  4.979331469839E+00  1.597567977801E+00
   31     6 C     4.298832335246E+00  2.374263123446E+00 -1.600142008945E+00
   32     6 C     5.701016633906E+00  2.364166731165E+00 -1.601906811087E+00
   33     6 C     4.311984527114E+00 -5.210050125313E-02 -1.587431030079E+00
   34     6 C     3.611193224885E+00  1.151406763835E+00 -1.589376514269E+00
   35     6 C    -5.098329659852E+00 -3.764447820087E+00  1.601274007896E+00
   36     6 C     5.714785242871E+00 -6.275457449158E-02 -1.594929911097E+00
   37     8 O     5.810874194690E+00 -2.602116716861E+00 -1.601330235023E+00
   38     8 O    -5.121181745568E+00  3.727496296927E+00 -1.591761766914E+00
   39     8 O    -2.121579391102E+00 -3.732741322654E+00  4.794130604742E+00
   40     8 O     6.568259113917E-01  3.523661681784E+00 -4.791470360804E+00
   41     8 O     2.156054447332E+00  3.728979339516E+00 -1.567330840294E+00
   42     8 O     2.721549421062E+00  2.324681911971E+00 -4.783560576936E+00

 *******************************************************************************
 STARTING BASIS SET HANDLING 
 *******************************************************************************

 Loading internal basis set: SOLDEF2MSVP         

 Please cite in your publication:
 L. Dona', J. G. Brandenburg and B. Civalleri, J. Chem. Phys., 151, 121101 (2019
 )                                                                              
                                                                                
                    

 *******************************************************************************
 LOCAL ATOMIC FUNCTIONS BASIS SET
 *******************************************************************************
   ATOM   X(AU)   Y(AU)   Z(AU)  N. TYPE  EXPONENT  S COEF   P COEF   D/F/G COEF
 *******************************************************************************
   1 B  -12.283   7.041  -3.020
                                  1 S  
                                         2.410E+03 1.755E-03 0.000E+00 0.000E+00
                                         3.619E+02 1.344E-02 0.000E+00 0.000E+00
                                         8.231E+01 6.637E-02 0.000E+00 0.000E+00
                                         2.311E+01 2.303E-01 0.000E+00 0.000E+00
                                         7.252E+00 5.150E-01 0.000E+00 0.000E+00
                                  2 S  
                                         2.367E+00 1.000E+00 0.000E+00 0.000E+00
                                  3 S  
                                         5.533E-01 1.000E+00 0.000E+00 0.000E+00
                                  4 S  
                                         1.716E-01 1.000E+00 0.000E+00 0.000E+00
                           5-     7 P  
                                         6.002E+00 0.000E+00-3.555E-02 0.000E+00
                                         1.240E+00 0.000E+00-1.983E-01 0.000E+00
                                         3.367E-01 0.000E+00-5.048E-01 0.000E+00
                           8-    10 P  
                                         1.256E-01 0.000E+00 1.000E+00 0.000E+00
                          11-    15 D  
                                         8.880E-01 0.000E+00 0.000E+00 1.000E+00
   2 B   -8.382   9.305  -3.020
   3 B   12.275  -2.655  -3.028
   4 B   -0.057   4.400  -9.038
   5 B    3.839   2.132  -9.014
   6 B    3.846   6.658  -9.050
   7 H   -5.187   5.252  -2.996
                                 91 S  
                                         1.874E+01 1.968E-02 0.000E+00 0.000E+00
                                         2.826E+00 1.380E-01 0.000E+00 0.000E+00
                                         6.401E-01 4.783E-01 0.000E+00 0.000E+00
                                 92 S  
                                         1.756E-01 1.000E+00 0.000E+00 0.000E+00
   8 H    2.429 -10.178   2.981
   9 H    0.492  -5.274   9.028
  10 H   -0.410   5.252  -2.999
  11 H   -9.965   3.014   3.049
  12 H   10.030  -3.000   2.991
  13 H    7.614  -7.109   2.999
  14 H   -7.555   7.126   3.038
  15 H   -9.975  -3.026   3.010
  16 H    7.153  -1.905  -2.987
  17 H    4.761   2.206  -2.989
  18 H   -4.733  -2.235   9.063
  19 C   -5.451   9.299  -3.021
                                115 S  
                                         3.624E+03 1.634E-03 0.000E+00 0.000E+00
                                         5.440E+02 1.252E-02 0.000E+00 0.000E+00
                                         1.237E+02 6.211E-02 0.000E+00 0.000E+00
                                         3.476E+01 2.182E-01 0.000E+00 0.000E+00
                                         1.093E+01 4.980E-01 0.000E+00 0.000E+00
                                116 S  
                                         3.574E+00 1.000E+00 0.000E+00 0.000E+00
                                117 S  
                                         7.742E-01 1.000E+00 0.000E+00 0.000E+00
                                118 S  
                                         2.330E-01 1.000E+00 0.000E+00 0.000E+00
                         119-   121 P  
                                         9.443E+00 0.000E+00 3.790E-02 0.000E+00
                                         2.002E+00 0.000E+00 2.082E-01 0.000E+00
                                         5.463E-01 0.000E+00 5.047E-01 0.000E+00
                         122-   124 P  
                                         1.820E-01 0.000E+00 1.000E+00 0.000E+00
                         125-   129 D  
                                         8.880E-01 0.000E+00 0.000E+00 1.000E+00
  20 C   -4.111   7.012  -3.011
  21 C   -1.482  11.585  -3.049
  22 C    1.568  -7.033   9.048
  23 C   -1.482   7.014  -3.015
  24 C   -0.143   9.300  -3.028
  25 C    5.294   9.214  -9.060
  26 C  -10.946   4.828   3.037
  27 C   11.007  -4.817   3.006
  28 C    9.678  -7.088   3.012
  29 C   -9.617   7.097   3.029
  30 C  -10.912   9.410   3.019
  31 C    8.124   4.487  -3.024
  32 C   10.773   4.468  -3.027
  33 C    8.148  -0.098  -3.000
  34 C    6.824   2.176  -3.003
  35 C   -9.634  -7.114   3.026
  36 C   10.799  -0.119  -3.014
  37 O   10.981  -4.917  -3.026
                                385 S  
                                         6.773E+03 1.727E-03 0.000E+00 0.000E+00
                                         1.017E+03 1.325E-02 0.000E+00 0.000E+00
                                         2.313E+02 6.603E-02 0.000E+00 0.000E+00
                                         6.501E+01 2.353E-01 0.000E+00 0.000E+00
                                         2.050E+01 5.498E-01 0.000E+00 0.000E+00
                                386 S  
                                         6.716E+00 1.000E+00 0.000E+00 0.000E+00
                                387 S  
                                         1.147E+00 1.000E+00 0.000E+00 0.000E+00
                                388 S  
                                         3.342E-01 1.000E+00 0.000E+00 0.000E+00
                         389-   391 P  
                                         1.769E+01 0.000E+00 4.359E-02 0.000E+00
                                         3.854E+00 0.000E+00 2.318E-01 0.000E+00
                                         1.047E+00 0.000E+00 5.146E-01 0.000E+00
                         392-   394 P  
                                         2.759E-01 0.000E+00 1.000E+00 0.000E+00
                         395-   399 D  
                                         8.000E-01 0.000E+00 0.000E+00 1.000E+00
  38 O   -9.678   7.044  -3.008
  39 O   -4.009  -7.054   9.060
  40 O    1.241   6.659  -9.055
  41 O    4.074   7.047  -2.962
  42 O    5.143   4.393  -9.040

 *******************************************************************************
 FINISHED BASIS SET HANDLING 
 *******************************************************************************

 INFORMATION **** SET_MPP **** PCRYSTAL CALCULATION
 INFORMATION **** READM2 **** NEW DEFAULT: FOCK/KS MATRIX MIXING SET TO 30 %
 INFORMATION **** READM2 **** NEW DEFAULT: FULL DIRECT SCF MODE
 INFORMATION **** READM2 **** NEW DEFAULT: COULOMB BIPOLAR BUFFER SET TO 32 Mb
 INFORMATION **** READM2 **** NEW DEFAULT: EXCHANGE BIPOLAR BUFFER SET TO 32 Mb

 *******************************************************************************
 NEW DEFAULT: DFT INTEGRATION GRID INCREASED TO XLGRID
 NEW DEFAULT: DIIS ACCELERATOR ACTIVE
 USE KEYWORD NODIIS TO TURN IT OFF
 *******************************************************************************

 WARNING **** RDDFTP **** HSEsol-HJS ACTIVE
 RANGE SEPARATION - OMEGA:   0.110000000000000     
 WARNING **** RDDFTP **** HSEsol-3c has to be combined with sol-def2-mSVP basis set
 *******************************************************************************
 N. OF ATOMS PER CELL        42  COULOMB OVERLAP TOL         (T1) 10**   -6
 NUMBER OF SHELLS           234  COULOMB PENETRATION TOL     (T2) 10**   -6
 NUMBER OF AO               474  EXCHANGE OVERLAP TOL        (T3) 10**   -6
 N. OF ELECTRONS PER CELL   198  EXCHANGE PSEUDO OVP (F(G))  (T4) 10**   -6
 CORE ELECTRONS PER CELL     60  EXCHANGE PSEUDO OVP (P(G))  (T5) 10**  -12
 N. OF SYMMETRY OPERATORS     1  POLE ORDER IN MONO ZONE                  4
 *******************************************************************************
 TYPE OF CALCULATION :  RESTRICTED CLOSED SHELL
 KOHN-SHAM HAMILTONIAN

 (EXCHANGE)[CORRELATION] FUNCTIONAL:(HSEsol GGA)[PBEsol]

 RANGE-SEPARATED HYBRID FUNCTIONAL 
 OMEGA (SHORT-RANGE)[LONG-RANGE]:(    0.1100)[    0.0000]

 HYBRID EXCHANGE - PERCENTAGE OF FOCK EXCHANGE    25.0000

 CAPPA:IS1  2;IS2  2;IS3  8; K PTS MONK NET  20; SYMMOPS:K SPACE   2;G SPACE   1

 *******************************************************************************
 MAX NUMBER OF SCF CYCLES      50  CONVERGENCE ON DELTAP        10**-16
 WEIGHT OF F(I) IN F(I+1)      30% CONVERGENCE ON ENERGY        10**- 6
 SHRINK. FACT.(MONKH.)    2  2  8  NUMBER OF K POINTS IN THE IBZ     20
 SHRINKING FACTOR(GILAT NET)    8  NUMBER OF K POINTS(GILAT NET)   1028
 *******************************************************************************
 *** K POINTS COORDINATES (OBLIQUE COORDINATES IN UNITS OF IS =  2)
   1-R(  0  0  0)   2-R(  1  0  0)   3-R(  0  1  0)   4-R(  1  1  0)
   5-C(  0  0  1)   6-C(  1  0  1)   7-C(  0  1  1)   8-C(  1  1  1)
   9-C(  0  0  2)  10-C(  1  0  2)  11-C(  0  1  2)  12-C(  1  1  2)
  13-C(  0  0  3)  14-C(  1  0  3)  15-C(  0  1  3)  16-C(  1  1  3)
  17-R(  0  0  4)  18-R(  1  0  4)  19-R(  0  1  4)  20-R(  1  1  4)

 DIRECT LATTICE VECTORS COMPON. (A.U.)     RECIP. LATTICE VECTORS COMPON. (A.U.) 
        X            Y            Z              X            Y            Z
   24.5689761  -14.2152832    0.0000000      0.2557366    0.0000000   -0.1200574
    0.0000000   28.4297713    0.0000000      0.1278719    0.2210072   -0.2393470
    2.8390234    4.9066739    6.0474599      0.0000000    0.0000000    1.0389792

 DISK SPACE FOR EIGENVECTORS (FTN 10)     7189632 REALS

 SYMMETRY ADAPTION OF THE BLOCH FUNCTIONS DISABLED
 TTTTTTTTTTTTTTTTTTTTTTTTTTTTTT gordsh1     TELAPSE        0.04 TCPU        0.04

 MATRIX SIZE: P(G)  394680, F(G)   80025, P(G) IRR  199005, F(G) IRR   80721
 MAX G-VECTOR INDEX FOR 1- AND 2-ELECTRON INTEGRALS  61

 TTTTTTTTTTTTTTTTTTTTTTTTTTTTTT INPUT       TELAPSE        0.36 TCPU        0.36

 NEIGHBORS OF THE NON-EQUIVALENT ATOMS

 N = NUMBER OF NEIGHBORS AT DISTANCE R
    ATOM  N     R/ANG      R/AU   NEIGHBORS (ATOM LABELS AND CELL INDICES)
   1 B    1     1.3787     2.6054   38 O    0 0 0
   1 B    1     1.3795     2.6068   37 O   -1 0 0
   1 B    1     1.5517     2.9323   30 C    0 0-1
   1 B    1     2.3868     4.5104    2 B    0 0 0
   1 B    1     2.3912     4.5187    3 B   -1 0 0
   1 B    1     2.5629     4.8431   27 C   -1 0-1

   2 B    1     1.3792     2.6064   38 O    0 0 0
   2 B    1     1.3798     2.6075   39 O    0 1-2
   2 B    1     1.5510     2.9309   19 C    0 0 0
   2 B    1     2.3868     4.5104    1 B    0 0 0
   2 B    1     2.3894     4.5154    3 B   -1 0 0
   2 B    1     2.5618     4.8411   22 C    0 1-2

   3 B    1     1.3790     2.6060   37 O    0 0 0
   3 B    1     1.3795     2.6069   39 O    1 1-2
   3 B    1     1.5529     2.9346   36 C    0 0 0
   3 B    1     2.3894     4.5154    2 B    1 0 0
   3 B    1     2.3912     4.5187    1 B    1 0 0
   3 B    1     2.5679     4.8526   35 C    1 1-1

   4 B    1     1.3778     2.6037   41 O    0 0-1
   4 B    1     1.3785     2.6051   40 O    0 0 0
   4 B    1     1.5479     2.9251   24 C    0 0-1
   4 B    1     2.3857     4.5084    5 B    0 0 0
   4 B    1     2.3859     4.5087    6 B    0 0 0
   4 B    1     2.5584     4.8347   21 C    0 0-1

   5 B    1     1.3778     2.6037   41 O    0 0-1
   5 B    1     1.3813     2.6103   42 O    0 0 0
   5 B    1     1.5523     2.9334   31 C    0 0-1
   5 B    1     2.3857     4.5084    4 B    0 0 0
   5 B    1     2.3952     4.5262    6 B    0 0 0
   5 B    1     2.5590     4.8358   32 C    0 0-1

   6 B    1     1.3783     2.6045   40 O    0 0 0
   6 B    1     1.3812     2.6101   42 O    0 0 0
   6 B    1     1.5546     2.9377   25 C    0 0 0
   6 B    1     2.3859     4.5087    4 B    0 0 0
   6 B    1     2.3952     4.5262    5 B    0 0 0
   6 B    1     2.5605     4.8386   26 C    1 1-2

   7 H    1     1.0917     2.0629   20 C    0 0 0
   7 H    1     2.1461     4.0556   19 C    0 0 0
   7 H    1     2.1712     4.1029   23 C    0 0 0
   7 H    1     2.5280     4.7772   10 H    0 0 0
   7 H    1     2.5583     4.8346   38 O    0 0 0
   7 H    1     2.7310     5.1608    2 B    0 0 0

   8 H    1     1.0909     2.0615   21 C    0-1 1
   8 H    1     2.1454     4.0542   24 C    0-1 1
   8 H    1     2.1688     4.0985   22 C    0 0-1
   8 H    1     2.5272     4.7758    9 H    0 0-1
   8 H    1     2.5561     4.8304   40 O    0-1 2
   8 H    1     2.7242     5.1480    4 B    0-1 2

   9 H    1     1.0908     2.0614   22 C    0 0 0
   9 H    1     2.1442     4.0520   19 C    0-1 2
   9 H    1     2.1694     4.0995   21 C    0-1 2
   9 H    1     2.5272     4.7758    8 H    0 0 1
   9 H    1     2.5615     4.8406   39 O    0 0 0
   9 H    1     2.7248     5.1491    2 B    0-1 2

  10 H    1     1.0912     2.0621   23 C    0 0 0
  10 H    1     2.1469     4.0570   24 C    0 0 0
  10 H    1     2.1689     4.0986   20 C    0 0 0
  10 H    1     2.5280     4.7772    7 H    0 0 0
  10 H    1     2.5562     4.8305   41 O    0 0 0
  10 H    1     2.7309     5.1607    4 B    0 0 1

  11 H    1     1.0911     2.0619   26 C    0 0 0
  11 H    1     2.1443     4.0521   25 C   -1-1 2
  11 H    1     2.1684     4.0977   29 C    0 0 0
  11 H    1     2.5222     4.7664   14 H    0 0 0
  11 H    1     2.5622     4.8419   42 O   -1-1 2
  11 H    1     2.7179     5.1361    6 B   -1-1 2

  12 H    1     1.0917     2.0630   27 C    0 0 0
  12 H    1     2.1441     4.0518   30 C    1 0 0
  12 H    1     2.1716     4.1037   28 C    0 0 0
  12 H    1     2.5226     4.7669   13 H    0 0 0
  12 H    1     2.5541     4.8265   37 O    0 0 1
  12 H    1     2.7237     5.1470    1 B    1 0 1

  13 H    1     1.0919     2.0633   28 C    0 0 0
  13 H    1     2.1522     4.0670   25 C    0-1 2
  13 H    1     2.1668     4.0946   27 C    0 0 0
  13 H    1     2.5226     4.7669   12 H    0 0 0
  13 H    1     2.5923     4.8986   40 O    0-1 2
  13 H    1     2.7582     5.2123    6 B    0-1 2

  14 H    1     1.0915     2.0627   29 C    0 0 0
  14 H    1     2.1483     4.0597   30 C    0 0 0
  14 H    1     2.1679     4.0968   26 C    0 0 0
  14 H    1     2.5222     4.7664   11 H    0 0 0
  14 H    1     2.5809     4.8771   38 O    0 0 1
  14 H    1     2.7404     5.1785    1 B    0 0 1

  15 H    1     1.0916     2.0628   32 C   -1-1 1
  15 H    1     2.1436     4.0508   31 C   -1-1 1
  15 H    1     2.1707     4.1021   35 C    0 0 0
  15 H    1     2.5217     4.7654   18 H    0 0-1
  15 H    1     2.5567     4.8315   42 O   -1-1 2
  15 H    1     2.7164     5.1333    5 B   -1-1 2

  16 H    1     1.0914     2.0624   33 C    0 0 0
  16 H    1     2.1487     4.0605   36 C    0 0 0
  16 H    1     2.1663     4.0937   34 C    0 0 0
  16 H    1     2.5170     4.7564   17 H    0 0 0
  16 H    1     2.5779     4.8716   37 O    0 0 0
  16 H    1     2.7395     5.1769    3 B    0 0 0

  17 H    1     1.0921     2.0638   34 C    0 0 0
  17 H    1     2.1502     4.0632   31 C    0 0 0
  17 H    1     2.1683     4.0976   33 C    0 0 0
  17 H    1     2.5170     4.7564   16 H    0 0 0
  17 H    1     2.5870     4.8888   41 O    0 0 0
  17 H    1     2.7510     5.1986    5 B    0 0 1

  18 H    1     1.0913     2.0622   35 C    0 0 1
  18 H    1     2.1495     4.0619   36 C   -1-1 2
  18 H    1     2.1656     4.0923   32 C   -1-1 2
  18 H    1     2.5217     4.7654   15 H    0 0 1
  18 H    1     2.5789     4.8734   39 O    0 0 0
  18 H    1     2.7392     5.1763    3 B   -1-1 2

  19 C    1     1.4017     2.6488   22 C    0 1-2
  19 C    1     1.4025     2.6504   20 C    0 0 0
  19 C    1     1.5510     2.9309    2 B    0 0 0
  19 C    1     2.1442     4.0520    9 H    0 1-2
  19 C    1     2.1461     4.0556    7 H    0 0 0
  19 C    1     2.4236     4.5800   21 C    0 0 0

  20 C    1     1.0917     2.0629    7 H    0 0 0
  20 C    1     1.3915     2.6296   23 C    0 0 0
  20 C    1     1.4025     2.6504   19 C    0 0 0
  20 C    1     2.1689     4.0986   10 H    0 0 0
  20 C    1     2.4191     4.5714   22 C    0 1-2
  20 C    1     2.4241     4.5809   24 C    0 0 0

  21 C    1     1.0909     2.0615    8 H    0 1-1
  21 C    1     1.3909     2.6284   22 C    0 1-2
  21 C    1     1.4014     2.6483   24 C    0 0 0
  21 C    1     2.1694     4.0995    9 H    0 1-2
  21 C    1     2.4189     4.5710   23 C    0 0 0
  21 C    1     2.4236     4.5800   19 C    0 0 0

  22 C    1     1.0908     2.0614    9 H    0 0 0
  22 C    1     1.3909     2.6284   21 C    0-1 2
  22 C    1     1.4017     2.6488   19 C    0-1 2
  22 C    1     2.1688     4.0985    8 H    0 0 1
  22 C    1     2.4191     4.5714   20 C    0-1 2
  22 C    1     2.4226     4.5780   24 C    0-1 2

  23 C    1     1.0912     2.0621   10 H    0 0 0
  23 C    1     1.3915     2.6296   20 C    0 0 0
  23 C    1     1.4021     2.6496   24 C    0 0 0
  23 C    1     2.1712     4.1029    7 H    0 0 0
  23 C    1     2.4189     4.5710   21 C    0 0 0
  23 C    1     2.4237     4.5802   19 C    0 0 0

  24 C    1     1.4014     2.6483   21 C    0 0 0
  24 C    1     1.4021     2.6496   23 C    0 0 0
  24 C    1     1.5479     2.9251    4 B    0 0 1
  24 C    1     2.1454     4.0542    8 H    0 1-1
  24 C    1     2.1469     4.0570   10 H    0 0 0
  24 C    1     2.4226     4.5780   22 C    0 1-2

  25 C    1     1.4025     2.6504   26 C    1 1-2
  25 C    1     1.4037     2.6525   28 C    0 1-2
  25 C    1     1.5546     2.9377    6 B    0 0 0
  25 C    1     2.1443     4.0521   11 H    1 1-2
  25 C    1     2.1522     4.0670   13 H    0 1-2
  25 C    1     2.4271     4.5865   27 C    0 1-2

  26 C    1     1.0911     2.0619   11 H    0 0 0
  26 C    1     1.3916     2.6298   29 C    0 0 0
  26 C    1     1.4025     2.6504   25 C   -1-1 2
  26 C    1     2.1679     4.0968   14 H    0 0 0
  26 C    1     2.4165     4.5665   28 C   -1 0 0
  26 C    1     2.4246     4.5818   30 C    0 0 0

  27 C    1     1.0917     2.0630   12 H    0 0 0
  27 C    1     1.3928     2.6320   28 C    0 0 0
  27 C    1     1.4024     2.6501   30 C    1 0 0
  27 C    1     2.1668     4.0946   13 H    0 0 0
  27 C    1     2.4166     4.5668   29 C    1 0 0
  27 C    1     2.4271     4.5865   25 C    0-1 2

  28 C    1     1.0919     2.0633   13 H    0 0 0
  28 C    1     1.3928     2.6320   27 C    0 0 0
  28 C    1     1.4037     2.6525   25 C    0-1 2
  28 C    1     2.1716     4.1037   12 H    0 0 0
  28 C    1     2.4165     4.5665   26 C    1 0 0
  28 C    1     2.4277     4.5877   30 C    1 0 0

  29 C    1     1.0915     2.0627   14 H    0 0 0
  29 C    1     1.3916     2.6298   26 C    0 0 0
  29 C    1     1.4023     2.6499   30 C    0 0 0
  29 C    1     2.1684     4.0977   11 H    0 0 0
  29 C    1     2.4166     4.5668   27 C   -1 0 0
  29 C    1     2.4281     4.5884   25 C   -1-1 2

  30 C    1     1.4023     2.6499   29 C    0 0 0
  30 C    1     1.4024     2.6501   27 C   -1 0 0
  30 C    1     1.5517     2.9323    1 B    0 0 1
  30 C    1     2.1441     4.0518   12 H   -1 0 0
  30 C    1     2.1483     4.0597   14 H    0 0 0
  30 C    1     2.4246     4.5818   26 C    0 0 0

  31 C    1     1.4022     2.6498   32 C    0 0 0
  31 C    1     1.4030     2.6512   34 C    0 0 0
  31 C    1     1.5523     2.9334    5 B    0 0 1
  31 C    1     2.1436     4.0508   15 H    1 1-1
  31 C    1     2.1502     4.0632   17 H    0 0 0
  31 C    1     2.4264     4.5853   33 C    0 0 0

  32 C    1     1.0916     2.0628   15 H    1 1-1
  32 C    1     1.3918     2.6301   35 C    1 1-1
  32 C    1     1.4022     2.6498   31 C    0 0 0
  32 C    1     2.1656     4.0923   18 H    1 1-2
  32 C    1     2.4163     4.5661   34 C    0 0 0
  32 C    1     2.4270     4.5863   36 C    0 0 0

  33 C    1     1.0914     2.0624   16 H    0 0 0
  33 C    1     1.3927     2.6318   34 C    0 0 0
  33 C    1     1.4029     2.6510   36 C    0 0 0
  33 C    1     2.1683     4.0976   17 H    0 0 0
  33 C    1     2.4155     4.5645   35 C    1 1-1
  33 C    1     2.4264     4.5853   31 C    0 0 0

  34 C    1     1.0921     2.0638   17 H    0 0 0
  34 C    1     1.3927     2.6318   33 C    0 0 0
  34 C    1     1.4030     2.6512   31 C    0 0 0
  34 C    1     2.1663     4.0937   16 H    0 0 0
  34 C    1     2.4163     4.5661   32 C    0 0 0
  34 C    1     2.4289     4.5899   36 C    0 0 0

  35 C    1     1.0913     2.0622   18 H    0 0-1
  35 C    1     1.3918     2.6301   32 C   -1-1 1
  35 C    1     1.4029     2.6511   36 C   -1-1 1
  35 C    1     2.1707     4.1021   15 H    0 0 0
  35 C    1     2.4155     4.5645   33 C   -1-1 1
  35 C    1     2.4269     4.5861   31 C   -1-1 1

  36 C    1     1.4029     2.6510   33 C    0 0 0
  36 C    1     1.4029     2.6511   35 C    1 1-1
  36 C    1     1.5529     2.9346    3 B    0 0 0
  36 C    1     2.1487     4.0605   16 H    0 0 0
  36 C    1     2.1495     4.0619   18 H    1 1-2
  36 C    1     2.4270     4.5863   32 C    0 0 0

  37 O    1     1.3790     2.6060    3 B    0 0 0
  37 O    1     1.3795     2.6068    1 B    1 0 0
  37 O    1     2.3868     4.5105   39 O    1 1-2
  37 O    1     2.3885     4.5136   38 O    1 0 0
  37 O    1     2.5389     4.7979   30 C    1 0-1
  37 O    1     2.5412     4.8021   36 C    0 0 0

  38 O    1     1.3787     2.6054    1 B    0 0 0
  38 O    1     1.3792     2.6064    2 B    0 0 0
  38 O    1     2.3885     4.5136   37 O   -1 0 0
  38 O    1     2.3912     4.5187   39 O    0 1-2
  38 O    1     2.5351     4.7906   19 C    0 0 0
  38 O    1     2.5405     4.8008   30 C    0 0-1

  39 O    1     1.3795     2.6069    3 B   -1-1 2
  39 O    1     1.3798     2.6075    2 B    0-1 2
  39 O    1     2.3868     4.5105   37 O   -1-1 2
  39 O    1     2.3912     4.5187   38 O    0-1 2
  39 O    1     2.5416     4.8030   19 C    0-1 2
  39 O    1     2.5427     4.8050   36 C   -1-1 2

  40 O    1     1.3783     2.6045    6 B    0 0 0
  40 O    1     1.3785     2.6051    4 B    0 0 0
  40 O    1     2.3876     4.5119   42 O    0 0 0
  40 O    1     2.3913     4.5189   41 O    0 0-1
  40 O    1     2.5354     4.7912   25 C    0 0 0
  40 O    1     2.5360     4.7923   24 C    0 0-1

  41 O    1     1.3778     2.6037    4 B    0 0 1
  41 O    1     1.3778     2.6037    5 B    0 0 1
  41 O    1     2.3870     4.5107   42 O    0 0 1
  41 O    1     2.3913     4.5189   40 O    0 0 1
  41 O    1     2.5304     4.7818   24 C    0 0 0
  41 O    1     2.5353     4.7911   31 C    0 0 0

  42 O    1     1.3812     2.6101    6 B    0 0 0
  42 O    1     1.3813     2.6103    5 B    0 0 0
  42 O    1     2.3870     4.5107   41 O    0 0-1
  42 O    1     2.3876     4.5119   40 O    0 0 0
  42 O    1     2.5481     4.8152   31 C    0 0-1
  42 O    1     2.5522     4.8230   25 C    0 0 0


 SYMMETRY ALLOWED INTERNAL DEGREE(S) OF FREEDOM: 123
 TTTTTTTTTTTTTTTTTTTTTTTTTTTTTT SYMM        TELAPSE        0.36 TCPU        0.36
 TTTTTTTTTTTTTTTTTTTTTTTTTTTTTT INT_SCREEN  TELAPSE        0.39 TCPU        0.39

 DFT PARAMETERS

     ATOM       ELECTRONS   NET CHARGE   R(ANGSTROM)
   1   5  B       5.0000      0.0000     0.89000000
   7   1  H       1.0000      0.0000     1.11000000
  19   6  C       6.0000      0.0000     0.77000000
  37   8  O       8.0000      0.0000     0.74000000

 SIZE OF GRID=    1239210
 TTTTTTTTTTTTTTTTTTTTTTTTTTTTTT MAKE_GRID2  TELAPSE       12.04 TCPU       12.03
 BECKE WEIGHT FUNCTION
 RADSAFE =     2.00
 TOLERANCES - DENSITY:10**- 6; POTENTIAL:10**- 9; GRID WGT:10**-14

 RADIAL INTEGRATION  - INTERVALS (POINTS,UPPER LIMIT):            1( 75,  4.0*R)

 ANGULAR INTEGRATION - INTERVALS (ACCURACY LEVEL [N. POINTS] UPPER LIMIT):
  1(  4[  86]   0.2)  2(  8[ 194]   0.5)  3( 12[ 350]   0.9)  4( 16[ 974]   3.5)
  5( 12[ 350]9999.0)
 TTTTTTTTTTTTTTTTTTTTTTTTTTTTTT INT_CALC    TELAPSE       12.15 TCPU       12.13
 EEEEEEEEEE INT_CALC TERMINATION  DATE 02 12 2025 TIME 07:56:59.3

 *******************************************************************************
 COF-5_z32_inc_L030                                                              
 CRYSTAL - SCF - TYPE OF CALCULATION :  RESTRICTED CLOSED SHELL
 *******************************************************************************

 CAPPA:IS1  2;IS2  2;IS3  8; K PTS MONK NET  20; SYMMOPS:K SPACE   2;G SPACE   1

 TTTTTTTTTTTTTTTTTTTTTTTTTTTTTT SDIK        TELAPSE       12.74 TCPU       19.94

 AAAAAAAAAAAAAAAAAAAAAAAAAAAAAAAAAAAAAAAAAAAAAAAAAAAAAAAAAAAAAAAAAAAAAAAAAAAAAAA
         ATOMIC WAVEFUNCTION(S)


 NUCLEAR CHARGE  5.0  SYMMETRY SPECIES            S    P
 N. ELECTRONS    5.0  NUMBER OF PRIMITIVE GTOS    8    4
                      NUMBER OF CONTRACTED GTOS   4    2
                      NUMBER OF CLOSED SHELLS     2    0
                      OPEN SHELL OCCUPATION       0    1

  ZNUC  SCFIT    TOTAL HF ENERGY   KINETIC ENERGY   VIRIAL THEOREM ACCURACY
   5.0    11    -2.451164084E+01  2.462155050E+01 -1.995536038E+00  1.5E-06

 NUCLEAR CHARGE  1.0  SYMMETRY SPECIES            S
 N. ELECTRONS    1.0  NUMBER OF PRIMITIVE GTOS    4
                      NUMBER OF CONTRACTED GTOS   2
                      NUMBER OF CLOSED SHELLS     0
                      OPEN SHELL OCCUPATION       1

  ZNUC  SCFIT    TOTAL HF ENERGY   KINETIC ENERGY   VIRIAL THEOREM ACCURACY
   1.0     1    -4.977266687E-01  5.190767460E-01 -1.958869132E+00  0.0E+00

 NUCLEAR CHARGE  6.0  SYMMETRY SPECIES            S    P
 N. ELECTRONS    6.0  NUMBER OF PRIMITIVE GTOS    8    4
                      NUMBER OF CONTRACTED GTOS   4    2
                      NUMBER OF CLOSED SHELLS     2    0
                      OPEN SHELL OCCUPATION       0    2

  ZNUC  SCFIT    TOTAL HF ENERGY   KINETIC ENERGY   VIRIAL THEOREM ACCURACY
   6.0     9    -3.766704647E+01  3.775180683E+01 -1.997754800E+00  1.1E-06

 NUCLEAR CHARGE  8.0  SYMMETRY SPECIES            S    P
 N. ELECTRONS    8.0  NUMBER OF PRIMITIVE GTOS    8    4
                      NUMBER OF CONTRACTED GTOS   4    2
                      NUMBER OF CLOSED SHELLS     2    0
                      OPEN SHELL OCCUPATION       0    4

  ZNUC  SCFIT    TOTAL HF ENERGY   KINETIC ENERGY   VIRIAL THEOREM ACCURACY
   8.0    12    -7.477373220E+01  7.477365593E+01 -2.000001020E+00  3.8E-06

 AAAAAAAAAAAAAAAAAAAAAAAAAAAAAAAAAAAAAAAAAAAAAAAAAAAAAAAAAAAAAAAAAAAAAAAAAAAAAAA

 CHARGE NORMALIZATION FACTOR   1.00000000
 TOTAL ATOMIC CHARGES:
   5.0000000   5.0000000   5.0000000   5.0000000   5.0000000   5.0000000
   1.0000000   1.0000000   1.0000000   1.0000000   1.0000000   1.0000000
   1.0000000   1.0000000   1.0000000   1.0000000   1.0000000   1.0000000
   6.0000000   6.0000000   6.0000000   6.0000000   6.0000000   6.0000000
   6.0000000   6.0000000   6.0000000   6.0000000   6.0000000   6.0000000
   6.0000000   6.0000000   6.0000000   6.0000000   6.0000000   6.0000000
   8.0000000   8.0000000   8.0000000   8.0000000   8.0000000   8.0000000
 TTTTTTTTTTTTTTTTTTTTTTTTTTTTTT MOQGAD      TELAPSE       12.80 TCPU       21.59
 TTTTTTTTTTTTTTTTTTTTTTTTTTTTTT SHELLXN     TELAPSE       25.09 TCPU      413.09
 TTTTTTTTTTTTTTTTTTTTTTTTTTTTTT MONMO3      TELAPSE       25.27 TCPU      418.84
 NUMERICALLY INTEGRATED DENSITY    198.0000082561
 TTTTTTTTTTTTTTTTTTTTTTTTTTTTTT NUMDFT      TELAPSE       25.97 TCPU      441.14
 CYC   0 ETOT(AU) -1.296002200129E+03 DETOT -1.30E+03 tst  0.00E+00 PX  1.00E+00
 TTTTTTTTTTTTTTTTTTTTTTTTTTTTTT DIIS        TELAPSE       26.00 TCPU      442.35
 TTTTTTTTTTTTTTTTTTTTTTTTTTTTTT FDIK        TELAPSE       26.50 TCPU      458.06
 INSULATING STATE
 TOP OF VALENCE BANDS -    BAND     99; K   17; EIG -3.0030943E-01 AU
 TOP OF VALENCE BANDS -    BAND     99; K    1; EIG -3.0847263E-01 AU
 BOTTOM OF VIRTUAL BANDS - BAND    100; K    1; EIG -1.6871433E-01 AU
 INDIRECT ENERGY BAND GAP:   3.5809 eV
 TTTTTTTTTTTTTTTTTTTTTTTTTTTTTT PDIG        TELAPSE       26.82 TCPU      464.36
 CHARGE NORMALIZATION FACTOR   1.00000000
 TOTAL ATOMIC CHARGES:
   4.1247937   4.1471273   4.1486153   4.1496398   4.1479426   4.1240007
   0.7860922   0.7860428   0.7839511   0.7838353   0.7867182   0.7865417
   0.7875949   0.7871067   0.7857761   0.7864064   0.7839896   0.7842892
   6.0468556   6.2698052   6.2697666   6.2678998   6.2665058   6.0493176
   6.0517110   6.2649131   6.2630535   6.2659076   6.2654922   6.0556344
   6.0460508   6.2696247   6.2706691   6.2672749   6.2690219   6.0433788
   8.7066040   8.7059258   8.7010041   8.7055143   8.6999420   8.7076636
 TTTTTTTTTTTTTTTTTTTTTTTTTTTTTT MOQGAD      TELAPSE       26.87 TCPU      464.41
 TTTTTTTTTTTTTTTTTTTTTTTTTTTTTT SHELLXN     TELAPSE       39.44 TCPU      865.60
 TTTTTTTTTTTTTTTTTTTTTTTTTTTTTT MONMO3      TELAPSE       39.62 TCPU      871.30
 NUMERICALLY INTEGRATED DENSITY    198.0000123480
 TTTTTTTTTTTTTTTTTTTTTTTTTTTTTT NUMDFT      TELAPSE       40.34 TCPU      894.24
 CYC   1 ETOT(AU) -1.288829277503E+03 DETOT  7.17E+00 tst  0.00E+00 PX  1.00E+00
 TTTTTTTTTTTTTTTTTTTTTTTTTTTTTT DIIS        TELAPSE       40.40 TCPU      896.12
 DIIS TEST: 0.10765E+01 AT SCF   CYCLE   1 - MIX   30 %
 TTTTTTTTTTTTTTTTTTTTTTTTTTTTTT FDIK        TELAPSE       40.91 TCPU      912.31
 INSULATING STATE
 TOP OF VALENCE BANDS -    BAND     99; K   17; EIG -2.0806635E-01 AU
 TOP OF VALENCE BANDS -    BAND     99; K    1; EIG -2.2312587E-01 AU
 BOTTOM OF VIRTUAL BANDS - BAND    100; K    1; EIG -9.1825245E-02 AU
 INDIRECT ENERGY BAND GAP:   3.1631 eV
 TTTTTTTTTTTTTTTTTTTTTTTTTTTTTT PDIG        TELAPSE       41.23 TCPU      918.61
 CHARGE NORMALIZATION FACTOR   1.00000000
 TOTAL ATOMIC CHARGES:
   4.6337786   4.6839697   4.6845251   4.6845469   4.6849159   4.6343787
   0.9068145   0.9072291   0.9191108   0.9190538   0.9033614   0.9028618
   0.9040786   0.9041773   0.9062262   0.9068318   0.9185966   0.9188420
   5.8695411   6.1235199   6.1216636   6.1542903   6.1567836   5.8655542
   5.9165047   6.1408234   6.1435095   6.1456424   6.1442063   5.9128530
   5.8714116   6.1183202   6.1215022   6.1575727   6.1532259   5.8719251
   8.3377919   8.3364410   8.3700953   8.3349266   8.3673868   8.3412099
 TTTTTTTTTTTTTTTTTTTTTTTTTTTTTT MOQGAD      TELAPSE       41.28 TCPU      918.67
 TTTTTTTTTTTTTTTTTTTTTTTTTTTTTT SHELLXN     TELAPSE       53.67 TCPU     1313.75
 TTTTTTTTTTTTTTTTTTTTTTTTTTTTTT MONMO3      TELAPSE       53.85 TCPU     1319.50
 NUMERICALLY INTEGRATED DENSITY    198.0000142197
 TTTTTTTTTTTTTTTTTTTTTTTTTTTTTT NUMDFT      TELAPSE       54.56 TCPU     1342.16
 CYC   2 ETOT(AU) -1.289019961773E+03 DETOT -1.91E-01 tst  3.09E-03 PX  1.59E-01
 TTTTTTTTTTTTTTTTTTTTTTTTTTTTTT DIIS        TELAPSE       54.61 TCPU     1343.82
 DIIS TEST: 0.44783E+00 AT SCF   CYCLE   2 - DIIS ACTIVE - HISTORY:     2 CYCLES
 TTTTTTTTTTTTTTTTTTTTTTTTTTTTTT FDIK        TELAPSE       55.10 TCPU     1359.53
 INSULATING STATE
 TOP OF VALENCE BANDS -    BAND     99; K   17; EIG -2.2147169E-01 AU
 TOP OF VALENCE BANDS -    BAND     99; K    1; EIG -2.3301094E-01 AU
 BOTTOM OF VIRTUAL BANDS - BAND    100; K    1; EIG -8.7344868E-02 AU
 INDIRECT ENERGY BAND GAP:   3.6498 eV
 TTTTTTTTTTTTTTTTTTTTTTTTTTTTTT PDIG        TELAPSE       55.41 TCPU     1365.82
 CHARGE NORMALIZATION FACTOR   1.00000000
 TOTAL ATOMIC CHARGES:
   4.4376090   4.4786068   4.4793956   4.4799641   4.4789106   4.4374779
   0.8857927   0.8857902   0.8939863   0.8940934   0.8860524   0.8857954
   0.8875854   0.8869928   0.8846712   0.8858185   0.8943309   0.8938064
   5.8913886   6.1697728   6.1705016   6.1598534   6.1599453   5.8930082
   5.9260585   6.1600561   6.1603564   6.1634180   6.1628635   5.9272167
   5.8916123   6.1694625   6.1699327   6.1605955   6.1616579   5.8917775
   8.5284353   8.5280612   8.5206995   8.5276315   8.5185603   8.5304550
 TTTTTTTTTTTTTTTTTTTTTTTTTTTTTT MOQGAD      TELAPSE       55.47 TCPU     1365.87
 TTTTTTTTTTTTTTTTTTTTTTTTTTTTTT SHELLXN     TELAPSE       68.02 TCPU     1766.50
 TTTTTTTTTTTTTTTTTTTTTTTTTTTTTT MONMO3      TELAPSE       68.20 TCPU     1772.24
 NUMERICALLY INTEGRATED DENSITY    198.0000135889
 TTTTTTTTTTTTTTTTTTTTTTTTTTTTTT NUMDFT      TELAPSE       68.92 TCPU     1795.26
 CYC   3 ETOT(AU) -1.289112600899E+03 DETOT -9.26E-02 tst  7.11E-04 PX  6.78E-02
 TTTTTTTTTTTTTTTTTTTTTTTTTTTTTT DIIS        TELAPSE       68.99 TCPU     1797.36
 DIIS TEST: 0.14872E-01 AT SCF   CYCLE   3 - DIIS ACTIVE - HISTORY:     3 CYCLES
 TTTTTTTTTTTTTTTTTTTTTTTTTTTTTT FDIK        TELAPSE       69.49 TCPU     1813.52
 INSULATING STATE
 TOP OF VALENCE BANDS -    BAND     99; K   17; EIG -2.3100350E-01 AU
 TOP OF VALENCE BANDS -    BAND     99; K    1; EIG -2.4516785E-01 AU
 BOTTOM OF VIRTUAL BANDS - BAND    100; K    1; EIG -9.5735969E-02 AU
 INDIRECT ENERGY BAND GAP:   3.6808 eV
 TTTTTTTTTTTTTTTTTTTTTTTTTTTTTT PDIG        TELAPSE       69.81 TCPU     1819.82
 CHARGE NORMALIZATION FACTOR   1.00000000
 TOTAL ATOMIC CHARGES:
   4.4468407   4.4823676   4.4828941   4.4837134   4.4827909   4.4470101
   0.8701134   0.8704792   0.8765243   0.8766279   0.8662708   0.8659994
   0.8676198   0.8673231   0.8694826   0.8702582   0.8765438   0.8767441
   5.9400047   6.1617403   6.1599902   6.1806642   6.1813737   5.9378676
   5.9801344   6.1704423   6.1708731   6.1723221   6.1718384   5.9793339
   5.9408226   6.1587399   6.1609143   6.1826768   6.1796064   5.9391659
   8.4848535   8.4836466   8.5077656   8.4823779   8.5058924   8.4873501
 TTTTTTTTTTTTTTTTTTTTTTTTTTTTTT MOQGAD      TELAPSE       69.86 TCPU     1819.88
 TTTTTTTTTTTTTTTTTTTTTTTTTTTTTT SHELLXN     TELAPSE       82.40 TCPU     2219.90
 TTTTTTTTTTTTTTTTTTTTTTTTTTTTTT MONMO3      TELAPSE       82.58 TCPU     2225.63
 NUMERICALLY INTEGRATED DENSITY    198.0000141516
 TTTTTTTTTTTTTTTTTTTTTTTTTTTTTT NUMDFT      TELAPSE       83.30 TCPU     2248.55
 CYC   4 ETOT(AU) -1.289115730525E+03 DETOT -3.13E-03 tst  3.65E-05 PX  1.54E-02
 TTTTTTTTTTTTTTTTTTTTTTTTTTTTTT DIIS        TELAPSE       83.37 TCPU     2250.71
 DIIS TEST: 0.44282E-02 AT SCF   CYCLE   4 - DIIS ACTIVE - HISTORY:     4 CYCLES
 TTTTTTTTTTTTTTTTTTTTTTTTTTTTTT FDIK        TELAPSE       83.87 TCPU     2266.72
 INSULATING STATE
 TOP OF VALENCE BANDS -    BAND     99; K   17; EIG -2.2968752E-01 AU
 TOP OF VALENCE BANDS -    BAND     99; K    1; EIG -2.4289862E-01 AU
 BOTTOM OF VIRTUAL BANDS - BAND    100; K    1; EIG -9.5590331E-02 AU
 INDIRECT ENERGY BAND GAP:   3.6490 eV
 TTTTTTTTTTTTTTTTTTTTTTTTTTTTTT PDIG        TELAPSE       84.18 TCPU     2273.01
 CHARGE NORMALIZATION FACTOR   1.00000000
 TOTAL ATOMIC CHARGES:
   4.4445908   4.4866766   4.4874367   4.4879267   4.4871121   4.4446159
   0.8718744   0.8719705   0.8800331   0.8800491   0.8702028   0.8698604
   0.8715095   0.8710937   0.8709578   0.8719705   0.8801914   0.8799205
   5.9223752   6.1673489   6.1674911   6.1750977   6.1756487   5.9226407
   5.9577821   6.1699065   6.1709895   6.1731601   6.1723541   5.9580949
   5.9227931   6.1659328   6.1671294   6.1760095   6.1759908   5.9232952
   8.4997548   8.4988825   8.5056844   8.4982928   8.5034484   8.5019044
 TTTTTTTTTTTTTTTTTTTTTTTTTTTTTT MOQGAD      TELAPSE       84.23 TCPU     2273.07
 TTTTTTTTTTTTTTTTTTTTTTTTTTTTTT SHELLXN     TELAPSE       96.57 TCPU     2666.63
 TTTTTTTTTTTTTTTTTTTTTTTTTTTTTT MONMO3      TELAPSE       96.74 TCPU     2672.32
 NUMERICALLY INTEGRATED DENSITY    198.0000138110
 TTTTTTTTTTTTTTTTTTTTTTTTTTTTTT NUMDFT      TELAPSE       97.45 TCPU     2694.97
 CYC   5 ETOT(AU) -1.289116733850E+03 DETOT -1.00E-03 tst  5.17E-06 PX  7.26E-03
 TTTTTTTTTTTTTTTTTTTTTTTTTTTTTT DIIS        TELAPSE       97.52 TCPU     2697.20
 DIIS TEST: 0.96670E-04 AT SCF   CYCLE   5 - DIIS ACTIVE - HISTORY:     5 CYCLES
 TTTTTTTTTTTTTTTTTTTTTTTTTTTTTT FDIK        TELAPSE       98.01 TCPU     2712.90
 INSULATING STATE
 TOP OF VALENCE BANDS -    BAND     99; K   17; EIG -2.2929739E-01 AU
 TOP OF VALENCE BANDS -    BAND     99; K    1; EIG -2.4254800E-01 AU
 BOTTOM OF VIRTUAL BANDS - BAND    100; K    1; EIG -9.5016689E-02 AU
 INDIRECT ENERGY BAND GAP:   3.6540 eV
 TTTTTTTTTTTTTTTTTTTTTTTTTTTTTT PDIG        TELAPSE       98.33 TCPU     2719.19
 CHARGE NORMALIZATION FACTOR   1.00000000
 TOTAL ATOMIC CHARGES:
   4.4464478   4.4854497   4.4860404   4.4867610   4.4859246   4.4465972
   0.8730210   0.8732737   0.8810145   0.8811495   0.8712279   0.8710018
   0.8726226   0.8722186   0.8722610   0.8731327   0.8810796   0.8811499
   5.9217146   6.1669746   6.1656931   6.1749042   6.1755329   5.9206758
   5.9596139   6.1690903   6.1688498   6.1710756   6.1709832   5.9591949
   5.9227786   6.1646898   6.1662399   6.1770115   6.1744860   5.9206955
   8.4976531   8.4969246   8.5104262   8.4956560   8.5085972   8.5001654
 TTTTTTTTTTTTTTTTTTTTTTTTTTTTTT MOQGAD      TELAPSE       98.38 TCPU     2719.24
 TTTTTTTTTTTTTTTTTTTTTTTTTTTTTT SHELLXN     TELAPSE      110.96 TCPU     3120.42
 TTTTTTTTTTTTTTTTTTTTTTTTTTTTTT MONMO3      TELAPSE      111.14 TCPU     3126.16
 NUMERICALLY INTEGRATED DENSITY    198.0000138580
 TTTTTTTTTTTTTTTTTTTTTTTTTTTTTT NUMDFT      TELAPSE      111.87 TCPU     3149.23
 CYC   6 ETOT(AU) -1.289116751156E+03 DETOT -1.73E-05 tst  4.02E-07 PX  1.64E-03
 TTTTTTTTTTTTTTTTTTTTTTTTTTTTTT DIIS        TELAPSE      111.94 TCPU     3151.70
 DIIS TEST: 0.44457E-04 AT SCF   CYCLE   6 - DIIS ACTIVE - HISTORY:     6 CYCLES
 TTTTTTTTTTTTTTTTTTTTTTTTTTTTTT FDIK        TELAPSE      112.45 TCPU     3167.97
 INSULATING STATE
 TOP OF VALENCE BANDS -    BAND     99; K   17; EIG -2.2938094E-01 AU
 TOP OF VALENCE BANDS -    BAND     99; K    1; EIG -2.4259757E-01 AU
 BOTTOM OF VIRTUAL BANDS - BAND    100; K    1; EIG -9.5068948E-02 AU
 INDIRECT ENERGY BAND GAP:   3.6548 eV
 TTTTTTTTTTTTTTTTTTTTTTTTTTTTTT PDIG        TELAPSE      112.76 TCPU     3174.26
 CHARGE NORMALIZATION FACTOR   1.00000000
 TOTAL ATOMIC CHARGES:
   4.4457935   4.4859197   4.4866347   4.4872025   4.4863302   4.4458146
   0.8730036   0.8731699   0.8809088   0.8809621   0.8711667   0.8708270
   0.8724873   0.8721044   0.8721497   0.8731154   0.8810623   0.8808712
   5.9221172   6.1665419   6.1663019   6.1747184   6.1751320   5.9218046
   5.9588297   6.1687430   6.1698267   6.1719066   6.1709853   5.9590457
   5.9223848   6.1647967   6.1662809   6.1757555   6.1752267   5.9226295
   8.4986317   8.4976223   8.5078080   8.4969598   8.5056475   8.5007801
 TTTTTTTTTTTTTTTTTTTTTTTTTTTTTT MOQGAD      TELAPSE      112.82 TCPU     3174.32
 TTTTTTTTTTTTTTTTTTTTTTTTTTTTTT SHELLXN     TELAPSE      125.33 TCPU     3573.53
 TTTTTTTTTTTTTTTTTTTTTTTTTTTTTT MONMO3      TELAPSE      125.51 TCPU     3579.25
 NUMERICALLY INTEGRATED DENSITY    198.0000138531
 TTTTTTTTTTTTTTTTTTTTTTTTTTTTTT NUMDFT      TELAPSE      126.23 TCPU     3602.29
 CYC   7 ETOT(AU) -1.289116760332E+03 DETOT -9.18E-06 tst  1.17E-07 PX  1.11E-03
 TTTTTTTTTTTTTTTTTTTTTTTTTTTTTT DIIS        TELAPSE      126.32 TCPU     3605.17
 DIIS TEST: 0.16913E-05 AT SCF   CYCLE   7 - DIIS ACTIVE - HISTORY:     7 CYCLES
 TTTTTTTTTTTTTTTTTTTTTTTTTTTTTT FDIK        TELAPSE      126.82 TCPU     3621.12
 INSULATING STATE
 TOP OF VALENCE BANDS -    BAND     99; K   17; EIG -2.2938486E-01 AU
 TOP OF VALENCE BANDS -    BAND     99; K    1; EIG -2.4261921E-01 AU
 BOTTOM OF VIRTUAL BANDS - BAND    100; K    1; EIG -9.5103017E-02 AU
 INDIRECT ENERGY BAND GAP:   3.6540 eV
 TTTTTTTTTTTTTTTTTTTTTTTTTTTTTT PDIG        TELAPSE      127.13 TCPU     3627.41
 CHARGE NORMALIZATION FACTOR   1.00000000
 TOTAL ATOMIC CHARGES:
   4.4457449   4.4860092   4.4866818   4.4873082   4.4864705   4.4458394
   0.8729591   0.8731353   0.8808856   0.8809568   0.8711021   0.8708347
   0.8724781   0.8720534   0.8721208   0.8730628   0.8809974   0.8809020
   5.9220815   6.1666520   6.1660327   6.1746274   6.1753331   5.9217672
   5.9588602   6.1692213   6.1694535   6.1716601   6.1713395   5.9587072
   5.9229834   6.1648117   6.1661103   6.1762432   6.1748527   5.9219636
   8.4985034   8.4977631   8.5079163   8.4967753   8.5059045   8.5008949
 TTTTTTTTTTTTTTTTTTTTTTTTTTTTTT MOQGAD      TELAPSE      127.19 TCPU     3627.47
 TTTTTTTTTTTTTTTTTTTTTTTTTTTTTT SHELLXN     TELAPSE      139.57 TCPU     4022.26
 TTTTTTTTTTTTTTTTTTTTTTTTTTTTTT MONMO3      TELAPSE      139.74 TCPU     4027.95
 NUMERICALLY INTEGRATED DENSITY    198.0000138516
 TTTTTTTTTTTTTTTTTTTTTTTTTTTTTT NUMDFT      TELAPSE      140.46 TCPU     4050.67
 CYC   8 ETOT(AU) -1.289116760315E+03 DETOT  1.67E-08 tst  1.39E-08 PX  1.68E-04
 TTTTTTTTTTTTTTTTTTTTTTTTTTTTTT DIIS        TELAPSE      140.54 TCPU     4053.32
 DIIS TEST: 0.60801E-06 AT SCF   CYCLE   8 - DIIS ACTIVE - HISTORY:     8 CYCLES
 TTTTTTTTTTTTTTTTTTTTTTTTTTTTTT FDIK        TELAPSE      141.03 TCPU     4069.08
 INSULATING STATE
 TOP OF VALENCE BANDS -    BAND     99; K   17; EIG -2.2938654E-01 AU
 TOP OF VALENCE BANDS -    BAND     99; K    1; EIG -2.4261984E-01 AU
 BOTTOM OF VIRTUAL BANDS - BAND    100; K    1; EIG -9.5104865E-02 AU
 INDIRECT ENERGY BAND GAP:   3.6540 eV
 TTTTTTTTTTTTTTTTTTTTTTTTTTTTTT PDIG        TELAPSE      141.35 TCPU     4075.38
 CHARGE NORMALIZATION FACTOR   1.00000000
 TOTAL ATOMIC CHARGES:
   4.4457914   4.4860076   4.4866918   4.4872881   4.4864375   4.4458514
   0.8729459   0.8731235   0.8808840   0.8809562   0.8711185   0.8708115
   0.8724617   0.8720634   0.8721056   0.8730527   0.8810129   0.8808846
   5.9220935   6.1666079   6.1661375   6.1747420   6.1752338   5.9216631
   5.9588078   6.1689688   6.1696605   6.1717888   6.1711554   5.9588688
   5.9226264   6.1647715   6.1662145   6.1760672   6.1750408   5.9222262
   8.4985391   8.4976491   8.5080553   8.4968165   8.5059762   8.5008010
 TTTTTTTTTTTTTTTTTTTTTTTTTTTTTT MOQGAD      TELAPSE      141.40 TCPU     4075.43
 TTTTTTTTTTTTTTTTTTTTTTTTTTTTTT SHELLXN     TELAPSE      153.76 TCPU     4469.96
 +++ ENERGIES IN A.U. +++
 ::: EXT EL-POLE                                  -1.6234018099085E+03
 ::: EXT EL-SPHEROPOLE                             1.7912463394458E+01
 ::: BIELET ZONE E-E                               2.4306347686231E+03
 ::: TOTAL E-E                                     8.2514542210913E+02
 ::: TOTAL E-N + N-E                              -3.4725820952268E+03
 ::: TOTAL N-N                                     2.1208711417240E+02
 ::: KINETIC ENERGY                                1.2799665164721E+03
 ::: PSEUDO TOTAL   ENERGY                        -1.1553830424731E+03
 ::: VIRIAL COEFFICIENT                            1.0511563005571E+00
 TTTTTTTTTTTTTTTTTTTTTTTTTTTTTT MONMO3      TELAPSE      153.94 TCPU     4475.66
 NUMERICALLY INTEGRATED DENSITY    198.0000138529
 EXCHANGE ENERGY: -0.126020946010E+03  CORRELATION ENERGY: -0.771277196089E+01
 TTTTTTTTTTTTTTTTTTTTTTTTTTTTTT NUMDFT      TELAPSE      154.65 TCPU     4498.18
 CYC   9 ETOT(AU) -1.289116760444E+03 DETOT -1.29E-07 tst  3.28E-09 PX  1.68E-04

 == SCF ENDED - CONVERGENCE ON ENERGY      E(AU) -1.2891167604442E+03 CYCLES   9


 ENERGY EXPRESSION=HARTREE+FOCK EXCH*0.00000+(HSESOL     EXCH)*1.00000+PBESOL     CORR


 TOTAL ENERGY(DFT)(AU)(  9) -1.2891167604442E+03 DE-1.3E-07 tester 3.3E-09
 TTTTTTTTTTTTTTTTTTTTTTTTTTTTTT EDFT        TELAPSE      154.65 TCPU     4498.19
 
 INFORMATION **** DFTD3 ENERGY **** CALCULATE DFTD3 ENERGY

           DFT-D V3(BJ)
 DF                                         hsesol3c  
 parameters
 s6       :    1.0000
 s8       :    0.0000
 a1       :    0.5196
 a2       :    4.9385
 k1 k3    :   16.0000   -4.0000
 Cutoff   :   50.2022
 CN-Cutoff:   21.1671
 ABC-Cutoff:   21.1671
 
 Edisp /kcal,au:   -31.6912 -0.05050319

 E6    /kcal :   -33.8493
 E8    /kcal :     0.0000
 E6(ABC) "   :   2.158057
 
 INFORMATION **** DFTD3 ENERGY **** NORMAL TERMINATION OF DFTD3 MODULE

 GCP ENERGY CALCULATION
  level        hsesol3c            basis:hsesol3c
  Nbf            474
  Atoms           42

  Parameters: 
  sigma     1.0000
  eta       1.4281
  alpha     0.2936
  beta      1.9467

  dmp_scal      4.0000
  dmp_exp       6.0000
 cutoffs: 
   distance [bohr] 60.0
   noise    [a.u.] 2.2E-16
 SR-damping   T
 ** gCP correction **
  Egcp:        0.0849496848 / (a.u.) ||      53.3067 / (kcal/mol)
 INFORMATION **** GCP **** NORMAL TERMINATION OF GCP MODULE

 *******************************************************************************

 DFT-D3-GCP DISPERSION AND COUNTERPOISE CORRECTION

 D3 DISPERSION ENERGY (AU)      -5.0503186738601E-02
 GCP ENERGY (AU)                 8.4949684798476E-02
 TOTAL ENERGY + DISP + GCP (AU) -1.2890823139461E+03

 *******************************************************************************

 EIGENVECTORS IN FORTRAN UNIT 10
 TTTTTTTTTTTTTTTTTTTTTTTTTTTTTT END         TELAPSE      156.32 TCPU     4505.94
 EEEEEEEEEE TERMINATION  DATE 02 12 2025 TIME 07:59:23.5
