 Default number of threads is:           32

         
 *******************************************************************************
 *                                                                             *
 *                               CRYSTAL23                                     *
 *                      public : 1.0.1 - October 2022                          *
 *                       HTTP://WWW.CRYSTAL.UNITO.IT                           *
 *                                                                             *
 *                              MAIN AUTHORS                                   *
 *                                                                             *
 *  R. DOVESI(1,11), V.R. SAUNDERS(2), C. ROETTI(1,11), R. ORLANDO(1,11),      *
 *  C.M. ZICOVICH-WILSON(1,3), F. PASCALE(4), B. CIVALLERI(1,11),              *
 *  K. DOLL(5), N.M. HARRISON(6), I.J. BUSH(7), Ph. D'ARCO(8),                 *
 *  M. LLUNELL(9), M. CAUSA'(10), Y. NOEL(8), L. MASCHIO(1,11), A. ERBA(1,11)  *
 *  M. RE'RAT(14), S. CASASSA(1,11), B.G. SEARLE(2), J.K. DESMARAIS(1)         *
 *                                                                             *
 *        CONTRIBUTIONS TO THE CODE HAVE ALSO BEEN GIVEN BY                    *
 *                                                                             *
 *  M. FERRABONE(1,11), M. DE LA PIERRE(1,11), M. FERRERO(1,11),               *
 *  J. BAIMA(1,11), E. ALBANESE(1,11), M.F. PEINTINGER(12), R. BAST(13),       *
 *  B. KIRTMAN(15), V. LACIVITA(1,11), R. DEMICHELIS(1,16)                     *
 *  G. BRANDEBURG(17), S. SALUSTRO(1,11), G. SANSONE(1,11)                     *
 *  M.T. RUGGIERO(18), L.E. DAGA(1), L. DONA'(1), A. COSSARD(1)                *
 *                                                                             *
 * (1) THEORETICAL CHEMISTRY GROUP - UNIVERSITA' DI TORINO - TORINO (ITALY)    *
 * (2) SCIENTIFIC COMPUTING DEPARTMENT - STFC DARESBURY (UK)                   *
 * (3) UNIVERSIDAD AUTONOMA DEL ESTADO DE MORELOS - CUERNAVACA (MEXICO)        *
 * (4) UNIVERSITE' DE LORRAINE - NANCY (FRANCE)                                *
 * (5) UNIVERSITAET STUTTGART- STUTTGART (GERMANY)                             *
 * (6) IMPERIAL COLLEGE - LONDON (UK)                                          *
 * (7) SCIENTIFIC COMPUTING DEPARTMENT - STFC RAL (UK)                         *
 * (8) UPMC - SORBONNE UNIVERSITES - PARIS (FRANCE)                            *
 * (9) UNIVERSIDAD DE BARCELONA - BARCELONA (SPAIN)                            *
 *(10) UNIVERSITA' DI NAPOLI "FEDERICO II" - NAPOLI (ITALY)                    *
 *(11) NIS - NANOSTRUCTURED INTERFACES AND SURFACES - TORINO (ITALY)           *
 *(12) MPI FUER CHEMISCHE ENERGIEKONVERSION - MUELHEIM AN DER RUHR (GERMANY)   *
 *(13) UNIVERSITY OF TROMSO - TROMSO (NORWAY)                                  *
 *(14) UNIVERSITE' DE PAU ET DES PAYS DE L'ADOUR - PAU (FRANCE)                *
 *(15) UNIVERSITY OF CALIFORNIA SANTA BARBARA - SANTA BARBARA (USA)            *
 *(16) CURTIN UNIVERSITY - PERTH (AUSTRALIA)                                   *
 *(17) UNIVERSITY COLLEGE LONDON - LONDON (UK)                                 *
 *(18) UNIVERSITY OF VERMONT - BURLINGTON (USA)                                *
 *                                                                             *
 *******************************************************************************
 EEEEEEEEEE STARTING  DATE 19 02 2026 TIME 18:38:17.6
 cof-1_z36_L020_incl                                                             

 CRYSTAL CALCULATION
 (INPUT ACCORDING TO THE INTERNATIONAL TABLES FOR X-RAY CRYSTALLOGRAPHY)
 CRYSTAL FAMILY                       :  TRICLINIC   
 CRYSTAL CLASS  (GROTH - 1921)        :  TRICLINIC PEDIAL                     

 SPACE GROUP (NONCENTROSYMMETRIC)     :  P 1             

 LATTICE PARAMETERS  (ANGSTROMS AND DEGREES) - CONVENTIONAL CELL
        A           B           C        ALPHA        BETA       GAMMA
    15.02361    15.02392     4.11825    65.12808    89.99995   119.99596


 NUMBER OF IRREDUCIBLE ATOMS IN THE CONVENTIONAL CELL:   42

 INPUT COORDINATES

 ATOM AT. N.              COORDINATES
   1   5     5.751554200000E-01  1.502601600000E-01  5.013252200000E-01
   2   5     7.342110800000E-01  3.093198100000E-01  5.013252400000E-01
   3   5     5.753655400000E-01  3.097314100000E-01  4.985354700000E-01
   4   5     1.887301300000E-01  5.365751500000E-01  5.013252300000E-01
   5   5     3.478381000000E-01  5.365543900000E-01  5.013252200000E-01
   6   5     3.480327700000E-01  6.961223900000E-01  4.985354700000E-01
   7   1     8.649629600000E-01  2.327610000000E-01  4.955414900000E-01
   8   1     5.862184000000E-02  6.150203300000E-01  4.946570500000E-01
   9   1     8.649691900000E-01  5.180602400000E-01  4.945209300000E-01
  10   1     5.873134000000E-02  3.296675400000E-01  4.945548800000E-01
  11   1     6.522667500000E-01  1.946494000000E-02  5.044552600000E-01
  12   1     2.700961000000E-01  8.257621800000E-01  5.053397500000E-01
  13   1     3.670259000000E-01  1.935391000000E-02  5.054759500000E-01
  14   1     5.554707500000E-01  8.256565000000E-01  5.054417700000E-01
  15   1     6.529920800000E-01  5.178851500000E-01  4.955415400000E-01
  16   1     2.709491400000E-01  3.295762300000E-01  4.946570000000E-01
  17   1     3.678383500000E-01  2.328110800000E-01  4.945208200000E-01
  18   1     5.562860300000E-01  6.149405100000E-01  4.945549900000E-01
  19   6     8.535874200000E-01  3.693301300000E-01  4.984333900000E-01
  20   6     9.083980000000E-01  3.165956600000E-01  4.956775900000E-01
  21   6     1.531530000000E-02  5.310319200000E-01  4.954395300000E-01
  22   6     9.083243900000E-01  4.774289900000E-01  4.961539800000E-01
  23   6     1.543980000000E-02  3.702691700000E-01  4.943167300000E-01
  24   6     6.990555000000E-02  4.777672100000E-01  4.961879600000E-01
  25   6     5.154960000000E-01  3.107379000000E-02  5.015633900000E-01
  26   6     5.684226600000E-01 -2.396232000000E-02  5.043191400000E-01
  27   6     3.540251800000E-01  8.691083000000E-01  5.045572900000E-01
  28   6     4.075689900000E-01 -2.384219000000E-02  5.038428600000E-01
  29   6     5.148570900000E-01  8.688961300000E-01  5.056799700000E-01
  30   6     4.072119400000E-01  8.145522500000E-01  5.038088000000E-01
  31   6     5.157419800000E-01  3.692609900000E-01  4.984333900000E-01
  32   6     5.691191000000E-01  4.774358000000E-01  4.956776500000E-01
  33   6     3.547505500000E-01  3.700186600000E-01  4.954394700000E-01
  34   6     4.081595400000E-01  3.164268000000E-01  4.961539000000E-01
  35   6     5.157564200000E-01  5.311171900000E-01  4.943168000000E-01
  36   6     4.078296400000E-01  4.776898100000E-01  4.961879600000E-01
  37   8     5.223684300000E-01  2.036263300000E-01  4.992839200000E-01
  38   8     6.808611500000E-01  2.027293400000E-01  5.051696600000E-01
  39   8     6.815412400000E-01  3.630393400000E-01  4.962900500000E-01
  40   8     2.419562600000E-01  6.429068100000E-01  4.992839500000E-01
  41   8     2.415234200000E-01  4.830466200000E-01  5.051696500000E-01
  42   8     4.011256600000E-01  6.433513100000E-01  4.962900300000E-01

 *******************************************************************************

 << INFORMATION >>: FROM NOW ON, ALL COORDINATES REFER TO THE PRIMITIVE CELL

 *******************************************************************************

 LATTICE PARAMETERS  (ANGSTROMS AND DEGREES) - PRIMITIVE CELL
       A          B          C        ALPHA      BETA     GAMMA        VOLUME
   15.02361   15.02392    4.11825    65.12808  89.99995 119.99596    703.735886

 COORDINATES OF THE EQUIVALENT ATOMS (FRACTIONAL UNITS)

 N. ATOM EQUIV AT. N.          X                  Y                  Z

   1   1   1    5 B    -4.24844580000E-01  1.50260160000E-01 -4.98674780000E-01

   2   2   1    5 B    -2.65788920000E-01  3.09319810000E-01 -4.98674760000E-01

   3   3   1    5 B    -4.24634460000E-01  3.09731410000E-01  4.98535470000E-01

   4   4   1    5 B     1.88730130000E-01 -4.63424850000E-01 -4.98674770000E-01

   5   5   1    5 B     3.47838100000E-01 -4.63445610000E-01 -4.98674780000E-01

   6   6   1    5 B     3.48032770000E-01 -3.03877610000E-01  4.98535470000E-01

   7   7   1    1 H    -1.35037040000E-01  2.32761000000E-01  4.95541490000E-01

   8   8   1    1 H     5.86218400000E-02 -3.84979670000E-01  4.94657050000E-01

   9   9   1    1 H    -1.35030810000E-01 -4.81939760000E-01  4.94520930000E-01

  10  10   1    1 H     5.87313400000E-02  3.29667540000E-01  4.94554880000E-01

  11  11   1    1 H    -3.47733250000E-01  1.94649400000E-02 -4.95544740000E-01

  12  12   1    1 H     2.70096100000E-01 -1.74237820000E-01 -4.94660250000E-01

  13  13   1    1 H     3.67025900000E-01  1.93539100000E-02 -4.94524050000E-01

  14  14   1    1 H    -4.44529250000E-01 -1.74343500000E-01 -4.94558230000E-01

  15  15   1    1 H    -3.47007920000E-01 -4.82114850000E-01  4.95541540000E-01

  16  16   1    1 H     2.70949140000E-01  3.29576230000E-01  4.94657000000E-01

  17  17   1    1 H     3.67838350000E-01  2.32811080000E-01  4.94520820000E-01

  18  18   1    1 H    -4.43713970000E-01 -3.85059490000E-01  4.94554990000E-01

  19  19   1    6 C    -1.46412580000E-01  3.69330130000E-01  4.98433390000E-01

  20  20   1    6 C    -9.16020000000E-02  3.16595660000E-01  4.95677590000E-01

  21  21   1    6 C     1.53153000000E-02 -4.68968080000E-01  4.95439530000E-01

  22  22   1    6 C    -9.16756100000E-02  4.77428990000E-01  4.96153980000E-01

  23  23   1    6 C     1.54398000000E-02  3.70269170000E-01  4.94316730000E-01

  24  24   1    6 C     6.99055500000E-02  4.77767210000E-01  4.96187960000E-01

  25  25   1    6 C    -4.84504000000E-01  3.10737900000E-02 -4.98436610000E-01

  26  26   1    6 C    -4.31577340000E-01 -2.39623200000E-02 -4.95680860000E-01

  27  27   1    6 C     3.54025180000E-01 -1.30891700000E-01 -4.95442710000E-01

  28  28   1    6 C     4.07568990000E-01 -2.38421900000E-02 -4.96157140000E-01

  29  29   1    6 C    -4.85142910000E-01 -1.31103870000E-01 -4.94320030000E-01

  30  30   1    6 C     4.07211940000E-01 -1.85447750000E-01 -4.96191200000E-01

  31  31   1    6 C    -4.84258020000E-01  3.69260990000E-01  4.98433390000E-01

  32  32   1    6 C    -4.30880900000E-01  4.77435800000E-01  4.95677650000E-01

  33  33   1    6 C     3.54750550000E-01  3.70018660000E-01  4.95439470000E-01

  34  34   1    6 C     4.08159540000E-01  3.16426800000E-01  4.96153900000E-01

  35  35   1    6 C    -4.84243580000E-01 -4.68882810000E-01  4.94316800000E-01

  36  36   1    6 C     4.07829640000E-01  4.77689810000E-01  4.96187960000E-01

  37  37   1    8 O    -4.77631570000E-01  2.03626330000E-01  4.99283920000E-01

  38  38   1    8 O    -3.19138850000E-01  2.02729340000E-01 -4.94830340000E-01

  39  39   1    8 O    -3.18458760000E-01  3.63039340000E-01  4.96290050000E-01

  40  40   1    8 O     2.41956260000E-01 -3.57093190000E-01  4.99283950000E-01

  41  41   1    8 O     2.41523420000E-01  4.83046620000E-01 -4.94830350000E-01

  42  42   1    8 O     4.01125660000E-01 -3.56648690000E-01  4.96290030000E-01

 NUMBER OF SYMMETRY OPERATORS         :    1
 *******************************************************************************
 * GEOMETRY EDITING - INPUT COORDINATES ARE GIVEN IN ANGSTROM         
 *******************************************************************************

 GCALCO - MAX INDICES DIRECT LATTICE VECTOR     9    10    34
 NO.OF VECTORS CREATED 6999 STARS 3500 RMAX   199.02452 BOHR

 GEOMETRY FOR WAVE FUNCTION - DIMENSIONALITY OF THE SYSTEM    3
 (NON PERIODIC DIRECTION: LATTICE PARAMETER FORMALLY SET TO 500)
 *******************************************************************************
 LATTICE PARAMETERS (ANGSTROMS AND DEGREES) - BOHR = 0.5291772083 ANGSTROM
 PRIMITIVE CELL - CENTRING CODE 1/0 VOLUME=   703.735886 - DENSITY  0.921 g/cm^3
         A              B              C           ALPHA      BETA       GAMMA 
    15.02361100    15.02391600     4.11825200    65.128076  89.999951 119.995964
 *******************************************************************************
 ATOMS IN THE ASYMMETRIC UNIT   42 - ATOMS IN THE UNIT CELL:   42
     ATOM                 X/A                 Y/B                 Z/C    
 *******************************************************************************
      1 T   5 B    -4.248445800000E-01  1.502601600000E-01 -4.986747800000E-01
      2 T   5 B    -2.657889200000E-01  3.093198100000E-01 -4.986747600000E-01
      3 T   5 B    -4.246344600000E-01  3.097314100000E-01  4.985354700000E-01
      4 T   5 B     1.887301300000E-01 -4.634248500000E-01 -4.986747700000E-01
      5 T   5 B     3.478381000000E-01 -4.634456100000E-01 -4.986747800000E-01
      6 T   5 B     3.480327700000E-01 -3.038776100000E-01  4.985354700000E-01
      7 T   1 H    -1.350370400000E-01  2.327610000000E-01  4.955414900000E-01
      8 T   1 H     5.862184000000E-02 -3.849796700000E-01  4.946570500000E-01
      9 T   1 H    -1.350308100000E-01 -4.819397600000E-01  4.945209300000E-01
     10 T   1 H     5.873134000000E-02  3.296675400000E-01  4.945548800000E-01
     11 T   1 H    -3.477332500000E-01  1.946494000000E-02 -4.955447400000E-01
     12 T   1 H     2.700961000000E-01 -1.742378200000E-01 -4.946602500000E-01
     13 T   1 H     3.670259000000E-01  1.935391000000E-02 -4.945240500000E-01
     14 T   1 H    -4.445292500000E-01 -1.743435000000E-01 -4.945582300000E-01
     15 T   1 H    -3.470079200000E-01 -4.821148500000E-01  4.955415400000E-01
     16 T   1 H     2.709491400000E-01  3.295762300000E-01  4.946570000000E-01
     17 T   1 H     3.678383500000E-01  2.328110800000E-01  4.945208200000E-01
     18 T   1 H    -4.437139700000E-01 -3.850594900000E-01  4.945549900000E-01
     19 T   6 C    -1.464125800000E-01  3.693301300000E-01  4.984333900000E-01
     20 T   6 C    -9.160200000000E-02  3.165956600000E-01  4.956775900000E-01
     21 T   6 C     1.531530000000E-02 -4.689680800000E-01  4.954395300000E-01
     22 T   6 C    -9.167561000000E-02  4.774289900000E-01  4.961539800000E-01
     23 T   6 C     1.543980000000E-02  3.702691700000E-01  4.943167300000E-01
     24 T   6 C     6.990555000000E-02  4.777672100000E-01  4.961879600000E-01
     25 T   6 C    -4.845040000000E-01  3.107379000000E-02 -4.984366100000E-01
     26 T   6 C    -4.315773400000E-01 -2.396232000000E-02 -4.956808600000E-01
     27 T   6 C     3.540251800000E-01 -1.308917000000E-01 -4.954427100000E-01
     28 T   6 C     4.075689900000E-01 -2.384219000000E-02 -4.961571400000E-01
     29 T   6 C    -4.851429100000E-01 -1.311038700000E-01 -4.943200300000E-01
     30 T   6 C     4.072119400000E-01 -1.854477500000E-01 -4.961912000000E-01
     31 T   6 C    -4.842580200000E-01  3.692609900000E-01  4.984333900000E-01
     32 T   6 C    -4.308809000000E-01  4.774358000000E-01  4.956776500000E-01
     33 T   6 C     3.547505500000E-01  3.700186600000E-01  4.954394700000E-01
     34 T   6 C     4.081595400000E-01  3.164268000000E-01  4.961539000000E-01
     35 T   6 C    -4.842435800000E-01 -4.688828100000E-01  4.943168000000E-01
     36 T   6 C     4.078296400000E-01  4.776898100000E-01  4.961879600000E-01
     37 T   8 O    -4.776315700000E-01  2.036263300000E-01  4.992839200000E-01
     38 T   8 O    -3.191388500000E-01  2.027293400000E-01 -4.948303400000E-01
     39 T   8 O    -3.184587600000E-01  3.630393400000E-01  4.962900500000E-01
     40 T   8 O     2.419562600000E-01 -3.570931900000E-01  4.992839500000E-01
     41 T   8 O     2.415234200000E-01  4.830466200000E-01 -4.948303500000E-01
     42 T   8 O     4.011256600000E-01 -3.566486900000E-01  4.962900300000E-01

 T = ATOM BELONGING TO THE ASYMMETRIC UNIT

 ****    1 SYMMOPS - TRANSLATORS IN FRACTIONAL UNITS
 **** MATRICES AND TRANSLATORS IN THE CRYSTALLOGRAPHIC REFERENCE FRAME
   V INV                    ROTATION MATRICES                   TRANSLATORS
   1   1  1.00  0.00  0.00  0.00  1.00  0.00  0.00  0.00  1.00  0.00  0.00  0.00

 DIRECT LATTICE VECTORS CARTESIAN COMPONENTS (ANGSTROM)
          X                    Y                    Z
   0.130113578931E+02  -0.751088897922E+01   0.000000000000E+00
   0.000000000000E+00   0.150239160000E+02   0.000000000000E+00
   0.999870334422E+00   0.173210093919E+01   0.360001183141E+01


 CARTESIAN COORDINATES - PRIMITIVE CELL
 *******************************************************************************
 *      ATOM          X(ANGSTROM)         Y(ANGSTROM)         Z(ANGSTROM)
 *******************************************************************************
    1     5 B    -6.026414998352E+00  4.584701441003E+00 -1.795235108028E+00
    2     5 B    -3.956884861178E+00  5.779750892458E+00 -1.795235036028E+00
    3     5 B     6.984887452960E+00 -5.367151903864E-01 -1.805278241035E+00
    4     5 B     1.957025157586E+00  5.780173890359E+00 -1.795235072028E+00
    5     5 B     4.027235888895E+00  4.584819678164E+00 -1.795235108028E+00
    6     5 B     4.026979421670E+00  6.975861633099E+00 -1.805278241035E+00
    7     1 H    -2.261408355355E+00  3.637456868647E+00 -1.816056604458E+00
    8     1 H     1.257342650597E+00 -5.367408414906E+00  1.780771232492E+00
    9     1 H    -1.262477387842E+00 -5.369860881317E+00  1.780281198882E+00
   10     1 H     2.587949031126E-01  3.636290887488E+00 -1.819608412131E+00
   11     1 H    -5.019962251970E+00  2.045891949075E+00 -1.783966926995E+00
   12     1 H     4.019591247448E+00 -3.771096736940E+00  1.819229078884E+00
   13     1 H     4.281045413668E+00 -3.322484840740E+00 -1.780292430919E+00
   14     1 H    -5.278552934081E+00  1.594963910139E+00  1.819596352091E+00
   15     1 H    -4.019566953526E+00 -3.778587079885E+00  1.783955406957E+00
   16     1 H     3.020138756948E+00  2.041151600652E+00 -1.819240778922E+00
   17     1 H     4.280662781892E+00 -1.405998617754E-01 -1.819731028534E+00
   18     1 H    -5.278830402578E+00 -1.595795902908E+00  1.780403815285E+00
   19     6 C    -2.406528052501E+00  5.779709486685E+00 -1.805645730242E+00
   20     6 C    -1.696123422463E+00  4.570981734066E+00 -1.815566642847E+00
   21     6 C     6.946481380863E-01 -6.302617283362E+00  1.783588169750E+00
   22     6 C    -6.967345258671E-01 -6.303108854725E+00  1.786160198203E+00
   23     6 C    -3.047249366891E-01  4.571031816911E+00 -1.820465754948E+00
   24     6 C     4.058194168405E-01  5.780228297857E+00 -1.813729304809E+00
   25     6 C     6.208930968510E+00 -4.268325734774E+00 -1.794377693210E+00
   26     6 C    -5.111153482106E+00  3.755053259883E+00  1.815554870809E+00
   27     6 C     5.110840186421E+00 -3.751605572843E+00  1.816412213626E+00
   28     6 C     5.806803523926E+00 -2.546701804070E+00  1.813840257174E+00
   29     6 C    -5.806753630575E+00  2.550049756873E+00  1.820453874909E+00
   30     6 C     5.802123763006E+00 -4.972027395091E+00  1.813717640771E+00
   31     6 C     6.209001908178E+00  8.053013458907E-01 -1.805645730242E+00
   32     6 C    -5.110732221512E+00 -3.756098319144E+00  1.784445404568E+00
   33     6 C     4.111291262942E+00  2.020687502018E+00 -1.816423877665E+00
   34     6 C     4.806929083901E+00  8.156163695860E-01 -1.813851921212E+00
   35     6 C    -5.806413822669E+00 -2.551149589471E+00  1.779546328467E+00
   36     6 C     4.802670692516E+00  3.240955123365E+00 -1.813729304809E+00
   37     8 O     6.296071440404E+00 -1.731477199102E+00 -1.802583812179E+00
   38     8 O    -4.647195972466E+00  4.585708949549E+00 -1.781395078543E+00
   39     8 O    -3.647355202275E+00 -6.318110598612E+00  1.786650051813E+00
   40     8 O     3.647398703383E+00 -6.317434498703E+00  1.797428127235E+00
   41     8 O     2.647781469639E+00  4.586100135491E+00 -1.781395114543E+00
   42     8 O    -7.295942692442E+00 -5.568527573364E-04  1.786649979813E+00

 *******************************************************************************
 STARTING BASIS SET HANDLING 
 *******************************************************************************

 Loading internal basis set: SOLDEF2MSVP         

 Please cite in your publication:
 L. Dona', J. G. Brandenburg and B. Civalleri, J. Chem. Phys., 151, 121101 (2019
 )                                                                              
                                                                                
                    

 *******************************************************************************
 LOCAL ATOMIC FUNCTIONS BASIS SET
 *******************************************************************************
   ATOM   X(AU)   Y(AU)   Z(AU)  N. TYPE  EXPONENT  S COEF   P COEF   D/F/G COEF
 *******************************************************************************
   1 B  -11.388   8.664  -3.393
                                  1 S  
                                         2.410E+03 1.755E-03 0.000E+00 0.000E+00
                                         3.619E+02 1.344E-02 0.000E+00 0.000E+00
                                         8.231E+01 6.637E-02 0.000E+00 0.000E+00
                                         2.311E+01 2.303E-01 0.000E+00 0.000E+00
                                         7.252E+00 5.150E-01 0.000E+00 0.000E+00
                                  2 S  
                                         2.367E+00 1.000E+00 0.000E+00 0.000E+00
                                  3 S  
                                         5.533E-01 1.000E+00 0.000E+00 0.000E+00
                                  4 S  
                                         1.716E-01 1.000E+00 0.000E+00 0.000E+00
                           5-     7 P  
                                         6.002E+00 0.000E+00-3.555E-02 0.000E+00
                                         1.240E+00 0.000E+00-1.983E-01 0.000E+00
                                         3.367E-01 0.000E+00-5.048E-01 0.000E+00
                           8-    10 P  
                                         1.256E-01 0.000E+00 1.000E+00 0.000E+00
                          11-    15 D  
                                         8.880E-01 0.000E+00 0.000E+00 1.000E+00
   2 B   -7.477  10.922  -3.393
   3 B   13.200  -1.014  -3.411
   4 B    3.698  10.923  -3.393
   5 B    7.610   8.664  -3.393
   6 B    7.610  13.182  -3.411
   7 H   -4.273   6.874  -3.432
                                 91 S  
                                         1.874E+01 1.968E-02 0.000E+00 0.000E+00
                                         2.826E+00 1.380E-01 0.000E+00 0.000E+00
                                         6.401E-01 4.783E-01 0.000E+00 0.000E+00
                                 92 S  
                                         1.756E-01 1.000E+00 0.000E+00 0.000E+00
   8 H    2.376 -10.143   3.365
   9 H   -2.386 -10.148   3.364
  10 H    0.489   6.872  -3.439
  11 H   -9.486   3.866  -3.371
  12 H    7.596  -7.126   3.438
  13 H    8.090  -6.279  -3.364
  14 H   -9.975   3.014   3.439
  15 H   -7.596  -7.140   3.371
  16 H    5.707   3.857  -3.438
  17 H    8.089  -0.266  -3.439
  18 H   -9.976  -3.016   3.364
  19 C   -4.548  10.922  -3.412
                                115 S  
                                         3.624E+03 1.634E-03 0.000E+00 0.000E+00
                                         5.440E+02 1.252E-02 0.000E+00 0.000E+00
                                         1.237E+02 6.211E-02 0.000E+00 0.000E+00
                                         3.476E+01 2.182E-01 0.000E+00 0.000E+00
                                         1.093E+01 4.980E-01 0.000E+00 0.000E+00
                                116 S  
                                         3.574E+00 1.000E+00 0.000E+00 0.000E+00
                                117 S  
                                         7.742E-01 1.000E+00 0.000E+00 0.000E+00
                                118 S  
                                         2.330E-01 1.000E+00 0.000E+00 0.000E+00
                         119-   121 P  
                                         9.443E+00 0.000E+00 3.790E-02 0.000E+00
                                         2.002E+00 0.000E+00 2.082E-01 0.000E+00
                                         5.463E-01 0.000E+00 5.047E-01 0.000E+00
                         122-   124 P  
                                         1.820E-01 0.000E+00 1.000E+00 0.000E+00
                         125-   129 D  
                                         8.880E-01 0.000E+00 0.000E+00 1.000E+00
  20 C   -3.205   8.638  -3.431
  21 C    1.313 -11.910   3.370
  22 C   -1.317 -11.911   3.375
  23 C   -0.576   8.638  -3.440
  24 C    0.767  10.923  -3.427
  25 C   11.733  -8.066  -3.391
  26 C   -9.659   7.096   3.431
  27 C    9.658  -7.090   3.433
  28 C   10.973  -4.813   3.428
  29 C  -10.973   4.819   3.440
  30 C   10.964  -9.396   3.427
  31 C   11.733   1.522  -3.412
  32 C   -9.658  -7.098   3.372
  33 C    7.769   3.819  -3.433
  34 C    9.084   1.541  -3.428
  35 C  -10.973  -4.821   3.363
  36 C    9.076   6.125  -3.427
  37 O   11.898  -3.272  -3.406
                                385 S  
                                         6.773E+03 1.727E-03 0.000E+00 0.000E+00
                                         1.017E+03 1.325E-02 0.000E+00 0.000E+00
                                         2.313E+02 6.603E-02 0.000E+00 0.000E+00
                                         6.501E+01 2.353E-01 0.000E+00 0.000E+00
                                         2.050E+01 5.498E-01 0.000E+00 0.000E+00
                                386 S  
                                         6.716E+00 1.000E+00 0.000E+00 0.000E+00
                                387 S  
                                         1.147E+00 1.000E+00 0.000E+00 0.000E+00
                                388 S  
                                         3.342E-01 1.000E+00 0.000E+00 0.000E+00
                         389-   391 P  
                                         1.769E+01 0.000E+00 4.359E-02 0.000E+00
                                         3.854E+00 0.000E+00 2.318E-01 0.000E+00
                                         1.047E+00 0.000E+00 5.146E-01 0.000E+00
                         392-   394 P  
                                         2.759E-01 0.000E+00 1.000E+00 0.000E+00
                         395-   399 D  
                                         8.000E-01 0.000E+00 0.000E+00 1.000E+00
  38 O   -8.782   8.666  -3.366
  39 O   -6.893 -11.939   3.376
  40 O    6.893 -11.938   3.397
  41 O    5.004   8.666  -3.366
  42 O  -13.787  -0.001   3.376

 *******************************************************************************
 FINISHED BASIS SET HANDLING 
 *******************************************************************************

 INFORMATION **** SET_MPP **** PCRYSTAL CALCULATION
 INFORMATION **** READM2 **** NEW DEFAULT: FOCK/KS MATRIX MIXING SET TO 30 %
 INFORMATION **** READM2 **** NEW DEFAULT: FULL DIRECT SCF MODE
 INFORMATION **** READM2 **** NEW DEFAULT: COULOMB BIPOLAR BUFFER SET TO 32 Mb
 INFORMATION **** READM2 **** NEW DEFAULT: EXCHANGE BIPOLAR BUFFER SET TO 32 Mb

 *******************************************************************************
 NEW DEFAULT: DFT INTEGRATION GRID INCREASED TO XLGRID
 NEW DEFAULT: DIIS ACCELERATOR ACTIVE
 USE KEYWORD NODIIS TO TURN IT OFF
 *******************************************************************************

 WARNING **** RDDFTP **** HSEsol-HJS ACTIVE
 RANGE SEPARATION - OMEGA:   0.110000000000000     
 WARNING **** RDDFTP **** HSEsol-3c has to be combined with sol-def2-mSVP basis set
 *******************************************************************************
 N. OF ATOMS PER CELL        42  COULOMB OVERLAP TOL         (T1) 10**   -6
 NUMBER OF SHELLS           234  COULOMB PENETRATION TOL     (T2) 10**   -6
 NUMBER OF AO               474  EXCHANGE OVERLAP TOL        (T3) 10**   -6
 N. OF ELECTRONS PER CELL   198  EXCHANGE PSEUDO OVP (F(G))  (T4) 10**   -6
 CORE ELECTRONS PER CELL     60  EXCHANGE PSEUDO OVP (P(G))  (T5) 10**  -12
 N. OF SYMMETRY OPERATORS     1  POLE ORDER IN MONO ZONE                  4
 *******************************************************************************
 TYPE OF CALCULATION :  RESTRICTED CLOSED SHELL
 KOHN-SHAM HAMILTONIAN

 (EXCHANGE)[CORRELATION] FUNCTIONAL:(HSEsol GGA)[PBEsol]

 RANGE-SEPARATED HYBRID FUNCTIONAL 
 OMEGA (SHORT-RANGE)[LONG-RANGE]:(    0.1100)[    0.0000]

 HYBRID EXCHANGE - PERCENTAGE OF FOCK EXCHANGE    25.0000

 CAPPA:IS1  2;IS2  2;IS3  8; K PTS MONK NET  20; SYMMOPS:K SPACE   2;G SPACE   1

 *******************************************************************************
 MAX NUMBER OF SCF CYCLES      50  CONVERGENCE ON DELTAP        10**-16
 WEIGHT OF F(I) IN F(I+1)      30% CONVERGENCE ON ENERGY        10**- 6
 SHRINK. FACT.(MONKH.)    2  2  8  NUMBER OF K POINTS IN THE IBZ     20
 SHRINKING FACTOR(GILAT NET)    8  NUMBER OF K POINTS(GILAT NET)   1028
 *******************************************************************************
 *** K POINTS COORDINATES (OBLIQUE COORDINATES IN UNITS OF IS =  2)
   1-R(  0  0  0)   2-R(  1  0  0)   3-R(  0  1  0)   4-R(  1  1  0)
   5-C(  0  0  1)   6-C(  1  0  1)   7-C(  0  1  1)   8-C(  1  1  1)
   9-C(  0  0  2)  10-C(  1  0  2)  11-C(  0  1  2)  12-C(  1  1  2)
  13-C(  0  0  3)  14-C(  1  0  3)  15-C(  0  1  3)  16-C(  1  1  3)
  17-R(  0  0  4)  18-R(  1  0  4)  19-R(  0  1  4)  20-R(  1  1  4)

 DIRECT LATTICE VECTORS COMPON. (A.U.)     RECIP. LATTICE VECTORS COMPON. (A.U.) 
        X            Y            Z              X            Y            Z
   24.5879030  -14.1935232    0.0000000      0.2555397    0.0000000   -0.0709738
    0.0000000   28.3910867    0.0000000      0.1277517    0.2213084   -0.1419616
    1.8894811    3.2731964    6.8030364      0.0000000    0.0000000    0.9235854

 DISK SPACE FOR EIGENVECTORS (FTN 10)     7189632 REALS

 SYMMETRY ADAPTION OF THE BLOCH FUNCTIONS DISABLED
 TTTTTTTTTTTTTTTTTTTTTTTTTTTTTT gordsh1     TELAPSE        0.04 TCPU        0.04

 MATRIX SIZE: P(G)  361984, F(G)   75851, P(G) IRR  183257, F(G) IRR   76547
 MAX G-VECTOR INDEX FOR 1- AND 2-ELECTRON INTEGRALS  79

 TTTTTTTTTTTTTTTTTTTTTTTTTTTTTT INPUT       TELAPSE        0.32 TCPU        0.32

 NEIGHBORS OF THE NON-EQUIVALENT ATOMS

 N = NUMBER OF NEIGHBORS AT DISTANCE R
    ATOM  N     R/ANG      R/AU   NEIGHBORS (ATOM LABELS AND CELL INDICES)
   1 B    1     1.3791     2.6061   37 O   -1 0 0
   1 B    1     1.3793     2.6065   38 O    0 0 0
   1 B    1     1.5503     2.9297   25 C   -1 0 0
   1 B    1     2.3895     4.5155    3 B   -1 0 0
   1 B    1     2.3898     4.5160    2 B    0 0 0
   1 B    1     2.5632     4.8437   26 C    0 0-1

   2 B    1     1.3793     2.6065   39 O    0 1-1
   2 B    1     1.3793     2.6065   38 O    0 0 0
   2 B    1     1.5504     2.9298   19 C    0 0 0
   2 B    1     2.3895     4.5156    3 B   -1 0 0
   2 B    1     2.3898     4.5160    1 B    0 0 0
   2 B    1     2.5634     4.8440   22 C    0 1-1

   3 B    1     1.3791     2.6061   37 O    0 0 0
   3 B    1     1.3793     2.6064   39 O    1 1-1
   3 B    1     1.5502     2.9294   31 C    0 0 0
   3 B    1     2.3895     4.5155    1 B    1 0 0
   3 B    1     2.3895     4.5156    2 B    1 0 0
   3 B    1     2.5629     4.8433   32 C    1 1-1

   4 B    1     1.3795     2.6068   40 O    0 1-1
   4 B    1     1.3795     2.6070   41 O    0 0 0
   4 B    1     1.5513     2.9316   24 C    0 0 0
   4 B    1     2.3905     4.5174    6 B    0 0 0
   4 B    1     2.3905     4.5175    5 B    0 0 0
   4 B    1     2.5648     4.8468   23 C    0 0 0

   5 B    1     1.3795     2.6069   41 O    0 0 0
   5 B    1     1.3797     2.6072   42 O    1 1-1
   5 B    1     1.5516     2.9322   36 C    0 0 0
   5 B    1     2.3905     4.5175    4 B    0 0 0
   5 B    1     2.3911     4.5185    6 B    0 0 0
   5 B    1     2.5651     4.8473   35 C    1 1-1

   6 B    1     1.3795     2.6068   40 O    0 1-1
   6 B    1     1.3796     2.6071   42 O    1 1-1
   6 B    1     1.5516     2.9322   30 C    0 1-1
   6 B    1     2.3905     4.5174    4 B    0 0 0
   6 B    1     2.3911     4.5185    5 B    0 0 0
   6 B    1     2.5651     4.8473   29 C    1 1-1

   7 H    1     1.0913     2.0623   20 C    0 0 0
   7 H    1     2.1472     4.0576   19 C    0 0 0
   7 H    1     2.1680     4.0969   23 C    0 0 0
   7 H    1     2.5202     4.7625   10 H    0 0 0
   7 H    1     2.5676     4.8520   38 O    0 0 0
   7 H    1     2.7321     5.1630    2 B    0 0 0

   8 H    1     1.0914     2.0625   21 C    0 0 0
   8 H    1     2.1493     4.0616   24 C    0-1 1
   8 H    1     2.1666     4.0942   22 C    0 0 0
   8 H    1     2.5198     4.7618    9 H    0 0 0
   8 H    1     2.5720     4.8604   40 O    0 0 0
   8 H    1     2.7362     5.1707    4 B    0-1 1

   9 H    1     1.0914     2.0624   22 C    0 0 0
   9 H    1     2.1471     4.0575   19 C    0-1 1
   9 H    1     2.1680     4.0970   21 C    0 0 0
   9 H    1     2.5198     4.7618    8 H    0 0 0
   9 H    1     2.5665     4.8500   39 O    0 0 0
   9 H    1     2.7315     5.1618    2 B    0-1 1

  10 H    1     1.0915     2.0626   23 C    0 0 0
  10 H    1     2.1490     4.0610   24 C    0 0 0
  10 H    1     2.1669     4.0948   20 C    0 0 0
  10 H    1     2.5202     4.7625    7 H    0 0 0
  10 H    1     2.5712     4.8588   41 O    0 0 0
  10 H    1     2.7351     5.1686    4 B    0 0 0

  11 H    1     1.0913     2.0623   26 C    0 0-1
  11 H    1     2.1469     4.0571   25 C   -1 0 0
  11 H    1     2.1680     4.0968   29 C    0 0-1
  11 H    1     2.5198     4.7617   14 H    0 0-1
  11 H    1     2.5670     4.8510   38 O    0 0 0
  11 H    1     2.7310     5.1609    1 B    0 0 0

  12 H    1     1.0914     2.0625   27 C    0 0 0
  12 H    1     2.1493     4.0617   30 C    0 0 0
  12 H    1     2.1664     4.0939   28 C    0 0 0
  12 H    1     2.5192     4.7606   13 H    0 0 1
  12 H    1     2.5735     4.8632   40 O    0 0 0
  12 H    1     2.7371     5.1723    6 B    0-1 1

  13 H    1     1.0914     2.0624   28 C    0 0-1
  13 H    1     2.1475     4.0581   25 C    0 0 0
  13 H    1     2.1679     4.0967   27 C    0 0-1
  13 H    1     2.5192     4.7606   12 H    0 0-1
  13 H    1     2.5675     4.8519   37 O    0 0 0
  13 H    1     2.7328     5.1643    1 B    1 0 0

  14 H    1     1.0914     2.0625   29 C    0 0 0
  14 H    1     2.1491     4.0612   30 C   -1 0 0
  14 H    1     2.1666     4.0942   26 C    0 0 0
  14 H    1     2.5198     4.7617   11 H    0 0 1
  14 H    1     2.5723     4.8609   42 O    0 0 0
  14 H    1     2.7355     5.1693    6 B   -1-1 1

  15 H    1     1.0914     2.0624   32 C    0 0 0
  15 H    1     2.1475     4.0582   31 C   -1-1 1
  15 H    1     2.1678     4.0966   35 C    0 0 0
  15 H    1     2.5200     4.7621   18 H    0 0 0
  15 H    1     2.5667     4.8503   39 O    0 0 0
  15 H    1     2.7315     5.1618    3 B   -1-1 1

  16 H    1     1.0913     2.0623   33 C    0 0 0
  16 H    1     2.1487     4.0605   36 C    0 0 0
  16 H    1     2.1667     4.0945   34 C    0 0 0
  16 H    1     2.5197     4.7616   17 H    0 0 0
  16 H    1     2.5723     4.8610   41 O    0 0 0
  16 H    1     2.7359     5.1701    5 B    0 0 0

  17 H    1     1.0915     2.0626   34 C    0 0 0
  17 H    1     2.1479     4.0589   31 C    0 0 0
  17 H    1     2.1679     4.0968   33 C    0 0 0
  17 H    1     2.5197     4.7616   16 H    0 0 0
  17 H    1     2.5677     4.8522   37 O    0 0 0
  17 H    1     2.7331     5.1648    3 B    0 0 0

  18 H    1     1.0914     2.0624   35 C    0 0 0
  18 H    1     2.1486     4.0602   36 C   -1-1 1
  18 H    1     2.1668     4.0947   32 C    0 0 0
  18 H    1     2.5200     4.7621   15 H    0 0 0
  18 H    1     2.5717     4.8598   42 O    0 0 0
  18 H    1     2.7349     5.1682    5 B   -1-1 1

  19 C    1     1.4020     2.6495   22 C    0 1-1
  19 C    1     1.4021     2.6495   20 C    0 0 0
  19 C    1     1.5504     2.9298    2 B    0 0 0
  19 C    1     2.1471     4.0575    9 H    0 1-1
  19 C    1     2.1472     4.0576    7 H    0 0 0
  19 C    1     2.4246     4.5817   21 C    0 1-1

  20 C    1     1.0913     2.0623    7 H    0 0 0
  20 C    1     1.3914     2.6294   23 C    0 0 0
  20 C    1     1.4021     2.6495   19 C    0 0 0
  20 C    1     2.1669     4.0948   10 H    0 0 0
  20 C    1     2.4177     4.5688   22 C    0 1-1
  20 C    1     2.4250     4.5825   24 C    0 0 0

  21 C    1     1.0914     2.0625    8 H    0 0 0
  21 C    1     1.3914     2.6293   22 C    0 0 0
  21 C    1     1.4026     2.6505   24 C    0-1 1
  21 C    1     2.1680     4.0970    9 H    0 0 0
  21 C    1     2.4182     4.5697   23 C    0-1 1
  21 C    1     2.4246     4.5817   19 C    0-1 1

  22 C    1     1.0914     2.0624    9 H    0 0 0
  22 C    1     1.3914     2.6293   21 C    0 0 0
  22 C    1     1.4020     2.6495   19 C    0-1 1
  22 C    1     2.1666     4.0942    8 H    0 0 0
  22 C    1     2.4177     4.5688   20 C    0-1 1
  22 C    1     2.4250     4.5826   24 C    0-1 1

  23 C    1     1.0915     2.0626   10 H    0 0 0
  23 C    1     1.3914     2.6294   20 C    0 0 0
  23 C    1     1.4025     2.6504   24 C    0 0 0
  23 C    1     2.1680     4.0969    7 H    0 0 0
  23 C    1     2.4182     4.5697   21 C    0 1-1
  23 C    1     2.4246     4.5818   19 C    0 0 0

  24 C    1     1.4025     2.6504   23 C    0 0 0
  24 C    1     1.4026     2.6505   21 C    0 1-1
  24 C    1     1.5513     2.9316    4 B    0 0 0
  24 C    1     2.1490     4.0610   10 H    0 0 0
  24 C    1     2.1493     4.0616    8 H    0 1-1
  24 C    1     2.4250     4.5825   20 C    0 0 0

  25 C    1     1.4020     2.6494   26 C    1 0-1
  25 C    1     1.4021     2.6495   28 C    0 0-1
  25 C    1     1.5503     2.9297    1 B    1 0 0
  25 C    1     2.1469     4.0571   11 H    1 0 0
  25 C    1     2.1475     4.0581   13 H    0 0 0
  25 C    1     2.4246     4.5818   27 C    0 0-1

  26 C    1     1.0913     2.0623   11 H    0 0 1
  26 C    1     1.3914     2.6293   29 C    0 0 0
  26 C    1     1.4020     2.6494   25 C   -1 0 1
  26 C    1     2.1666     4.0942   14 H    0 0 0
  26 C    1     2.4175     4.5684   28 C   -1 0 0
  26 C    1     2.4251     4.5828   30 C   -1 0 0

  27 C    1     1.0914     2.0625   12 H    0 0 0
  27 C    1     1.3915     2.6295   28 C    0 0 0
  27 C    1     1.4026     2.6505   30 C    0 0 0
  27 C    1     2.1679     4.0967   13 H    0 0 1
  27 C    1     2.4179     4.5691   29 C    1 0 0
  27 C    1     2.4246     4.5818   25 C    0 0 1

  28 C    1     1.0914     2.0624   13 H    0 0 1
  28 C    1     1.3915     2.6295   27 C    0 0 0
  28 C    1     1.4021     2.6495   25 C    0 0 1
  28 C    1     2.1664     4.0939   12 H    0 0 0
  28 C    1     2.4175     4.5684   26 C    1 0 0
  28 C    1     2.4253     4.5832   30 C    0 0 0

  29 C    1     1.0914     2.0625   14 H    0 0 0
  29 C    1     1.3914     2.6293   26 C    0 0 0
  29 C    1     1.4025     2.6504   30 C   -1 0 0
  29 C    1     2.1680     4.0968   11 H    0 0 1
  29 C    1     2.4179     4.5691   27 C   -1 0 0
  29 C    1     2.4247     4.5819   25 C   -1 0 1

  30 C    1     1.4025     2.6504   29 C    1 0 0
  30 C    1     1.4026     2.6505   27 C    0 0 0
  30 C    1     1.5516     2.9322    6 B    0-1 1
  30 C    1     2.1491     4.0612   14 H    1 0 0
  30 C    1     2.1493     4.0617   12 H    0 0 0
  30 C    1     2.4251     4.5828   26 C    1 0 0

  31 C    1     1.4021     2.6496   32 C    1 1-1
  31 C    1     1.4021     2.6497   34 C    0 0 0
  31 C    1     1.5502     2.9294    3 B    0 0 0
  31 C    1     2.1475     4.0582   15 H    1 1-1
  31 C    1     2.1479     4.0589   17 H    0 0 0
  31 C    1     2.4244     4.5814   33 C    0 0 0

  32 C    1     1.0914     2.0624   15 H    0 0 0
  32 C    1     1.3914     2.6293   35 C    0 0 0
  32 C    1     1.4021     2.6496   31 C   -1-1 1
  32 C    1     2.1668     4.0947   18 H    0 0 0
  32 C    1     2.4179     4.5692   34 C   -1-1 1
  32 C    1     2.4251     4.5827   36 C   -1-1 1

  33 C    1     1.0913     2.0623   16 H    0 0 0
  33 C    1     1.3914     2.6294   34 C    0 0 0
  33 C    1     1.4025     2.6504   36 C    0 0 0
  33 C    1     2.1679     4.0968   17 H    0 0 0
  33 C    1     2.4178     4.5690   35 C    1 1-1
  33 C    1     2.4244     4.5814   31 C    0 0 0

  34 C    1     1.0915     2.0626   17 H    0 0 0
  34 C    1     1.3914     2.6294   33 C    0 0 0
  34 C    1     1.4021     2.6497   31 C    0 0 0
  34 C    1     2.1667     4.0945   16 H    0 0 0
  34 C    1     2.4179     4.5692   32 C    1 1-1
  34 C    1     2.4253     4.5832   36 C    0 0 0

  35 C    1     1.0914     2.0624   18 H    0 0 0
  35 C    1     1.3914     2.6293   32 C    0 0 0
  35 C    1     1.4025     2.6503   36 C   -1-1 1
  35 C    1     2.1678     4.0966   15 H    0 0 0
  35 C    1     2.4178     4.5690   33 C   -1-1 1
  35 C    1     2.4245     4.5817   31 C   -1-1 1

  36 C    1     1.4025     2.6503   35 C    1 1-1
  36 C    1     1.4025     2.6504   33 C    0 0 0
  36 C    1     1.5516     2.9322    5 B    0 0 0
  36 C    1     2.1486     4.0602   18 H    1 1-1
  36 C    1     2.1487     4.0605   16 H    0 0 0
  36 C    1     2.4251     4.5827   32 C    1 1-1

  37 O    1     1.3791     2.6061    1 B    1 0 0
  37 O    1     1.3791     2.6061    3 B    0 0 0
  37 O    1     2.3880     4.5126   38 O    1 0 0
  37 O    1     2.3882     4.5130   39 O    1 1-1
  37 O    1     2.5383     4.7966   31 C    0 0 0
  37 O    1     2.5384     4.7968   25 C    0 0 0

  38 O    1     1.3793     2.6065    1 B    0 0 0
  38 O    1     1.3793     2.6065    2 B    0 0 0
  38 O    1     2.3880     4.5126   37 O   -1 0 0
  38 O    1     2.3882     4.5131   39 O    0 1-1
  38 O    1     2.5391     4.7981   19 C    0 0 0
  38 O    1     2.5395     4.7990   25 C   -1 0 0

  39 O    1     1.3793     2.6064    3 B   -1-1 1
  39 O    1     1.3793     2.6065    2 B    0-1 1
  39 O    1     2.3882     4.5130   37 O   -1-1 1
  39 O    1     2.3882     4.5131   38 O    0-1 1
  39 O    1     2.5390     4.7980   19 C    0-1 1
  39 O    1     2.5391     4.7982   31 C   -1-1 1

  40 O    1     1.3795     2.6068    6 B    0-1 1
  40 O    1     1.3795     2.6068    4 B    0-1 1
  40 O    1     2.3880     4.5126   42 O    1 0 0
  40 O    1     2.3884     4.5134   41 O    0-1 1
  40 O    1     2.5400     4.7998   24 C    0-1 1
  40 O    1     2.5403     4.8005   30 C    0 0 0

  41 O    1     1.3795     2.6069    5 B    0 0 0
  41 O    1     1.3795     2.6070    4 B    0 0 0
  41 O    1     2.3881     4.5128   42 O    1 1-1
  41 O    1     2.3884     4.5134   40 O    0 1-1
  41 O    1     2.5404     4.8006   24 C    0 0 0
  41 O    1     2.5405     4.8008   36 C    0 0 0

  42 O    1     1.3796     2.6071    6 B   -1-1 1
  42 O    1     1.3797     2.6072    5 B   -1-1 1
  42 O    1     2.3880     4.5126   40 O   -1 0 0
  42 O    1     2.3881     4.5128   41 O   -1-1 1
  42 O    1     2.5409     4.8016   36 C   -1-1 1
  42 O    1     2.5410     4.8019   30 C   -1 0 0


 SYMMETRY ALLOWED INTERNAL DEGREE(S) OF FREEDOM: 123
 TTTTTTTTTTTTTTTTTTTTTTTTTTTTTT SYMM        TELAPSE        0.32 TCPU        0.32
 TTTTTTTTTTTTTTTTTTTTTTTTTTTTTT INT_SCREEN  TELAPSE        0.35 TCPU        0.35

 DFT PARAMETERS

     ATOM       ELECTRONS   NET CHARGE   R(ANGSTROM)
   1   5  B       5.0000      0.0000     0.89000000
   7   1  H       1.0000      0.0000     1.11000000
  19   6  C       6.0000      0.0000     0.77000000
  37   8  O       8.0000      0.0000     0.74000000

 SIZE OF GRID=    1273473
 TTTTTTTTTTTTTTTTTTTTTTTTTTTTTT MAKE_GRID2  TELAPSE       11.03 TCPU       11.02
 BECKE WEIGHT FUNCTION
 RADSAFE =     2.00
 TOLERANCES - DENSITY:10**- 6; POTENTIAL:10**- 9; GRID WGT:10**-14

 RADIAL INTEGRATION  - INTERVALS (POINTS,UPPER LIMIT):            1( 75,  4.0*R)

 ANGULAR INTEGRATION - INTERVALS (ACCURACY LEVEL [N. POINTS] UPPER LIMIT):
  1(  4[  86]   0.2)  2(  8[ 194]   0.5)  3( 12[ 350]   0.9)  4( 16[ 974]   3.5)
  5( 12[ 350]9999.0)
 TTTTTTTTTTTTTTTTTTTTTTTTTTTTTT INT_CALC    TELAPSE       11.13 TCPU       11.12
 EEEEEEEEEE INT_CALC TERMINATION  DATE 19 02 2026 TIME 18:38:28.7

 *******************************************************************************
 cof-1_z36_L020_incl                                                             
 CRYSTAL - SCF - TYPE OF CALCULATION :  RESTRICTED CLOSED SHELL
 *******************************************************************************

 CAPPA:IS1  2;IS2  2;IS3  8; K PTS MONK NET  20; SYMMOPS:K SPACE   2;G SPACE   1

 TTTTTTTTTTTTTTTTTTTTTTTTTTTTTT SDIK        TELAPSE       11.80 TCPU       17.53

 AAAAAAAAAAAAAAAAAAAAAAAAAAAAAAAAAAAAAAAAAAAAAAAAAAAAAAAAAAAAAAAAAAAAAAAAAAAAAAA
         ATOMIC WAVEFUNCTION(S)


 NUCLEAR CHARGE  5.0  SYMMETRY SPECIES            S    P
 N. ELECTRONS    5.0  NUMBER OF PRIMITIVE GTOS    8    4
                      NUMBER OF CONTRACTED GTOS   4    2
                      NUMBER OF CLOSED SHELLS     2    0
                      OPEN SHELL OCCUPATION       0    1

  ZNUC  SCFIT    TOTAL HF ENERGY   KINETIC ENERGY   VIRIAL THEOREM ACCURACY
   5.0    11    -2.451164084E+01  2.462155050E+01 -1.995536038E+00  1.5E-06

 NUCLEAR CHARGE  1.0  SYMMETRY SPECIES            S
 N. ELECTRONS    1.0  NUMBER OF PRIMITIVE GTOS    4
                      NUMBER OF CONTRACTED GTOS   2
                      NUMBER OF CLOSED SHELLS     0
                      OPEN SHELL OCCUPATION       1

  ZNUC  SCFIT    TOTAL HF ENERGY   KINETIC ENERGY   VIRIAL THEOREM ACCURACY
   1.0     1    -4.977266687E-01  5.190767460E-01 -1.958869132E+00  0.0E+00

 NUCLEAR CHARGE  6.0  SYMMETRY SPECIES            S    P
 N. ELECTRONS    6.0  NUMBER OF PRIMITIVE GTOS    8    4
                      NUMBER OF CONTRACTED GTOS   4    2
                      NUMBER OF CLOSED SHELLS     2    0
                      OPEN SHELL OCCUPATION       0    2

  ZNUC  SCFIT    TOTAL HF ENERGY   KINETIC ENERGY   VIRIAL THEOREM ACCURACY
   6.0     9    -3.766704647E+01  3.775180683E+01 -1.997754800E+00  1.1E-06

 NUCLEAR CHARGE  8.0  SYMMETRY SPECIES            S    P
 N. ELECTRONS    8.0  NUMBER OF PRIMITIVE GTOS    8    4
                      NUMBER OF CONTRACTED GTOS   4    2
                      NUMBER OF CLOSED SHELLS     2    0
                      OPEN SHELL OCCUPATION       0    4

  ZNUC  SCFIT    TOTAL HF ENERGY   KINETIC ENERGY   VIRIAL THEOREM ACCURACY
   8.0    12    -7.477373220E+01  7.477365593E+01 -2.000001020E+00  3.8E-06

 AAAAAAAAAAAAAAAAAAAAAAAAAAAAAAAAAAAAAAAAAAAAAAAAAAAAAAAAAAAAAAAAAAAAAAAAAAAAAAA

 CHARGE NORMALIZATION FACTOR   1.00000000
 TOTAL ATOMIC CHARGES:
   5.0000000   5.0000000   5.0000000   5.0000000   5.0000000   5.0000000
   1.0000000   1.0000000   1.0000000   1.0000000   1.0000000   1.0000000
   1.0000000   1.0000000   1.0000000   1.0000000   1.0000000   1.0000000
   6.0000000   6.0000000   6.0000000   6.0000000   6.0000000   6.0000000
   6.0000000   6.0000000   6.0000000   6.0000000   6.0000000   6.0000000
   6.0000000   6.0000000   6.0000000   6.0000000   6.0000000   6.0000000
   8.0000000   8.0000000   8.0000000   8.0000000   8.0000000   8.0000000
 TTTTTTTTTTTTTTTTTTTTTTTTTTTTTT MOQGAD      TELAPSE       11.86 TCPU       18.67
 TTTTTTTTTTTTTTTTTTTTTTTTTTTTTT SHELLXN     TELAPSE       21.67 TCPU      320.71
 TTTTTTTTTTTTTTTTTTTTTTTTTTTTTT MONMO3      TELAPSE       21.84 TCPU      326.07
 NUMERICALLY INTEGRATED DENSITY    197.9999981015
 TTTTTTTTTTTTTTTTTTTTTTTTTTTTTT NUMDFT      TELAPSE       22.45 TCPU      345.57
 CYC   0 ETOT(AU) -1.295969848413E+03 DETOT -1.30E+03 tst  0.00E+00 PX  1.00E+00
 TTTTTTTTTTTTTTTTTTTTTTTTTTTTTT DIIS        TELAPSE       22.48 TCPU      346.69
 TTTTTTTTTTTTTTTTTTTTTTTTTTTTTT FDIK        TELAPSE       22.95 TCPU      361.56
 INSULATING STATE
 TOP OF VALENCE BANDS -    BAND     99; K    1; EIG -3.0642232E-01 AU
 BOTTOM OF VIRTUAL BANDS - BAND    100; K    1; EIG -1.5931015E-01 AU
 DIRECT ENERGY BAND GAP:   4.0031 eV
 TTTTTTTTTTTTTTTTTTTTTTTTTTTTTT PDIG        TELAPSE       23.24 TCPU      367.71
 CHARGE NORMALIZATION FACTOR   1.00000000
 TOTAL ATOMIC CHARGES:
   4.1409464   4.1472108   4.1477029   4.1472464   4.1470116   4.1405481
   0.7859133   0.7860294   0.7853639   0.7854175   0.7859577   0.7861410
   0.7859583   0.7861128   0.7853318   0.7854707   0.7858648   0.7860254
   6.0481345   6.2686724   6.2687974   6.2665814   6.2664448   6.0474597
   6.0476741   6.2667231   6.2667352   6.2665937   6.2667384   6.0464440
   6.0485233   6.2662901   6.2668144   6.2682658   6.2690364   6.0469977
   8.7018922   8.7021186   8.6986315   8.7024439   8.6990776   8.7026567
 TTTTTTTTTTTTTTTTTTTTTTTTTTTTTT MOQGAD      TELAPSE       23.29 TCPU      367.77
 TTTTTTTTTTTTTTTTTTTTTTTTTTTTTT SHELLXN     TELAPSE       33.11 TCPU      680.76
 TTTTTTTTTTTTTTTTTTTTTTTTTTTTTT MONMO3      TELAPSE       33.27 TCPU      686.10
 NUMERICALLY INTEGRATED DENSITY    197.9999866648
 TTTTTTTTTTTTTTTTTTTTTTTTTTTTTT NUMDFT      TELAPSE       33.89 TCPU      705.88
 CYC   1 ETOT(AU) -1.288823354316E+03 DETOT  7.15E+00 tst  0.00E+00 PX  1.00E+00
 TTTTTTTTTTTTTTTTTTTTTTTTTTTTTT DIIS        TELAPSE       33.94 TCPU      707.25
 DIIS TEST: 0.10917E+01 AT SCF   CYCLE   1 - MIX   30 %
 TTTTTTTTTTTTTTTTTTTTTTTTTTTTTT FDIK        TELAPSE       34.41 TCPU      722.39
 INSULATING STATE
 TOP OF VALENCE BANDS -    BAND     99; K    1; EIG -2.1520988E-01 AU
 BOTTOM OF VIRTUAL BANDS - BAND    100; K    1; EIG -8.1607600E-02 AU
 DIRECT ENERGY BAND GAP:   3.6355 eV
 TTTTTTTTTTTTTTTTTTTTTTTTTTTTTT PDIG        TELAPSE       34.71 TCPU      728.55
 CHARGE NORMALIZATION FACTOR   1.00000000
 TOTAL ATOMIC CHARGES:
   4.6842032   4.6917304   4.6906779   4.6908759   4.6913987   4.6825955
   0.9143638   0.9145583   0.9184541   0.9184985   0.9127114   0.9125625
   0.9126156   0.9125195   0.9183962   0.9184806   0.9142413   0.9143061
   5.8665068   6.1164596   6.1168744   6.1434705   6.1456299   5.8689320
   5.8741449   6.1321518   6.1342646   6.1334443   6.1333547   5.8772059
   5.8661357   6.1435611   6.1458519   6.1167221   6.1169865   5.8694263
   8.3428991   8.3431908   8.3569727   8.3425361   8.3574720   8.3426168
 TTTTTTTTTTTTTTTTTTTTTTTTTTTTTT MOQGAD      TELAPSE       34.76 TCPU      728.60
 TTTTTTTTTTTTTTTTTTTTTTTTTTTTTT SHELLXN     TELAPSE       44.59 TCPU     1041.68
 TTTTTTTTTTTTTTTTTTTTTTTTTTTTTT MONMO3      TELAPSE       44.75 TCPU     1047.02
 NUMERICALLY INTEGRATED DENSITY    197.9999854186
 TTTTTTTTTTTTTTTTTTTTTTTTTTTTTT NUMDFT      TELAPSE       45.37 TCPU     1066.82
 CYC   2 ETOT(AU) -1.289016854339E+03 DETOT -1.94E-01 tst  4.00E-03 PX  1.58E-01
 TTTTTTTTTTTTTTTTTTTTTTTTTTTTTT DIIS        TELAPSE       45.42 TCPU     1068.38
 DIIS TEST: 0.46235E+00 AT SCF   CYCLE   2 - DIIS ACTIVE - HISTORY:     2 CYCLES
 TTTTTTTTTTTTTTTTTTTTTTTTTTTTTT FDIK        TELAPSE       45.89 TCPU     1083.40
 INSULATING STATE
 TOP OF VALENCE BANDS -    BAND     99; K    1; EIG -2.2809699E-01 AU
 BOTTOM OF VIRTUAL BANDS - BAND    100; K    1; EIG -7.7328523E-02 AU
 DIRECT ENERGY BAND GAP:   4.1026 eV
 TTTTTTTTTTTTTTTTTTTTTTTTTTTTTT PDIG        TELAPSE       46.19 TCPU     1089.55
 CHARGE NORMALIZATION FACTOR   1.00000000
 TOTAL ATOMIC CHARGES:
   4.4778520   4.4823581   4.4819714   4.4813126   4.4814222   4.4764278
   0.8892330   0.8894587   0.8923745   0.8924350   0.8889413   0.8892480
   0.8890953   0.8890428   0.8923006   0.8924848   0.8891485   0.8893059
   5.8921428   6.1644913   6.1647030   6.1627296   6.1613752   5.8912131
   5.9014059   6.1608706   6.1601889   6.1606354   6.1604487   5.9011938
   5.8928810   6.1628902   6.1613729   6.1644411   6.1648121   5.8906817
   8.5210612   8.5213308   8.5158143   8.5215577   8.5155265   8.5218197
 TTTTTTTTTTTTTTTTTTTTTTTTTTTTTT MOQGAD      TELAPSE       46.24 TCPU     1089.61
 TTTTTTTTTTTTTTTTTTTTTTTTTTTTTT SHELLXN     TELAPSE       56.05 TCPU     1402.62
 TTTTTTTTTTTTTTTTTTTTTTTTTTTTTT MONMO3      TELAPSE       56.22 TCPU     1407.96
 NUMERICALLY INTEGRATED DENSITY    197.9999848603
 TTTTTTTTTTTTTTTTTTTTTTTTTTTTTT NUMDFT      TELAPSE       56.84 TCPU     1427.75
 CYC   3 ETOT(AU) -1.289113759767E+03 DETOT -9.69E-02 tst  6.91E-04 PX  6.29E-02
 TTTTTTTTTTTTTTTTTTTTTTTTTTTTTT DIIS        TELAPSE       56.90 TCPU     1429.54
 DIIS TEST: 0.11601E-01 AT SCF   CYCLE   3 - DIIS ACTIVE - HISTORY:     3 CYCLES
 TTTTTTTTTTTTTTTTTTTTTTTTTTTTTT FDIK        TELAPSE       57.38 TCPU     1444.85
 INSULATING STATE
 TOP OF VALENCE BANDS -    BAND     99; K    1; EIG -2.3990446E-01 AU
 BOTTOM OF VIRTUAL BANDS - BAND    100; K    1; EIG -8.6596577E-02 AU
 DIRECT ENERGY BAND GAP:   4.1717 eV
 TTTTTTTTTTTTTTTTTTTTTTTTTTTTTT PDIG        TELAPSE       57.67 TCPU     1451.00
 CHARGE NORMALIZATION FACTOR   1.00000000
 TOTAL ATOMIC CHARGES:
   4.4856604   4.4873181   4.4866409   4.4868992   4.4872116   4.4849137
   0.8733664   0.8736870   0.8752457   0.8751185   0.8711984   0.8711074
   0.8711125   0.8711091   0.8752640   0.8750756   0.8733222   0.8734633
   5.9413086   6.1558290   6.1558061   6.1739226   6.1773875   5.9449615
   5.9497296   6.1653304   6.1675268   6.1664901   6.1665132   5.9526892
   5.9409445   6.1736624   6.1778639   6.1557991   6.1560218   5.9454226
   8.4853522   8.4855326   8.4965067   8.4850762   8.4975063   8.4851030
 TTTTTTTTTTTTTTTTTTTTTTTTTTTTTT MOQGAD      TELAPSE       57.72 TCPU     1451.05
 TTTTTTTTTTTTTTTTTTTTTTTTTTTTTT SHELLXN     TELAPSE       67.54 TCPU     1764.10
 TTTTTTTTTTTTTTTTTTTTTTTTTTTTTT MONMO3      TELAPSE       67.70 TCPU     1769.43
 NUMERICALLY INTEGRATED DENSITY    197.9999850714
 TTTTTTTTTTTTTTTTTTTTTTTTTTTTTT NUMDFT      TELAPSE       68.32 TCPU     1789.22
 CYC   4 ETOT(AU) -1.289116114351E+03 DETOT -2.35E-03 tst  3.17E-05 PX  1.20E-02
 TTTTTTTTTTTTTTTTTTTTTTTTTTTTTT DIIS        TELAPSE       68.38 TCPU     1791.06
 DIIS TEST: 0.40801E-02 AT SCF   CYCLE   4 - DIIS ACTIVE - HISTORY:     4 CYCLES
 TTTTTTTTTTTTTTTTTTTTTTTTTTTTTT FDIK        TELAPSE       68.86 TCPU     1806.25
 INSULATING STATE
 TOP OF VALENCE BANDS -    BAND     99; K    1; EIG -2.3754452E-01 AU
 BOTTOM OF VIRTUAL BANDS - BAND    100; K    1; EIG -8.5723698E-02 AU
 DIRECT ENERGY BAND GAP:   4.1313 eV
 TTTTTTTTTTTTTTTTTTTTTTTTTTTTTT PDIG        TELAPSE       69.15 TCPU     1812.40
 CHARGE NORMALIZATION FACTOR   1.00000000
 TOTAL ATOMIC CHARGES:
   4.4856198   4.4902630   4.4896692   4.4891522   4.4893722   4.4840207
   0.8760355   0.8762259   0.8787396   0.8788844   0.8749387   0.8751732
   0.8750218   0.8750098   0.8786654   0.8789315   0.8759318   0.8760570
   5.9233742   6.1626199   6.1628212   6.1732749   6.1715357   5.9210842
   5.9300156   6.1673176   6.1669159   6.1673352   6.1670274   5.9289709
   5.9238347   6.1734764   6.1715199   6.1625954   6.1630097   5.9207824
   8.4985458   8.4988272   8.4999404   8.4988428   8.4995503   8.4990705
 TTTTTTTTTTTTTTTTTTTTTTTTTTTTTT MOQGAD      TELAPSE       69.20 TCPU     1812.45
 TTTTTTTTTTTTTTTTTTTTTTTTTTTTTT SHELLXN     TELAPSE       79.02 TCPU     2125.55
 TTTTTTTTTTTTTTTTTTTTTTTTTTTTTT MONMO3      TELAPSE       79.19 TCPU     2130.88
 NUMERICALLY INTEGRATED DENSITY    197.9999850615
 TTTTTTTTTTTTTTTTTTTTTTTTTTTTTT NUMDFT      TELAPSE       79.81 TCPU     2150.66
 CYC   5 ETOT(AU) -1.289117046294E+03 DETOT -9.32E-04 tst  5.99E-06 PX  7.03E-03
 TTTTTTTTTTTTTTTTTTTTTTTTTTTTTT DIIS        TELAPSE       79.88 TCPU     2152.80
 DIIS TEST: 0.11565E-03 AT SCF   CYCLE   5 - DIIS ACTIVE - HISTORY:     5 CYCLES
 TTTTTTTTTTTTTTTTTTTTTTTTTTTTTT FDIK        TELAPSE       80.35 TCPU     2168.03
 INSULATING STATE
 TOP OF VALENCE BANDS -    BAND     99; K    1; EIG -2.3730422E-01 AU
 BOTTOM OF VIRTUAL BANDS - BAND    100; K    1; EIG -8.5177793E-02 AU
 DIRECT ENERGY BAND GAP:   4.1396 eV
 TTTTTTTTTTTTTTTTTTTTTTTTTTTTTT PDIG        TELAPSE       80.65 TCPU     2174.18
 CHARGE NORMALIZATION FACTOR   1.00000000
 TOTAL ATOMIC CHARGES:
   4.4857200   4.4889668   4.4883679   4.4886978   4.4889633   4.4850956
   0.8770641   0.8773839   0.8798870   0.8796873   0.8760179   0.8759570
   0.8759789   0.8759208   0.8798965   0.8796518   0.8770024   0.8771783
   5.9189523   6.1612909   6.1615849   6.1701816   6.1747350   5.9249738
   5.9281009   6.1651746   6.1674955   6.1661191   6.1666502   5.9326328
   5.9189387   6.1699264   6.1751886   6.1613289   6.1616928   5.9251324
   8.4969211   8.4970744   8.5018023   8.4968057   8.5030097   8.4968498
 TTTTTTTTTTTTTTTTTTTTTTTTTTTTTT MOQGAD      TELAPSE       80.70 TCPU     2174.24
 TTTTTTTTTTTTTTTTTTTTTTTTTTTTTT SHELLXN     TELAPSE       90.52 TCPU     2487.20
 TTTTTTTTTTTTTTTTTTTTTTTTTTTTTT MONMO3      TELAPSE       90.69 TCPU     2492.54
 NUMERICALLY INTEGRATED DENSITY    197.9999850439
 TTTTTTTTTTTTTTTTTTTTTTTTTTTTTT NUMDFT      TELAPSE       91.30 TCPU     2512.34
 CYC   6 ETOT(AU) -1.289117049959E+03 DETOT -3.66E-06 tst  1.22E-06 PX  1.30E-03
 TTTTTTTTTTTTTTTTTTTTTTTTTTTTTT DIIS        TELAPSE       91.37 TCPU     2514.53
 DIIS TEST: 0.10747E-03 AT SCF   CYCLE   6 - DIIS ACTIVE - HISTORY:     6 CYCLES
 TTTTTTTTTTTTTTTTTTTTTTTTTTTTTT FDIK        TELAPSE       91.85 TCPU     2529.69
 INSULATING STATE
 TOP OF VALENCE BANDS -    BAND     99; K    1; EIG -2.3732260E-01 AU
 BOTTOM OF VIRTUAL BANDS - BAND    100; K    1; EIG -8.5205379E-02 AU
 DIRECT ENERGY BAND GAP:   4.1393 eV
 TTTTTTTTTTTTTTTTTTTTTTTTTTTTTT PDIG        TELAPSE       92.14 TCPU     2535.84
 CHARGE NORMALIZATION FACTOR   1.00000000
 TOTAL ATOMIC CHARGES:
   4.4858765   4.4895272   4.4889390   4.4886200   4.4888586   4.4845594
   0.8770838   0.8773430   0.8797186   0.8797707   0.8758935   0.8760308
   0.8759230   0.8759253   0.8796816   0.8797802   0.8770057   0.8771514
   5.9226972   6.1614061   6.1614108   6.1721933   6.1720610   5.9222704
   5.9304517   6.1660625   6.1664153   6.1664681   6.1661191   5.9306159
   5.9228803   6.1721950   6.1722540   6.1613602   6.1616125   5.9222334
   8.4971653   8.4974098   8.5010978   8.4972933   8.5011835   8.4974555
 TTTTTTTTTTTTTTTTTTTTTTTTTTTTTT MOQGAD      TELAPSE       92.19 TCPU     2535.89
 TTTTTTTTTTTTTTTTTTTTTTTTTTTTTT SHELLXN     TELAPSE      102.00 TCPU     2848.87
 TTTTTTTTTTTTTTTTTTTTTTTTTTTTTT MONMO3      TELAPSE      102.17 TCPU     2854.20
 NUMERICALLY INTEGRATED DENSITY    197.9999850467
 TTTTTTTTTTTTTTTTTTTTTTTTTTTTTT NUMDFT      TELAPSE      102.79 TCPU     2874.00
 CYC   7 ETOT(AU) -1.289117076283E+03 DETOT -2.63E-05 tst  6.96E-07 PX  9.46E-04
 TTTTTTTTTTTTTTTTTTTTTTTTTTTTTT DIIS        TELAPSE      102.87 TCPU     2876.53
 DIIS TEST: 0.46384E-05 AT SCF   CYCLE   7 - DIIS ACTIVE - HISTORY:     7 CYCLES
 TTTTTTTTTTTTTTTTTTTTTTTTTTTTTT FDIK        TELAPSE      103.35 TCPU     2891.80
 INSULATING STATE
 TOP OF VALENCE BANDS -    BAND     99; K    1; EIG -2.3734109E-01 AU
 BOTTOM OF VIRTUAL BANDS - BAND    100; K    1; EIG -8.5253349E-02 AU
 DIRECT ENERGY BAND GAP:   4.1385 eV
 TTTTTTTTTTTTTTTTTTTTTTTTTTTTTT PDIG        TELAPSE      103.64 TCPU     2897.95
 CHARGE NORMALIZATION FACTOR   1.00000000
 TOTAL ATOMIC CHARGES:
   4.4857789   4.4896582   4.4890679   4.4888779   4.4891130   4.4845745
   0.8770294   0.8772706   0.8796813   0.8796866   0.8758516   0.8759695
   0.8758901   0.8758542   0.8796369   0.8797034   0.8769442   0.8770855
   5.9221223   6.1613190   6.1615711   6.1716661   6.1723539   5.9230406
   5.9298252   6.1659233   6.1665826   6.1662877   6.1663346   5.9309682
   5.9223893   6.1717054   6.1725072   6.1613104   6.1617383   5.9229223
   8.4974456   8.4976835   8.5005485   8.4975788   8.5007638   8.4977386
 TTTTTTTTTTTTTTTTTTTTTTTTTTTTTT MOQGAD      TELAPSE      103.69 TCPU     2898.00
 TTTTTTTTTTTTTTTTTTTTTTTTTTTTTT SHELLXN     TELAPSE      113.51 TCPU     3211.14
 TTTTTTTTTTTTTTTTTTTTTTTTTTTTTT MONMO3      TELAPSE      113.68 TCPU     3216.48
 NUMERICALLY INTEGRATED DENSITY    197.9999850437
 TTTTTTTTTTTTTTTTTTTTTTTTTTTTTT NUMDFT      TELAPSE      114.30 TCPU     3236.31
 CYC   8 ETOT(AU) -1.289117077120E+03 DETOT -8.37E-07 tst  2.38E-08 PX  1.96E-04
 TTTTTTTTTTTTTTTTTTTTTTTTTTTTTT DIIS        TELAPSE      114.38 TCPU     3238.85
 DIIS TEST: 0.54910E-06 AT SCF   CYCLE   8 - DIIS ACTIVE - HISTORY:     8 CYCLES
 TTTTTTTTTTTTTTTTTTTTTTTTTTTTTT FDIK        TELAPSE      114.85 TCPU     3254.04
 INSULATING STATE
 TOP OF VALENCE BANDS -    BAND     99; K    1; EIG -2.3734933E-01 AU
 BOTTOM OF VIRTUAL BANDS - BAND    100; K    1; EIG -8.5258720E-02 AU
 DIRECT ENERGY BAND GAP:   4.1386 eV
 TTTTTTTTTTTTTTTTTTTTTTTTTTTTTT PDIG        TELAPSE      115.16 TCPU     3260.21
 CHARGE NORMALIZATION FACTOR   1.00000000
 TOTAL ATOMIC CHARGES:
   4.4858645   4.4896515   4.4890565   4.4888457   4.4890870   4.4846435
   0.8770026   0.8772598   0.8796684   0.8796808   0.8758409   0.8759534
   0.8758671   0.8758505   0.8796336   0.8796882   0.8769218   0.8770707
   5.9221465   6.1613843   6.1615048   6.1717922   6.1723990   5.9228069
   5.9299219   6.1659544   6.1665980   6.1663994   6.1662664   5.9308181
   5.9223531   6.1717804   6.1726043   6.1613701   6.1616756   5.9227492
   8.4973470   8.4975768   8.5008333   8.4974545   8.5010742   8.4976029
 TTTTTTTTTTTTTTTTTTTTTTTTTTTTTT MOQGAD      TELAPSE      115.21 TCPU     3260.26
 TTTTTTTTTTTTTTTTTTTTTTTTTTTTTT SHELLXN     TELAPSE      125.03 TCPU     3573.41
 +++ ENERGIES IN A.U. +++
 ::: EXT EL-POLE                                  -1.4270091950986E+03
 ::: EXT EL-SPHEROPOLE                             1.5927026161300E+01
 ::: BIELET ZONE E-E                               2.3048480109097E+03
 ::: TOTAL E-E                                     8.9376584197239E+02
 ::: TOTAL E-N + N-E                              -3.6136811464543E+03
 ::: TOTAL N-N                                     2.8459654560684E+02
 ::: KINETIC ENERGY                                1.2799151796806E+03
 ::: PSEUDO TOTAL   ENERGY                        -1.1554035791945E+03
 ::: VIRIAL COEFFICIENT                            1.0511274345637E+00
 TTTTTTTTTTTTTTTTTTTTTTTTTTTTTT MONMO3      TELAPSE      125.19 TCPU     3578.75
 NUMERICALLY INTEGRATED DENSITY    197.9999850449
 EXCHANGE ENERGY: -0.126016498790E+03  CORRELATION ENERGY: -0.769699926425E+01
 TTTTTTTTTTTTTTTTTTTTTTTTTTTTTT NUMDFT      TELAPSE      125.82 TCPU     3598.54
 CYC   9 ETOT(AU) -1.289117077249E+03 DETOT -1.29E-07 tst  1.50E-09 PX  1.96E-04

 == SCF ENDED - CONVERGENCE ON ENERGY      E(AU) -1.2891170772489E+03 CYCLES   9


 ENERGY EXPRESSION=HARTREE+FOCK EXCH*0.00000+(HSESOL     EXCH)*1.00000+PBESOL     CORR


 TOTAL ENERGY(DFT)(AU)(  9) -1.2891170772489E+03 DE-1.3E-07 tester 1.5E-09
 TTTTTTTTTTTTTTTTTTTTTTTTTTTTTT EDFT        TELAPSE      125.82 TCPU     3598.55
 
 INFORMATION **** DFTD3 ENERGY **** CALCULATE DFTD3 ENERGY

           DFT-D V3(BJ)
 DF                                         hsesol3c  
 parameters
 s6       :    1.0000
 s8       :    0.0000
 a1       :    0.5196
 a2       :    4.9385
 k1 k3    :   16.0000   -4.0000
 Cutoff   :   50.2022
 CN-Cutoff:   21.1671
 ABC-Cutoff:   21.1671
 
 Edisp /kcal,au:   -28.8771 -0.04601856

 E6    /kcal :   -30.8257
 E8    /kcal :     0.0000
 E6(ABC) "   :   1.948586
 
 INFORMATION **** DFTD3 ENERGY **** NORMAL TERMINATION OF DFTD3 MODULE

 GCP ENERGY CALCULATION
  level        hsesol3c            basis:hsesol3c
  Nbf            474
  Atoms           42

  Parameters: 
  sigma     1.0000
  eta       1.4281
  alpha     0.2936
  beta      1.9467

  dmp_scal      4.0000
  dmp_exp       6.0000
 cutoffs: 
   distance [bohr] 60.0
   noise    [a.u.] 2.2E-16
 SR-damping   T
 ** gCP correction **
  Egcp:        0.0832968996 / (a.u.) ||      52.2696 / (kcal/mol)
 INFORMATION **** GCP **** NORMAL TERMINATION OF GCP MODULE

 *******************************************************************************

 DFT-D3-GCP DISPERSION AND COUNTERPOISE CORRECTION

 D3 DISPERSION ENERGY (AU)      -4.6018556019896E-02
 GCP ENERGY (AU)                 8.3296899649874E-02
 TOTAL ENERGY + DISP + GCP (AU) -1.2890797989053E+03

 *******************************************************************************

 EIGENVECTORS IN FORTRAN UNIT 10
 TTTTTTTTTTTTTTTTTTTTTTTTTTTTTT END         TELAPSE      127.17 TCPU     3605.88
 EEEEEEEEEE TERMINATION  DATE 19 02 2026 TIME 18:40:24.7
