 Default number of threads is:           32

         
 *******************************************************************************
 *                                                                             *
 *                               CRYSTAL23                                     *
 *                      public : 1.0.1 - October 2022                          *
 *                       HTTP://WWW.CRYSTAL.UNITO.IT                           *
 *                                                                             *
 *                              MAIN AUTHORS                                   *
 *                                                                             *
 *  R. DOVESI(1,11), V.R. SAUNDERS(2), C. ROETTI(1,11), R. ORLANDO(1,11),      *
 *  C.M. ZICOVICH-WILSON(1,3), F. PASCALE(4), B. CIVALLERI(1,11),              *
 *  K. DOLL(5), N.M. HARRISON(6), I.J. BUSH(7), Ph. D'ARCO(8),                 *
 *  M. LLUNELL(9), M. CAUSA'(10), Y. NOEL(8), L. MASCHIO(1,11), A. ERBA(1,11)  *
 *  M. RE'RAT(14), S. CASASSA(1,11), B.G. SEARLE(2), J.K. DESMARAIS(1)         *
 *                                                                             *
 *        CONTRIBUTIONS TO THE CODE HAVE ALSO BEEN GIVEN BY                    *
 *                                                                             *
 *  M. FERRABONE(1,11), M. DE LA PIERRE(1,11), M. FERRERO(1,11),               *
 *  J. BAIMA(1,11), E. ALBANESE(1,11), M.F. PEINTINGER(12), R. BAST(13),       *
 *  B. KIRTMAN(15), V. LACIVITA(1,11), R. DEMICHELIS(1,16)                     *
 *  G. BRANDEBURG(17), S. SALUSTRO(1,11), G. SANSONE(1,11)                     *
 *  M.T. RUGGIERO(18), L.E. DAGA(1), L. DONA'(1), A. COSSARD(1)                *
 *                                                                             *
 * (1) THEORETICAL CHEMISTRY GROUP - UNIVERSITA' DI TORINO - TORINO (ITALY)    *
 * (2) SCIENTIFIC COMPUTING DEPARTMENT - STFC DARESBURY (UK)                   *
 * (3) UNIVERSIDAD AUTONOMA DEL ESTADO DE MORELOS - CUERNAVACA (MEXICO)        *
 * (4) UNIVERSITE' DE LORRAINE - NANCY (FRANCE)                                *
 * (5) UNIVERSITAET STUTTGART- STUTTGART (GERMANY)                             *
 * (6) IMPERIAL COLLEGE - LONDON (UK)                                          *
 * (7) SCIENTIFIC COMPUTING DEPARTMENT - STFC RAL (UK)                         *
 * (8) UPMC - SORBONNE UNIVERSITES - PARIS (FRANCE)                            *
 * (9) UNIVERSIDAD DE BARCELONA - BARCELONA (SPAIN)                            *
 *(10) UNIVERSITA' DI NAPOLI "FEDERICO II" - NAPOLI (ITALY)                    *
 *(11) NIS - NANOSTRUCTURED INTERFACES AND SURFACES - TORINO (ITALY)           *
 *(12) MPI FUER CHEMISCHE ENERGIEKONVERSION - MUELHEIM AN DER RUHR (GERMANY)   *
 *(13) UNIVERSITY OF TROMSO - TROMSO (NORWAY)                                  *
 *(14) UNIVERSITE' DE PAU ET DES PAYS DE L'ADOUR - PAU (FRANCE)                *
 *(15) UNIVERSITY OF CALIFORNIA SANTA BARBARA - SANTA BARBARA (USA)            *
 *(16) CURTIN UNIVERSITY - PERTH (AUSTRALIA)                                   *
 *(17) UNIVERSITY COLLEGE LONDON - LONDON (UK)                                 *
 *(18) UNIVERSITY OF VERMONT - BURLINGTON (USA)                                *
 *                                                                             *
 *******************************************************************************
 EEEEEEEEEE STARTING  DATE 02 12 2025 TIME 07:55:30.1
 COF-5_z31_inc_L040                                                              

 CRYSTAL CALCULATION
 (INPUT ACCORDING TO THE INTERNATIONAL TABLES FOR X-RAY CRYSTALLOGRAPHY)
 CRYSTAL FAMILY                       :  TRICLINIC   
 CRYSTAL CLASS  (GROTH - 1921)        :  TRICLINIC PEDIAL                     

 SPACE GROUP (NONCENTROSYMMETRIC)     :  P 1             

 LATTICE PARAMETERS  (ANGSTROMS AND DEGREES) - CONVENTIONAL CELL
        A           B           C        ALPHA        BETA       GAMMA
    15.02070    15.04439     5.06063    46.83375    89.99956   120.05310


 NUMBER OF IRREDUCIBLE ATOMS IN THE CONVENTIONAL CELL:   42

 INPUT COORDINATES

 ATOM AT. N.              COORDINATES
   1   5     5.384805200000E-01  7.429294000000E-02  5.006317300000E-01
   2   5     6.972583800000E-01  2.333165900000E-01  5.006417200000E-01
   3   5     5.382469800000E-01  2.334432200000E-01  4.992118100000E-01
   4   5     1.509152700000E-01  4.591040200000E-01  5.054265200000E-01
   5   5     3.088668100000E-01  4.573610700000E-01  5.094702400000E-01
   6   5     3.100584900000E-01  6.185320000000E-01  5.035048600000E-01
   7   1     8.266848900000E-01  1.545690300000E-01  5.045299600000E-01
   8   1     2.291854000000E-02  5.400205300000E-01  4.929401300000E-01
   9   1     8.285575600000E-01  4.427635300000E-01  4.928018400000E-01
  10   1     2.119074000000E-02  2.519153000000E-01  5.040985500000E-01
  11   1     5.167113900000E-01  7.483445700000E-01  5.042206100000E-01
  12   1     3.320583300000E-01 -5.328481000000E-02  4.945722800000E-01
  13   1     2.335166900000E-01  7.526019300000E-01  4.958790700000E-01
  14   1     6.150997400000E-01 -5.739368000000E-02  5.023593600000E-01
  15   1     5.173017700000E-01  5.376599100000E-01  4.977764700000E-01
  16   1     3.287153200000E-01  1.535024800000E-01  5.060592400000E-01
  17   1     2.314074900000E-01  2.495360200000E-01  5.056943800000E-01
  18   1     6.149493600000E-01  4.415139500000E-01  4.987098700000E-01
  19   6     8.165894000000E-01  2.928224700000E-01  5.003917400000E-01
  20   6     8.708415100000E-01  2.391035100000E-01  5.021577500000E-01
  21   6    -2.115645000000E-02  4.554034800000E-01  4.957651300000E-01
  22   6     8.718131200000E-01  4.017750100000E-01  4.961022700000E-01
  23   6    -2.202867000000E-02  2.928661900000E-01  5.015140700000E-01
  24   6     3.280900000000E-02  4.012089000000E-01  4.993309000000E-01
  25   6     3.692729700000E-01  7.384093000000E-01  5.018731300000E-01
  26   6     4.770861200000E-01  7.927714900000E-01  5.022632900000E-01
  27   6     3.714395700000E-01 -9.806272000000E-02  4.969871600000E-01
  28   6     3.171489100000E-01  7.946384400000E-01  4.981057800000E-01
  29   6     5.313908800000E-01 -9.992046000000E-02  5.008259500000E-01
  30   6     4.789616500000E-01 -4.442831000000E-02  4.992017700000E-01
  31   6     3.691663900000E-01  3.999395000000E-01  4.999729500000E-01
  32   6     4.771005500000E-01  4.533638900000E-01  4.994214900000E-01
  33   6     3.695660300000E-01  2.379449900000E-01  5.039448200000E-01
  34   6     3.157582400000E-01  2.911773200000E-01  5.033369100000E-01
  35   6     5.307696100000E-01  4.000111300000E-01  5.003598100000E-01
  36   6     4.778236700000E-01  2.919063700000E-01  5.016016000000E-01
  37   8     4.855225000000E-01  1.274247900000E-01  4.996016600000E-01
  38   8     6.442212700000E-01  1.268035700000E-01  5.025915700000E-01
  39   8     6.445260500000E-01  2.869356500000E-01  4.980720500000E-01
  40   8     2.041681000000E-01  5.657914700000E-01  5.027382400000E-01
  41   8     2.027746800000E-01  4.044298900000E-01  5.102256500000E-01
  42   8     3.625957800000E-01  5.647426000000E-01  5.052098600000E-01

 *******************************************************************************

 << INFORMATION >>: FROM NOW ON, ALL COORDINATES REFER TO THE PRIMITIVE CELL

 *******************************************************************************

 LATTICE PARAMETERS  (ANGSTROMS AND DEGREES) - PRIMITIVE CELL
       A          B          C        ALPHA      BETA     GAMMA        VOLUME
   15.02070   15.04439    5.06063    46.83375  89.99956 120.05310    606.397852

 COORDINATES OF THE EQUIVALENT ATOMS (FRACTIONAL UNITS)

 N. ATOM EQUIV AT. N.          X                  Y                  Z

   1   1   1    5 B    -4.61519480000E-01  7.42929400000E-02 -4.99368270000E-01

   2   2   1    5 B    -3.02741620000E-01  2.33316590000E-01 -4.99358280000E-01

   3   3   1    5 B    -4.61753020000E-01  2.33443220000E-01  4.99211810000E-01

   4   4   1    5 B     1.50915270000E-01  4.59104020000E-01 -4.94573480000E-01

   5   5   1    5 B     3.08866810000E-01  4.57361070000E-01 -4.90529760000E-01

   6   6   1    5 B     3.10058490000E-01 -3.81468000000E-01 -4.96495140000E-01

   7   7   1    1 H    -1.73315110000E-01  1.54569030000E-01 -4.95470040000E-01

   8   8   1    1 H     2.29185400000E-02 -4.59979470000E-01  4.92940130000E-01

   9   9   1    1 H    -1.71442440000E-01  4.42763530000E-01  4.92801840000E-01

  10  10   1    1 H     2.11907400000E-02  2.51915300000E-01 -4.95901450000E-01

  11  11   1    1 H    -4.83288610000E-01 -2.51655430000E-01 -4.95779390000E-01

  12  12   1    1 H     3.32058330000E-01 -5.32848100000E-02  4.94572280000E-01

  13  13   1    1 H     2.33516690000E-01 -2.47398070000E-01  4.95879070000E-01

  14  14   1    1 H    -3.84900260000E-01 -5.73936800000E-02 -4.97640640000E-01

  15  15   1    1 H    -4.82698230000E-01 -4.62340090000E-01  4.97776470000E-01

  16  16   1    1 H     3.28715320000E-01  1.53502480000E-01 -4.93940760000E-01

  17  17   1    1 H     2.31407490000E-01  2.49536020000E-01 -4.94305620000E-01

  18  18   1    1 H    -3.85050640000E-01  4.41513950000E-01  4.98709870000E-01

  19  19   1    6 C    -1.83410600000E-01  2.92822470000E-01 -4.99608260000E-01

  20  20   1    6 C    -1.29158490000E-01  2.39103510000E-01 -4.97842250000E-01

  21  21   1    6 C    -2.11564500000E-02  4.55403480000E-01  4.95765130000E-01

  22  22   1    6 C    -1.28186880000E-01  4.01775010000E-01  4.96102270000E-01

  23  23   1    6 C    -2.20286700000E-02  2.92866190000E-01 -4.98485930000E-01

  24  24   1    6 C     3.28090000000E-02  4.01208900000E-01  4.99330900000E-01

  25  25   1    6 C     3.69272970000E-01 -2.61590700000E-01 -4.98126870000E-01

  26  26   1    6 C     4.77086120000E-01 -2.07228510000E-01 -4.97736710000E-01

  27  27   1    6 C     3.71439570000E-01 -9.80627200000E-02  4.96987160000E-01

  28  28   1    6 C     3.17148910000E-01 -2.05361560000E-01  4.98105780000E-01

  29  29   1    6 C    -4.68609120000E-01 -9.99204600000E-02 -4.99174050000E-01

  30  30   1    6 C     4.78961650000E-01 -4.44283100000E-02  4.99201770000E-01

  31  31   1    6 C     3.69166390000E-01  3.99939500000E-01  4.99972950000E-01

  32  32   1    6 C     4.77100550000E-01  4.53363890000E-01  4.99421490000E-01

  33  33   1    6 C     3.69566030000E-01  2.37944990000E-01 -4.96055180000E-01

  34  34   1    6 C     3.15758240000E-01  2.91177320000E-01 -4.96663090000E-01

  35  35   1    6 C    -4.69230390000E-01  4.00011130000E-01 -4.99640190000E-01

  36  36   1    6 C     4.77823670000E-01  2.91906370000E-01 -4.98398400000E-01

  37  37   1    8 O     4.85522500000E-01  1.27424790000E-01  4.99601660000E-01

  38  38   1    8 O    -3.55778730000E-01  1.26803570000E-01 -4.97408430000E-01

  39  39   1    8 O    -3.55473950000E-01  2.86935650000E-01  4.98072050000E-01

  40  40   1    8 O     2.04168100000E-01 -4.34208530000E-01 -4.97261760000E-01

  41  41   1    8 O     2.02774680000E-01  4.04429890000E-01 -4.89774350000E-01

  42  42   1    8 O     3.62595780000E-01 -4.35257400000E-01 -4.94790140000E-01

 NUMBER OF SYMMETRY OPERATORS         :    1
 *******************************************************************************
 * GEOMETRY EDITING - INPUT COORDINATES ARE GIVEN IN ANGSTROM         
 *******************************************************************************

 GCALCO - MAX INDICES DIRECT LATTICE VECTOR     8    12    31
 NO.OF VECTORS CREATED 6999 STARS 3500 RMAX   190.39663 BOHR

 GEOMETRY FOR WAVE FUNCTION - DIMENSIONALITY OF THE SYSTEM    3
 (NON PERIODIC DIRECTION: LATTICE PARAMETER FORMALLY SET TO 500)
 *******************************************************************************
 LATTICE PARAMETERS (ANGSTROMS AND DEGREES) - BOHR = 0.5291772083 ANGSTROM
 PRIMITIVE CELL - CENTRING CODE 1/0 VOLUME=   606.397852 - DENSITY  1.068 g/cm^3
         A              B              C           ALPHA      BETA       GAMMA 
    15.02070100    15.04438700     5.06063200    46.833750  89.999563 120.053104
 *******************************************************************************
 ATOMS IN THE ASYMMETRIC UNIT   42 - ATOMS IN THE UNIT CELL:   42
     ATOM                 X/A                 Y/B                 Z/C    
 *******************************************************************************
      1 T   5 B    -4.615194800000E-01  7.429294000000E-02 -4.993682700000E-01
      2 T   5 B    -3.027416200000E-01  2.333165900000E-01 -4.993582800000E-01
      3 T   5 B    -4.617530200000E-01  2.334432200000E-01  4.992118100000E-01
      4 T   5 B     1.509152700000E-01  4.591040200000E-01 -4.945734800000E-01
      5 T   5 B     3.088668100000E-01  4.573610700000E-01 -4.905297600000E-01
      6 T   5 B     3.100584900000E-01 -3.814680000000E-01 -4.964951400000E-01
      7 T   1 H    -1.733151100000E-01  1.545690300000E-01 -4.954700400000E-01
      8 T   1 H     2.291854000000E-02 -4.599794700000E-01  4.929401300000E-01
      9 T   1 H    -1.714424400000E-01  4.427635300000E-01  4.928018400000E-01
     10 T   1 H     2.119074000000E-02  2.519153000000E-01 -4.959014500000E-01
     11 T   1 H    -4.832886100000E-01 -2.516554300000E-01 -4.957793900000E-01
     12 T   1 H     3.320583300000E-01 -5.328481000000E-02  4.945722800000E-01
     13 T   1 H     2.335166900000E-01 -2.473980700000E-01  4.958790700000E-01
     14 T   1 H    -3.849002600000E-01 -5.739368000000E-02 -4.976406400000E-01
     15 T   1 H    -4.826982300000E-01 -4.623400900000E-01  4.977764700000E-01
     16 T   1 H     3.287153200000E-01  1.535024800000E-01 -4.939407600000E-01
     17 T   1 H     2.314074900000E-01  2.495360200000E-01 -4.943056200000E-01
     18 T   1 H    -3.850506400000E-01  4.415139500000E-01  4.987098700000E-01
     19 T   6 C    -1.834106000000E-01  2.928224700000E-01 -4.996082600000E-01
     20 T   6 C    -1.291584900000E-01  2.391035100000E-01 -4.978422500000E-01
     21 T   6 C    -2.115645000000E-02  4.554034800000E-01  4.957651300000E-01
     22 T   6 C    -1.281868800000E-01  4.017750100000E-01  4.961022700000E-01
     23 T   6 C    -2.202867000000E-02  2.928661900000E-01 -4.984859300000E-01
     24 T   6 C     3.280900000000E-02  4.012089000000E-01  4.993309000000E-01
     25 T   6 C     3.692729700000E-01 -2.615907000000E-01 -4.981268700000E-01
     26 T   6 C     4.770861200000E-01 -2.072285100000E-01 -4.977367100000E-01
     27 T   6 C     3.714395700000E-01 -9.806272000000E-02  4.969871600000E-01
     28 T   6 C     3.171489100000E-01 -2.053615600000E-01  4.981057800000E-01
     29 T   6 C    -4.686091200000E-01 -9.992046000000E-02 -4.991740500000E-01
     30 T   6 C     4.789616500000E-01 -4.442831000000E-02  4.992017700000E-01
     31 T   6 C     3.691663900000E-01  3.999395000000E-01  4.999729500000E-01
     32 T   6 C     4.771005500000E-01  4.533638900000E-01  4.994214900000E-01
     33 T   6 C     3.695660300000E-01  2.379449900000E-01 -4.960551800000E-01
     34 T   6 C     3.157582400000E-01  2.911773200000E-01 -4.966630900000E-01
     35 T   6 C    -4.692303900000E-01  4.000111300000E-01 -4.996401900000E-01
     36 T   6 C     4.778236700000E-01  2.919063700000E-01 -4.983984000000E-01
     37 T   8 O     4.855225000000E-01  1.274247900000E-01  4.996016600000E-01
     38 T   8 O    -3.557787300000E-01  1.268035700000E-01 -4.974084300000E-01
     39 T   8 O    -3.554739500000E-01  2.869356500000E-01  4.980720500000E-01
     40 T   8 O     2.041681000000E-01 -4.342085300000E-01 -4.972617600000E-01
     41 T   8 O     2.027746800000E-01  4.044298900000E-01 -4.897743500000E-01
     42 T   8 O     3.625957800000E-01 -4.352574000000E-01 -4.947901400000E-01

 T = ATOM BELONGING TO THE ASYMMETRIC UNIT

 ****    1 SYMMOPS - TRANSLATORS IN FRACTIONAL UNITS
 **** MATRICES AND TRANSLATORS IN THE CRYSTALLOGRAPHIC REFERENCE FRAME
   V INV                    ROTATION MATRICES                   TRANSLATORS
   1   1  1.00  0.00  0.00  0.00  1.00  0.00  0.00  0.00  1.00  0.00  0.00  0.00

 DIRECT LATTICE VECTORS CARTESIAN COMPONENTS (ANGSTROM)
          X                    Y                    Z
   0.130013421718E+02  -0.752240388864E+01   0.000000000000E+00
   0.000000000000E+00   0.150443870000E+02   0.000000000000E+00
   0.200315078424E+01   0.346206736380E+01   0.310023753018E+01


 CARTESIAN COORDINATES - PRIMITIVE CELL
 *******************************************************************************
 *      ATOM          X(ANGSTROM)         Y(ANGSTROM)         Z(ANGSTROM)
 *******************************************************************************
    1     5 B    -7.000682620094E+00  2.860581081679E+00 -1.548160252034E+00
    2     5 B    -4.936337321456E+00  4.058637808990E+00 -1.548129280662E+00
    3     5 B    -3.000261698927E+00 -2.868511863728E+00  4.647912719049E+00
    4     5 B     9.713958098894E-01  4.059446232123E+00 -1.533295264127E+00
    5     5 B     3.033078008877E+00  2.859048970129E+00 -1.520758771622E+00
    6     5 B     1.033471108452E+00  1.792082604721E+00 -4.639490396758E+00
    7     1 H    -3.245830247842E+00  1.913791907734E+00 -1.536074813087E+00
    8     1 H     1.285405188610E+00 -5.385919736772E+00  1.528231491157E+00
    9     1 H     7.613253513068E-01 -1.925441296974E+00  4.628040289488E+00
   10     1 H    -7.178573168600E-01  1.913661733735E+00 -1.537412286560E+00
   11     1 H    -5.273370675980E+00  1.595136157666E+00  1.563203658612E+00
   12     1 H     5.307906819863E+00 -1.587271626081E+00  1.533291543842E+00
   13     1 H     4.029350937469E+00 -3.761792420413E+00  1.537342903244E+00
   14     1 H    -3.997918436311E+00  3.771124424445E+00  1.557433341509E+00
   15     1 H    -5.278603527683E+00 -1.601236525927E+00  1.543225293934E+00
   16     1 H     3.284302531662E+00 -1.873434871691E+00 -1.531333681837E+00
   17     1 H     2.018439268244E+00  3.020564979375E-01 -1.532464834502E+00
   18     1 H    -2.004033272662E+00 -3.169393099081E-01  4.646356585823E+00
   19     6 C    -3.385374646362E+00  4.055345720003E+00 -1.548904278039E+00
   20     6 C    -2.676486816395E+00  2.845184658879E+00 -1.543429227559E+00
   21     6 C    -1.285120720872E+00  5.264718468899E+00 -1.563247867999E+00
   22     6 C     1.330316946641E+00 -2.856047936171E+00  4.638272406440E+00
   23     6 C    -1.284944757871E+00  2.845908984878E+00 -1.545424788452E+00
   24     6 C    -5.763546649959E-01  4.055789259088E+00 -1.552193134021E+00
   25     6 C     1.800070223226E+00  3.144478704641E+00 -4.644549147343E+00
   26     6 C     3.202567426303E+00  3.152661230564E+00 -4.643339558668E+00
   27     6 C     5.824753165018E+00 -2.548808948852E+00  1.540778245449E+00
   28     6 C     5.121142482156E+00 -3.750785212768E+00  1.544246233155E+00
   29     6 C    -5.089317619424E+00  3.755718173523E+00  1.552679406277E+00
   30     6 C    -5.774221455897E+00  4.979334376644E+00  1.547644062486E+00
   31     6 C     3.798028977360E+00  1.508698596072E+00 -1.550202626515E+00
   32     6 C     5.200213266011E+00  1.498602257901E+00 -1.551912283503E+00
   33     6 C     3.811181088251E+00 -9.176648762332E-01 -1.537888886076E+00
   34     6 C     3.110389863561E+00  2.858422005626E-01 -1.539773551473E+00
   35     6 C     5.899862675553E+00  2.954708703480E-01 -1.549003268624E+00
   36     6 C     5.213981885619E+00 -9.283190700586E-01 -1.545153424661E+00
   37     8 O     5.310070827392E+00 -3.467681249684E+00 -1.551353713707E+00
   38     8 O    -5.621985092811E+00  2.861931790127E+00 -1.542084282513E+00
   39     8 O    -1.620774255297E+00 -2.867171060585E+00  4.644379192322E+00
   40     8 O    -3.447817400953E-01  1.792529852239E+00 -4.641867100853E+00
   41     8 O     1.655251125149E+00  2.863414945416E+00 -1.518416821189E+00
   42     8 O     1.719941764606E+00  5.935501648837E-01 -4.634204491769E+00

 *******************************************************************************
 STARTING BASIS SET HANDLING 
 *******************************************************************************

 Loading internal basis set: SOLDEF2MSVP         

 Please cite in your publication:
 L. Dona', J. G. Brandenburg and B. Civalleri, J. Chem. Phys., 151, 121101 (2019
 )                                                                              
                                                                                
                    

 *******************************************************************************
 LOCAL ATOMIC FUNCTIONS BASIS SET
 *******************************************************************************
   ATOM   X(AU)   Y(AU)   Z(AU)  N. TYPE  EXPONENT  S COEF   P COEF   D/F/G COEF
 *******************************************************************************
   1 B  -13.229   5.406  -2.926
                                  1 S  
                                         2.410E+03 1.755E-03 0.000E+00 0.000E+00
                                         3.619E+02 1.344E-02 0.000E+00 0.000E+00
                                         8.231E+01 6.637E-02 0.000E+00 0.000E+00
                                         2.311E+01 2.303E-01 0.000E+00 0.000E+00
                                         7.252E+00 5.150E-01 0.000E+00 0.000E+00
                                  2 S  
                                         2.367E+00 1.000E+00 0.000E+00 0.000E+00
                                  3 S  
                                         5.533E-01 1.000E+00 0.000E+00 0.000E+00
                                  4 S  
                                         1.716E-01 1.000E+00 0.000E+00 0.000E+00
                           5-     7 P  
                                         6.002E+00 0.000E+00-3.555E-02 0.000E+00
                                         1.240E+00 0.000E+00-1.983E-01 0.000E+00
                                         3.367E-01 0.000E+00-5.048E-01 0.000E+00
                           8-    10 P  
                                         1.256E-01 0.000E+00 1.000E+00 0.000E+00
                          11-    15 D  
                                         8.880E-01 0.000E+00 0.000E+00 1.000E+00
   2 B   -9.328   7.670  -2.926
   3 B   -5.670  -5.421   8.783
   4 B    1.836   7.671  -2.898
   5 B    5.732   5.403  -2.874
   6 B    1.953   3.387  -8.767
   7 H   -6.134   3.617  -2.903
                                 91 S  
                                         1.874E+01 1.968E-02 0.000E+00 0.000E+00
                                         2.826E+00 1.380E-01 0.000E+00 0.000E+00
                                         6.401E-01 4.783E-01 0.000E+00 0.000E+00
                                 92 S  
                                         1.756E-01 1.000E+00 0.000E+00 0.000E+00
   8 H    2.429 -10.178   2.888
   9 H    1.439  -3.639   8.746
  10 H   -1.357   3.616  -2.905
  11 H   -9.965   3.014   2.954
  12 H   10.030  -3.000   2.898
  13 H    7.614  -7.109   2.905
  14 H   -7.555   7.126   2.943
  15 H   -9.975  -3.026   2.916
  16 H    6.206  -3.540  -2.894
  17 H    3.814   0.571  -2.896
  18 H   -3.787  -0.599   8.780
  19 C   -6.397   7.663  -2.927
                                115 S  
                                         3.624E+03 1.634E-03 0.000E+00 0.000E+00
                                         5.440E+02 1.252E-02 0.000E+00 0.000E+00
                                         1.237E+02 6.211E-02 0.000E+00 0.000E+00
                                         3.476E+01 2.182E-01 0.000E+00 0.000E+00
                                         1.093E+01 4.980E-01 0.000E+00 0.000E+00
                                116 S  
                                         3.574E+00 1.000E+00 0.000E+00 0.000E+00
                                117 S  
                                         7.742E-01 1.000E+00 0.000E+00 0.000E+00
                                118 S  
                                         2.330E-01 1.000E+00 0.000E+00 0.000E+00
                         119-   121 P  
                                         9.443E+00 0.000E+00 3.790E-02 0.000E+00
                                         2.002E+00 0.000E+00 2.082E-01 0.000E+00
                                         5.463E-01 0.000E+00 5.047E-01 0.000E+00
                         122-   124 P  
                                         1.820E-01 0.000E+00 1.000E+00 0.000E+00
                         125-   129 D  
                                         8.880E-01 0.000E+00 0.000E+00 1.000E+00
  20 C   -5.058   5.377  -2.917
  21 C   -2.429   9.949  -2.954
  22 C    2.514  -5.397   8.765
  23 C   -2.428   5.378  -2.920
  24 C   -1.089   7.664  -2.933
  25 C    3.402   5.942  -8.777
  26 C    6.052   5.958  -8.775
  27 C   11.007  -4.817   2.912
  28 C    9.678  -7.088   2.918
  29 C   -9.617   7.097   2.934
  30 C  -10.912   9.410   2.925
  31 C    7.177   2.851  -2.929
  32 C    9.827   2.832  -2.933
  33 C    7.202  -1.734  -2.906
  34 C    5.878   0.540  -2.910
  35 C   11.149   0.558  -2.927
  36 C    9.853  -1.754  -2.920
  37 O   10.035  -6.553  -2.932
                                385 S  
                                         6.773E+03 1.727E-03 0.000E+00 0.000E+00
                                         1.017E+03 1.325E-02 0.000E+00 0.000E+00
                                         2.313E+02 6.603E-02 0.000E+00 0.000E+00
                                         6.501E+01 2.353E-01 0.000E+00 0.000E+00
                                         2.050E+01 5.498E-01 0.000E+00 0.000E+00
                                386 S  
                                         6.716E+00 1.000E+00 0.000E+00 0.000E+00
                                387 S  
                                         1.147E+00 1.000E+00 0.000E+00 0.000E+00
                                388 S  
                                         3.342E-01 1.000E+00 0.000E+00 0.000E+00
                         389-   391 P  
                                         1.769E+01 0.000E+00 4.359E-02 0.000E+00
                                         3.854E+00 0.000E+00 2.318E-01 0.000E+00
                                         1.047E+00 0.000E+00 5.146E-01 0.000E+00
                         392-   394 P  
                                         2.759E-01 0.000E+00 1.000E+00 0.000E+00
                         395-   399 D  
                                         8.000E-01 0.000E+00 0.000E+00 1.000E+00
  38 O  -10.624   5.408  -2.914
  39 O   -3.063  -5.418   8.777
  40 O   -0.652   3.387  -8.772
  41 O    3.128   5.411  -2.869
  42 O    3.250   1.122  -8.757

 *******************************************************************************
 FINISHED BASIS SET HANDLING 
 *******************************************************************************

 INFORMATION **** SET_MPP **** PCRYSTAL CALCULATION
 INFORMATION **** READM2 **** NEW DEFAULT: FOCK/KS MATRIX MIXING SET TO 30 %
 INFORMATION **** READM2 **** NEW DEFAULT: FULL DIRECT SCF MODE
 INFORMATION **** READM2 **** NEW DEFAULT: COULOMB BIPOLAR BUFFER SET TO 32 Mb
 INFORMATION **** READM2 **** NEW DEFAULT: EXCHANGE BIPOLAR BUFFER SET TO 32 Mb

 *******************************************************************************
 NEW DEFAULT: DFT INTEGRATION GRID INCREASED TO XLGRID
 NEW DEFAULT: DIIS ACCELERATOR ACTIVE
 USE KEYWORD NODIIS TO TURN IT OFF
 *******************************************************************************

 WARNING **** RDDFTP **** HSEsol-HJS ACTIVE
 RANGE SEPARATION - OMEGA:   0.110000000000000     
 WARNING **** RDDFTP **** HSEsol-3c has to be combined with sol-def2-mSVP basis set
 *******************************************************************************
 N. OF ATOMS PER CELL        42  COULOMB OVERLAP TOL         (T1) 10**   -6
 NUMBER OF SHELLS           234  COULOMB PENETRATION TOL     (T2) 10**   -6
 NUMBER OF AO               474  EXCHANGE OVERLAP TOL        (T3) 10**   -6
 N. OF ELECTRONS PER CELL   198  EXCHANGE PSEUDO OVP (F(G))  (T4) 10**   -6
 CORE ELECTRONS PER CELL     60  EXCHANGE PSEUDO OVP (P(G))  (T5) 10**  -12
 N. OF SYMMETRY OPERATORS     1  POLE ORDER IN MONO ZONE                  4
 *******************************************************************************
 TYPE OF CALCULATION :  RESTRICTED CLOSED SHELL
 KOHN-SHAM HAMILTONIAN

 (EXCHANGE)[CORRELATION] FUNCTIONAL:(HSEsol GGA)[PBEsol]

 RANGE-SEPARATED HYBRID FUNCTIONAL 
 OMEGA (SHORT-RANGE)[LONG-RANGE]:(    0.1100)[    0.0000]

 HYBRID EXCHANGE - PERCENTAGE OF FOCK EXCHANGE    25.0000

 CAPPA:IS1  2;IS2  2;IS3  8; K PTS MONK NET  20; SYMMOPS:K SPACE   2;G SPACE   1

 *******************************************************************************
 MAX NUMBER OF SCF CYCLES      50  CONVERGENCE ON DELTAP        10**-16
 WEIGHT OF F(I) IN F(I+1)      30% CONVERGENCE ON ENERGY        10**- 6
 SHRINK. FACT.(MONKH.)    2  2  8  NUMBER OF K POINTS IN THE IBZ     20
 SHRINKING FACTOR(GILAT NET)    8  NUMBER OF K POINTS(GILAT NET)   1028
 *******************************************************************************
 *** K POINTS COORDINATES (OBLIQUE COORDINATES IN UNITS OF IS =  2)
   1-R(  0  0  0)   2-R(  1  0  0)   3-R(  0  1  0)   4-R(  1  1  0)
   5-C(  0  0  1)   6-C(  1  0  1)   7-C(  0  1  1)   8-C(  1  1  1)
   9-C(  0  0  2)  10-C(  1  0  2)  11-C(  0  1  2)  12-C(  1  1  2)
  13-C(  0  0  3)  14-C(  1  0  3)  15-C(  0  1  3)  16-C(  1  1  3)
  17-R(  0  0  4)  18-R(  1  0  4)  19-R(  0  1  4)  20-R(  1  1  4)

 DIRECT LATTICE VECTORS COMPON. (A.U.)     RECIP. LATTICE VECTORS COMPON. (A.U.) 
        X            Y            Z              X            Y            Z
   24.5689761  -14.2152832    0.0000000      0.2557366    0.0000000   -0.1652386
    0.0000000   28.4297713    0.0000000      0.1278719    0.2210072   -0.3294227
    3.7854064    6.5423592    5.8585999      0.0000000    0.0000000    1.0724722

 DISK SPACE FOR EIGENVECTORS (FTN 10)     7189632 REALS

 SYMMETRY ADAPTION OF THE BLOCH FUNCTIONS DISABLED
 TTTTTTTTTTTTTTTTTTTTTTTTTTTTTT gordsh1     TELAPSE        0.04 TCPU        0.04

 MATRIX SIZE: P(G)  394540, F(G)   78756, P(G) IRR  198683, F(G) IRR   79416
 MAX G-VECTOR INDEX FOR 1- AND 2-ELECTRON INTEGRALS  55

 TTTTTTTTTTTTTTTTTTTTTTTTTTTTTT INPUT       TELAPSE        0.39 TCPU        0.39

 NEIGHBORS OF THE NON-EQUIVALENT ATOMS

 N = NUMBER OF NEIGHBORS AT DISTANCE R
    ATOM  N     R/ANG      R/AU   NEIGHBORS (ATOM LABELS AND CELL INDICES)
   1 B    1     1.3787     2.6054   38 O    0 0 0
   1 B    1     1.3795     2.6068   37 O   -1 0 0
   1 B    1     1.5517     2.9323   30 C    0 0-1
   1 B    1     2.3868     4.5104    2 B    0 0 0
   1 B    1     2.3912     4.5187    3 B    0 1-2
   1 B    1     2.5629     4.8431   27 C   -1 0-1

   2 B    1     1.3792     2.6064   38 O    0 0 0
   2 B    1     1.3798     2.6075   39 O    0 1-2
   2 B    1     1.5510     2.9309   19 C    0 0 0
   2 B    1     2.3868     4.5104    1 B    0 0 0
   2 B    1     2.3894     4.5154    3 B    0 1-2
   2 B    1     2.5618     4.8411   22 C    0 1-2

   3 B    1     1.3790     2.6060   37 O   -1-1 2
   3 B    1     1.3795     2.6069   39 O    0 0 0
   3 B    1     1.5529     2.9346   36 C   -1-1 2
   3 B    1     2.3894     4.5154    2 B    0-1 2
   3 B    1     2.3912     4.5187    1 B    0-1 2
   3 B    1     2.5679     4.8526   35 C   -1-1 2

   4 B    1     1.3778     2.6037   41 O    0 0 0
   4 B    1     1.3785     2.6051   40 O    0 0 1
   4 B    1     1.5479     2.9251   24 C    0 0 0
   4 B    1     2.3857     4.5084    5 B    0 0 0
   4 B    1     2.3859     4.5087    6 B    0 0 1
   4 B    1     2.5584     4.8347   21 C    0 0 0

   5 B    1     1.3778     2.6037   41 O    0 0 0
   5 B    1     1.3813     2.6103   42 O    0 0 1
   5 B    1     1.5522     2.9333   31 C    0 0 0
   5 B    1     2.3857     4.5084    4 B    0 0 0
   5 B    1     2.3952     4.5262    6 B    0 0 1
   5 B    1     2.5590     4.8357   32 C    0 0 0

   6 B    1     1.3783     2.6045   40 O    0 0 0
   6 B    1     1.3812     2.6101   42 O    0 0 0
   6 B    1     1.5546     2.9377   25 C    0 0 0
   6 B    1     2.3859     4.5087    4 B    0 0-1
   6 B    1     2.3952     4.5262    5 B    0 0-1
   6 B    1     2.5605     4.8386   26 C    0 0 0

   7 H    1     1.0916     2.0629   20 C    0 0 0
   7 H    1     2.1461     4.0556   19 C    0 0 0
   7 H    1     2.1712     4.1029   23 C    0 0 0
   7 H    1     2.5280     4.7772   10 H    0 0 0
   7 H    1     2.5583     4.8346   38 O    0 0 0
   7 H    1     2.7310     5.1608    2 B    0 0 0

   8 H    1     1.0909     2.0615   21 C    0-1 1
   8 H    1     2.1454     4.0542   24 C    0-1 1
   8 H    1     2.1688     4.0985   22 C    0 0-1
   8 H    1     2.5272     4.7758    9 H    0 0-1
   8 H    1     2.5561     4.8304   40 O    0-1 2
   8 H    1     2.7242     5.1480    4 B    0-1 1

   9 H    1     1.0908     2.0613   22 C    0 0 0
   9 H    1     2.1442     4.0519   19 C    0-1 2
   9 H    1     2.1694     4.0995   21 C    0-1 2
   9 H    1     2.5272     4.7758    8 H    0 0 1
   9 H    1     2.5615     4.8406   39 O    0 0 0
   9 H    1     2.7248     5.1491    2 B    0-1 2

  10 H    1     1.0912     2.0621   23 C    0 0 0
  10 H    1     2.1468     4.0570   24 C    0 0 0
  10 H    1     2.1689     4.0986   20 C    0 0 0
  10 H    1     2.5280     4.7772    7 H    0 0 0
  10 H    1     2.5562     4.8305   41 O    0 0 0
  10 H    1     2.7309     5.1607    4 B    0 0 0

  11 H    1     1.0911     2.0619   26 C   -1-1 2
  11 H    1     2.1443     4.0521   25 C   -1-1 2
  11 H    1     2.1684     4.0977   29 C    0 0 0
  11 H    1     2.5222     4.7664   14 H    0 0 0
  11 H    1     2.5622     4.8419   42 O   -1-1 2
  11 H    1     2.7179     5.1361    6 B   -1-1 2

  12 H    1     1.0917     2.0630   27 C    0 0 0
  12 H    1     2.1441     4.0517   30 C    1 0 0
  12 H    1     2.1716     4.1037   28 C    0 0 0
  12 H    1     2.5226     4.7669   13 H    0 0 0
  12 H    1     2.5541     4.8265   37 O    0 0 1
  12 H    1     2.7237     5.1470    1 B    1 0 1

  13 H    1     1.0919     2.0633   28 C    0 0 0
  13 H    1     2.1522     4.0670   25 C    0-1 2
  13 H    1     2.1668     4.0946   27 C    0 0 0
  13 H    1     2.5226     4.7669   12 H    0 0 0
  13 H    1     2.5922     4.8986   40 O    0-1 2
  13 H    1     2.7582     5.2123    6 B    0-1 2

  14 H    1     1.0915     2.0627   29 C    0 0 0
  14 H    1     2.1483     4.0597   30 C    0 0 0
  14 H    1     2.1679     4.0968   26 C   -1-1 2
  14 H    1     2.5222     4.7664   11 H    0 0 0
  14 H    1     2.5809     4.8771   38 O    0 0 1
  14 H    1     2.7404     5.1785    1 B    0 0 1

  15 H    1     1.0916     2.0628   32 C   -1-1 1
  15 H    1     2.1436     4.0508   31 C   -1-1 1
  15 H    1     2.1707     4.1021   35 C   -1-1 1
  15 H    1     2.5217     4.7654   18 H    0 0-1
  15 H    1     2.5567     4.8315   42 O   -1-1 2
  15 H    1     2.7164     5.1333    5 B   -1-1 1

  16 H    1     1.0914     2.0624   33 C    0 0 0
  16 H    1     2.1487     4.0605   36 C    0 0 0
  16 H    1     2.1663     4.0937   34 C    0 0 0
  16 H    1     2.5170     4.7564   17 H    0 0 0
  16 H    1     2.5779     4.8716   37 O    0 0 0
  16 H    1     2.7395     5.1769    3 B    1 1-2

  17 H    1     1.0921     2.0638   34 C    0 0 0
  17 H    1     2.1502     4.0632   31 C    0 0 0
  17 H    1     2.1683     4.0976   33 C    0 0 0
  17 H    1     2.5170     4.7564   16 H    0 0 0
  17 H    1     2.5870     4.8888   41 O    0 0 0
  17 H    1     2.7510     5.1986    5 B    0 0 0

  18 H    1     1.0913     2.0622   35 C   -1-1 2
  18 H    1     2.1494     4.0619   36 C   -1-1 2
  18 H    1     2.1656     4.0923   32 C   -1-1 2
  18 H    1     2.5217     4.7654   15 H    0 0 1
  18 H    1     2.5789     4.8734   39 O    0 0 0
  18 H    1     2.7392     5.1763    3 B    0 0 0

  19 C    1     1.4017     2.6488   22 C    0 1-2
  19 C    1     1.4025     2.6504   20 C    0 0 0
  19 C    1     1.5510     2.9309    2 B    0 0 0
  19 C    1     2.1442     4.0519    9 H    0 1-2
  19 C    1     2.1461     4.0556    7 H    0 0 0
  19 C    1     2.4236     4.5799   21 C    0 0 0

  20 C    1     1.0916     2.0629    7 H    0 0 0
  20 C    1     1.3915     2.6296   23 C    0 0 0
  20 C    1     1.4025     2.6504   19 C    0 0 0
  20 C    1     2.1689     4.0986   10 H    0 0 0
  20 C    1     2.4191     4.5714   22 C    0 1-2
  20 C    1     2.4241     4.5809   24 C    0 0 0

  21 C    1     1.0909     2.0615    8 H    0 1-1
  21 C    1     1.3909     2.6284   22 C    0 1-2
  21 C    1     1.4014     2.6483   24 C    0 0 0
  21 C    1     2.1694     4.0995    9 H    0 1-2
  21 C    1     2.4189     4.5710   23 C    0 0 0
  21 C    1     2.4236     4.5799   19 C    0 0 0

  22 C    1     1.0908     2.0613    9 H    0 0 0
  22 C    1     1.3909     2.6284   21 C    0-1 2
  22 C    1     1.4017     2.6488   19 C    0-1 2
  22 C    1     2.1688     4.0985    8 H    0 0 1
  22 C    1     2.4191     4.5714   20 C    0-1 2
  22 C    1     2.4226     4.5780   24 C    0-1 2

  23 C    1     1.0912     2.0621   10 H    0 0 0
  23 C    1     1.3915     2.6296   20 C    0 0 0
  23 C    1     1.4021     2.6496   24 C    0 0 0
  23 C    1     2.1712     4.1029    7 H    0 0 0
  23 C    1     2.4189     4.5710   21 C    0 0 0
  23 C    1     2.4237     4.5802   19 C    0 0 0

  24 C    1     1.4014     2.6483   21 C    0 0 0
  24 C    1     1.4021     2.6496   23 C    0 0 0
  24 C    1     1.5479     2.9251    4 B    0 0 0
  24 C    1     2.1454     4.0542    8 H    0 1-1
  24 C    1     2.1468     4.0570   10 H    0 0 0
  24 C    1     2.4226     4.5780   22 C    0 1-2

  25 C    1     1.4025     2.6504   26 C    0 0 0
  25 C    1     1.4037     2.6525   28 C    0 1-2
  25 C    1     1.5546     2.9377    6 B    0 0 0
  25 C    1     2.1443     4.0521   11 H    1 1-2
  25 C    1     2.1522     4.0670   13 H    0 1-2
  25 C    1     2.4271     4.5865   27 C    0 1-2

  26 C    1     1.0911     2.0619   11 H    1 1-2
  26 C    1     1.3916     2.6298   29 C    1 1-2
  26 C    1     1.4025     2.6504   25 C    0 0 0
  26 C    1     2.1679     4.0968   14 H    1 1-2
  26 C    1     2.4165     4.5665   28 C    0 1-2
  26 C    1     2.4246     4.5818   30 C    1 1-2

  27 C    1     1.0917     2.0630   12 H    0 0 0
  27 C    1     1.3928     2.6320   28 C    0 0 0
  27 C    1     1.4024     2.6501   30 C    1 0 0
  27 C    1     2.1668     4.0946   13 H    0 0 0
  27 C    1     2.4166     4.5668   29 C    1 0 0
  27 C    1     2.4271     4.5865   25 C    0-1 2

  28 C    1     1.0919     2.0633   13 H    0 0 0
  28 C    1     1.3928     2.6320   27 C    0 0 0
  28 C    1     1.4037     2.6525   25 C    0-1 2
  28 C    1     2.1716     4.1037   12 H    0 0 0
  28 C    1     2.4165     4.5665   26 C    0-1 2
  28 C    1     2.4277     4.5877   30 C    1 0 0

  29 C    1     1.0915     2.0627   14 H    0 0 0
  29 C    1     1.3916     2.6298   26 C   -1-1 2
  29 C    1     1.4023     2.6499   30 C    0 0 0
  29 C    1     2.1684     4.0977   11 H    0 0 0
  29 C    1     2.4166     4.5668   27 C   -1 0 0
  29 C    1     2.4281     4.5884   25 C   -1-1 2

  30 C    1     1.4023     2.6499   29 C    0 0 0
  30 C    1     1.4024     2.6501   27 C   -1 0 0
  30 C    1     1.5517     2.9323    1 B    0 0 1
  30 C    1     2.1441     4.0517   12 H   -1 0 0
  30 C    1     2.1483     4.0597   14 H    0 0 0
  30 C    1     2.4246     4.5818   26 C   -1-1 2

  31 C    1     1.4022     2.6498   32 C    0 0 0
  31 C    1     1.4030     2.6512   34 C    0 0 0
  31 C    1     1.5522     2.9333    5 B    0 0 0
  31 C    1     2.1436     4.0508   15 H    1 1-1
  31 C    1     2.1502     4.0632   17 H    0 0 0
  31 C    1     2.4264     4.5853   33 C    0 0 0

  32 C    1     1.0916     2.0628   15 H    1 1-1
  32 C    1     1.3918     2.6301   35 C    0 0 0
  32 C    1     1.4022     2.6498   31 C    0 0 0
  32 C    1     2.1656     4.0923   18 H    1 1-2
  32 C    1     2.4163     4.5661   34 C    0 0 0
  32 C    1     2.4270     4.5863   36 C    0 0 0

  33 C    1     1.0914     2.0624   16 H    0 0 0
  33 C    1     1.3927     2.6318   34 C    0 0 0
  33 C    1     1.4029     2.6510   36 C    0 0 0
  33 C    1     2.1683     4.0976   17 H    0 0 0
  33 C    1     2.4155     4.5645   35 C    0 0 0
  33 C    1     2.4264     4.5853   31 C    0 0 0

  34 C    1     1.0921     2.0638   17 H    0 0 0
  34 C    1     1.3927     2.6318   33 C    0 0 0
  34 C    1     1.4030     2.6512   31 C    0 0 0
  34 C    1     2.1663     4.0937   16 H    0 0 0
  34 C    1     2.4163     4.5661   32 C    0 0 0
  34 C    1     2.4289     4.5899   36 C    0 0 0

  35 C    1     1.0913     2.0622   18 H    1 1-2
  35 C    1     1.3918     2.6301   32 C    0 0 0
  35 C    1     1.4029     2.6511   36 C    0 0 0
  35 C    1     2.1707     4.1021   15 H    1 1-1
  35 C    1     2.4155     4.5645   33 C    0 0 0
  35 C    1     2.4269     4.5861   31 C    0 0 0

  36 C    1     1.4029     2.6510   33 C    0 0 0
  36 C    1     1.4029     2.6511   35 C    0 0 0
  36 C    1     1.5529     2.9346    3 B    1 1-2
  36 C    1     2.1487     4.0605   16 H    0 0 0
  36 C    1     2.1494     4.0619   18 H    1 1-2
  36 C    1     2.4270     4.5863   32 C    0 0 0

  37 O    1     1.3790     2.6060    3 B    1 1-2
  37 O    1     1.3795     2.6068    1 B    1 0 0
  37 O    1     2.3868     4.5105   39 O    1 1-2
  37 O    1     2.3885     4.5136   38 O    1 0 0
  37 O    1     2.5389     4.7979   30 C    1 0-1
  37 O    1     2.5412     4.8021   36 C    0 0 0

  38 O    1     1.3787     2.6054    1 B    0 0 0
  38 O    1     1.3792     2.6064    2 B    0 0 0
  38 O    1     2.3885     4.5136   37 O   -1 0 0
  38 O    1     2.3912     4.5187   39 O    0 1-2
  38 O    1     2.5351     4.7906   19 C    0 0 0
  38 O    1     2.5405     4.8008   30 C    0 0-1

  39 O    1     1.3795     2.6069    3 B    0 0 0
  39 O    1     1.3798     2.6075    2 B    0-1 2
  39 O    1     2.3868     4.5105   37 O   -1-1 2
  39 O    1     2.3912     4.5187   38 O    0-1 2
  39 O    1     2.5416     4.8030   19 C    0-1 2
  39 O    1     2.5427     4.8050   36 C   -1-1 2

  40 O    1     1.3783     2.6045    6 B    0 0 0
  40 O    1     1.3785     2.6051    4 B    0 0-1
  40 O    1     2.3876     4.5119   42 O    0 0 0
  40 O    1     2.3913     4.5189   41 O    0 0-1
  40 O    1     2.5354     4.7912   25 C    0 0 0
  40 O    1     2.5360     4.7923   24 C    0 0-1

  41 O    1     1.3778     2.6037    4 B    0 0 0
  41 O    1     1.3778     2.6037    5 B    0 0 0
  41 O    1     2.3870     4.5107   42 O    0 0 1
  41 O    1     2.3913     4.5189   40 O    0 0 1
  41 O    1     2.5304     4.7818   24 C    0 0 0
  41 O    1     2.5353     4.7910   31 C    0 0 0

  42 O    1     1.3812     2.6101    6 B    0 0 0
  42 O    1     1.3813     2.6103    5 B    0 0-1
  42 O    1     2.3870     4.5107   41 O    0 0-1
  42 O    1     2.3876     4.5119   40 O    0 0 0
  42 O    1     2.5481     4.8152   31 C    0 0-1
  42 O    1     2.5522     4.8230   25 C    0 0 0


 SYMMETRY ALLOWED INTERNAL DEGREE(S) OF FREEDOM: 123
 TTTTTTTTTTTTTTTTTTTTTTTTTTTTTT SYMM        TELAPSE        0.39 TCPU        0.39
 TTTTTTTTTTTTTTTTTTTTTTTTTTTTTT INT_SCREEN  TELAPSE        0.42 TCPU        0.42

 DFT PARAMETERS

     ATOM       ELECTRONS   NET CHARGE   R(ANGSTROM)
   1   5  B       5.0000      0.0000     0.89000000
   7   1  H       1.0000      0.0000     1.11000000
  19   6  C       6.0000      0.0000     0.77000000
  37   8  O       8.0000      0.0000     0.74000000

 SIZE OF GRID=    1236208
 TTTTTTTTTTTTTTTTTTTTTTTTTTTTTT MAKE_GRID2  TELAPSE       12.12 TCPU       12.10
 BECKE WEIGHT FUNCTION
 RADSAFE =     2.00
 TOLERANCES - DENSITY:10**- 6; POTENTIAL:10**- 9; GRID WGT:10**-14

 RADIAL INTEGRATION  - INTERVALS (POINTS,UPPER LIMIT):            1( 75,  4.0*R)

 ANGULAR INTEGRATION - INTERVALS (ACCURACY LEVEL [N. POINTS] UPPER LIMIT):
  1(  4[  86]   0.2)  2(  8[ 194]   0.5)  3( 12[ 350]   0.9)  4( 16[ 974]   3.5)
  5( 12[ 350]9999.0)
 TTTTTTTTTTTTTTTTTTTTTTTTTTTTTT INT_CALC    TELAPSE       12.22 TCPU       12.21
 EEEEEEEEEE INT_CALC TERMINATION  DATE 02 12 2025 TIME 07:55:42.3

 *******************************************************************************
 COF-5_z31_inc_L040                                                              
 CRYSTAL - SCF - TYPE OF CALCULATION :  RESTRICTED CLOSED SHELL
 *******************************************************************************

 CAPPA:IS1  2;IS2  2;IS3  8; K PTS MONK NET  20; SYMMOPS:K SPACE   2;G SPACE   1

 TTTTTTTTTTTTTTTTTTTTTTTTTTTTTT SDIK        TELAPSE       13.04 TCPU       19.78

 AAAAAAAAAAAAAAAAAAAAAAAAAAAAAAAAAAAAAAAAAAAAAAAAAAAAAAAAAAAAAAAAAAAAAAAAAAAAAAA
         ATOMIC WAVEFUNCTION(S)


 NUCLEAR CHARGE  5.0  SYMMETRY SPECIES            S    P
 N. ELECTRONS    5.0  NUMBER OF PRIMITIVE GTOS    8    4
                      NUMBER OF CONTRACTED GTOS   4    2
                      NUMBER OF CLOSED SHELLS     2    0
                      OPEN SHELL OCCUPATION       0    1

  ZNUC  SCFIT    TOTAL HF ENERGY   KINETIC ENERGY   VIRIAL THEOREM ACCURACY
   5.0    11    -2.451164084E+01  2.462155050E+01 -1.995536038E+00  1.5E-06

 NUCLEAR CHARGE  1.0  SYMMETRY SPECIES            S
 N. ELECTRONS    1.0  NUMBER OF PRIMITIVE GTOS    4
                      NUMBER OF CONTRACTED GTOS   2
                      NUMBER OF CLOSED SHELLS     0
                      OPEN SHELL OCCUPATION       1

  ZNUC  SCFIT    TOTAL HF ENERGY   KINETIC ENERGY   VIRIAL THEOREM ACCURACY
   1.0     1    -4.977266687E-01  5.190767460E-01 -1.958869132E+00  0.0E+00

 NUCLEAR CHARGE  6.0  SYMMETRY SPECIES            S    P
 N. ELECTRONS    6.0  NUMBER OF PRIMITIVE GTOS    8    4
                      NUMBER OF CONTRACTED GTOS   4    2
                      NUMBER OF CLOSED SHELLS     2    0
                      OPEN SHELL OCCUPATION       0    2

  ZNUC  SCFIT    TOTAL HF ENERGY   KINETIC ENERGY   VIRIAL THEOREM ACCURACY
   6.0     9    -3.766704647E+01  3.775180683E+01 -1.997754800E+00  1.1E-06

 NUCLEAR CHARGE  8.0  SYMMETRY SPECIES            S    P
 N. ELECTRONS    8.0  NUMBER OF PRIMITIVE GTOS    8    4
                      NUMBER OF CONTRACTED GTOS   4    2
                      NUMBER OF CLOSED SHELLS     2    0
                      OPEN SHELL OCCUPATION       0    4

  ZNUC  SCFIT    TOTAL HF ENERGY   KINETIC ENERGY   VIRIAL THEOREM ACCURACY
   8.0    12    -7.477373220E+01  7.477365593E+01 -2.000001020E+00  3.8E-06

 AAAAAAAAAAAAAAAAAAAAAAAAAAAAAAAAAAAAAAAAAAAAAAAAAAAAAAAAAAAAAAAAAAAAAAAAAAAAAAA

 CHARGE NORMALIZATION FACTOR   1.00000000
 TOTAL ATOMIC CHARGES:
   5.0000000   5.0000000   5.0000000   5.0000000   5.0000000   5.0000000
   1.0000000   1.0000000   1.0000000   1.0000000   1.0000000   1.0000000
   1.0000000   1.0000000   1.0000000   1.0000000   1.0000000   1.0000000
   6.0000000   6.0000000   6.0000000   6.0000000   6.0000000   6.0000000
   6.0000000   6.0000000   6.0000000   6.0000000   6.0000000   6.0000000
   6.0000000   6.0000000   6.0000000   6.0000000   6.0000000   6.0000000
   8.0000000   8.0000000   8.0000000   8.0000000   8.0000000   8.0000000
 TTTTTTTTTTTTTTTTTTTTTTTTTTTTTT MOQGAD      TELAPSE       13.15 TCPU       21.60
 TTTTTTTTTTTTTTTTTTTTTTTTTTTTTT SHELLXN     TELAPSE       26.26 TCPU      437.16
 TTTTTTTTTTTTTTTTTTTTTTTTTTTTTT MONMO3      TELAPSE       26.46 TCPU      443.57
 NUMERICALLY INTEGRATED DENSITY    198.0000373419
 TTTTTTTTTTTTTTTTTTTTTTTTTTTTTT NUMDFT      TELAPSE       27.20 TCPU      467.22
 CYC   0 ETOT(AU) -1.296016108505E+03 DETOT -1.30E+03 tst  0.00E+00 PX  1.00E+00
 TTTTTTTTTTTTTTTTTTTTTTTTTTTTTT DIIS        TELAPSE       27.25 TCPU      468.59
 TTTTTTTTTTTTTTTTTTTTTTTTTTTTTT FDIK        TELAPSE       27.78 TCPU      485.77
 INSULATING STATE
 TOP OF VALENCE BANDS -    BAND     99; K   17; EIG -3.0493378E-01 AU
 TOP OF VALENCE BANDS -    BAND     99; K    1; EIG -3.1026295E-01 AU
 BOTTOM OF VIRTUAL BANDS - BAND    100; K   17; EIG -1.7385114E-01 AU
 DIRECT ENERGY BAND GAP:   3.5669 eV
 BOTTOM OF VIRTUAL BANDS - BAND    100; K    1; EIG -1.6700176E-01 AU
 TTTTTTTTTTTTTTTTTTTTTTTTTTTTTT PDIG        TELAPSE       28.14 TCPU      491.96
 CHARGE NORMALIZATION FACTOR   1.00000000
 TOTAL ATOMIC CHARGES:
   4.1368061   4.1513488   4.1526052   4.1538601   4.1513014   4.1356508
   0.7859886   0.7859894   0.7839078   0.7838810   0.7855933   0.7853792
   0.7866509   0.7860874   0.7857717   0.7863069   0.7840365   0.7842690
   6.0453811   6.2699254   6.2698316   6.2686370   6.2672407   6.0478488
   6.0460204   6.2594795   6.2590404   6.2599635   6.2609959   6.0486283
   6.0445275   6.2697868   6.2708178   6.2679697   6.2698249   6.0418460
   8.7053622   8.7046378   8.7038269   8.7040999   8.7023734   8.7065006
 TTTTTTTTTTTTTTTTTTTTTTTTTTTTTT MOQGAD      TELAPSE       28.19 TCPU      492.01
 TTTTTTTTTTTTTTTTTTTTTTTTTTTTTT SHELLXN     TELAPSE       41.73 TCPU      924.11
 TTTTTTTTTTTTTTTTTTTTTTTTTTTTTT MONMO3      TELAPSE       41.92 TCPU      930.05
 NUMERICALLY INTEGRATED DENSITY    198.0000173354
 TTTTTTTTTTTTTTTTTTTTTTTTTTTTTT NUMDFT      TELAPSE       42.67 TCPU      954.25
 CYC   1 ETOT(AU) -1.288832349853E+03 DETOT  7.18E+00 tst  0.00E+00 PX  1.00E+00
 TTTTTTTTTTTTTTTTTTTTTTTTTTTTTT DIIS        TELAPSE       42.73 TCPU      955.99
 DIIS TEST: 0.10745E+01 AT SCF   CYCLE   1 - MIX   30 %
 TTTTTTTTTTTTTTTTTTTTTTTTTTTTTT FDIK        TELAPSE       43.29 TCPU      973.86
 INSULATING STATE
 TOP OF VALENCE BANDS -    BAND     99; K   17; EIG -2.1729452E-01 AU
 TOP OF VALENCE BANDS -    BAND     99; K    1; EIG -2.2980769E-01 AU
 BOTTOM OF VIRTUAL BANDS - BAND    100; K   17; EIG -1.0176471E-01 AU
 DIRECT ENERGY BAND GAP:   3.1437 eV
 BOTTOM OF VIRTUAL BANDS - BAND    100; K    1; EIG -9.1097932E-02 AU
 TTTTTTTTTTTTTTTTTTTTTTTTTTTTTT PDIG        TELAPSE       43.62 TCPU      980.04
 CHARGE NORMALIZATION FACTOR   1.00000000
 TOTAL ATOMIC CHARGES:
   4.6336599   4.6833358   4.6839976   4.6844233   4.6844627   4.6334359
   0.9020571   0.9025134   0.9186063   0.9188380   0.8894529   0.8889169
   0.8903096   0.8903393   0.9015600   0.9020978   0.9184769   0.9183804
   5.8774099   6.1391811   6.1374644   6.1439300   6.1454771   5.8736633
   5.9277061   6.1501632   6.1545141   6.1554941   6.1556204   5.9221821
   5.8789796   6.1344807   6.1373867   6.1460709   6.1424653   5.8799080
   8.3352079   8.3337379   8.3577714   8.3323921   8.3551532   8.3387768
 TTTTTTTTTTTTTTTTTTTTTTTTTTTTTT MOQGAD      TELAPSE       43.67 TCPU      980.10
 TTTTTTTTTTTTTTTTTTTTTTTTTTTTTT SHELLXN     TELAPSE       57.20 TCPU     1411.82
 TTTTTTTTTTTTTTTTTTTTTTTTTTTTTT MONMO3      TELAPSE       57.39 TCPU     1417.80
 NUMERICALLY INTEGRATED DENSITY    198.0000179703
 TTTTTTTTTTTTTTTTTTTTTTTTTTTTTT NUMDFT      TELAPSE       58.16 TCPU     1442.65
 CYC   2 ETOT(AU) -1.289022063621E+03 DETOT -1.90E-01 tst  3.09E-03 PX  1.60E-01
 TTTTTTTTTTTTTTTTTTTTTTTTTTTTTT DIIS        TELAPSE       58.22 TCPU     1444.57
 DIIS TEST: 0.44103E+00 AT SCF   CYCLE   2 - DIIS ACTIVE - HISTORY:     2 CYCLES
 TTTTTTTTTTTTTTTTTTTTTTTTTTTTTT FDIK        TELAPSE       58.75 TCPU     1461.47
 INSULATING STATE
 TOP OF VALENCE BANDS -    BAND     99; K   17; EIG -2.2822263E-01 AU
 TOP OF VALENCE BANDS -    BAND     99; K    1; EIG -2.3724435E-01 AU
 BOTTOM OF VIRTUAL BANDS - BAND    100; K   17; EIG -9.5679843E-02 AU
 DIRECT ENERGY BAND GAP:   3.6067 eV
 BOTTOM OF VIRTUAL BANDS - BAND    100; K    1; EIG -8.7056485E-02 AU
 TTTTTTTTTTTTTTTTTTTTTTTTTTTTTT PDIG        TELAPSE       59.09 TCPU     1467.65
 CHARGE NORMALIZATION FACTOR   1.00000000
 TOTAL ATOMIC CHARGES:
   4.4386344   4.4839222   4.4844810   4.4853802   4.4837597   4.4380616
   0.8841194   0.8841014   0.8948448   0.8950961   0.8784149   0.8781524
   0.8800439   0.8794763   0.8830018   0.8841257   0.8953112   0.8945740
   5.8984030   6.1696758   6.1700828   6.1546285   6.1543477   5.8997172
   5.9256590   6.1630099   6.1649046   6.1662843   6.1671573   5.9257815
   5.8985677   6.1694360   6.1698255   6.1548618   6.1562082   5.8987766
   8.5267567   8.5262616   8.5208907   8.5257579   8.5185461   8.5289590
 TTTTTTTTTTTTTTTTTTTTTTTTTTTTTT MOQGAD      TELAPSE       59.14 TCPU     1467.70
 TTTTTTTTTTTTTTTTTTTTTTTTTTTTTT SHELLXN     TELAPSE       72.69 TCPU     1899.95
 TTTTTTTTTTTTTTTTTTTTTTTTTTTTTT MONMO3      TELAPSE       72.88 TCPU     1906.15
 NUMERICALLY INTEGRATED DENSITY    198.0000183371
 TTTTTTTTTTTTTTTTTTTTTTTTTTTTTT NUMDFT      TELAPSE       73.64 TCPU     1930.52
 CYC   3 ETOT(AU) -1.289112537835E+03 DETOT -9.05E-02 tst  6.18E-04 PX  6.85E-02
 TTTTTTTTTTTTTTTTTTTTTTTTTTTTTT DIIS        TELAPSE       73.71 TCPU     1932.62
 DIIS TEST: 0.16547E-01 AT SCF   CYCLE   3 - DIIS ACTIVE - HISTORY:     3 CYCLES
 TTTTTTTTTTTTTTTTTTTTTTTTTTTTTT FDIK        TELAPSE       74.25 TCPU     1949.93
 INSULATING STATE
 TOP OF VALENCE BANDS -    BAND     99; K   17; EIG -2.3795311E-01 AU
 TOP OF VALENCE BANDS -    BAND     99; K    1; EIG -2.4944180E-01 AU
 BOTTOM OF VIRTUAL BANDS - BAND    100; K   17; EIG -1.0534143E-01 AU
 DIRECT ENERGY BAND GAP:   3.6085 eV
 BOTTOM OF VIRTUAL BANDS - BAND    100; K    1; EIG -9.4870010E-02 AU
 TTTTTTTTTTTTTTTTTTTTTTTTTTTTTT PDIG        TELAPSE       74.60 TCPU     1956.12
 CHARGE NORMALIZATION FACTOR   1.00000000
 TOTAL ATOMIC CHARGES:
   4.4459804   4.4875118   4.4880219   4.4891028   4.4875729   4.4455243
   0.8677476   0.8680756   0.8774002   0.8776853   0.8575169   0.8572384
   0.8589994   0.8586427   0.8671215   0.8678764   0.8776865   0.8775693
   5.9440412   6.1706844   6.1693078   6.1711415   6.1711738   5.9425317
   5.9828171   6.1756451   6.1778010   6.1779186   6.1789089   5.9801728
   5.9449147   6.1682402   6.1701430   6.1721952   6.1699784   5.9436198
   8.4839878   8.4827231   8.4992556   8.4816130   8.4973585   8.4865527
 TTTTTTTTTTTTTTTTTTTTTTTTTTTTTT MOQGAD      TELAPSE       74.66 TCPU     1956.17
 TTTTTTTTTTTTTTTTTTTTTTTTTTTTTT SHELLXN     TELAPSE       88.26 TCPU     2390.27
 TTTTTTTTTTTTTTTTTTTTTTTTTTTTTT MONMO3      TELAPSE       88.47 TCPU     2396.83
 NUMERICALLY INTEGRATED DENSITY    198.0000180690
 TTTTTTTTTTTTTTTTTTTTTTTTTTTTTT NUMDFT      TELAPSE       89.29 TCPU     2423.01
 CYC   4 ETOT(AU) -1.289116143306E+03 DETOT -3.61E-03 tst  3.16E-05 PX  1.53E-02
 TTTTTTTTTTTTTTTTTTTTTTTTTTTTTT DIIS        TELAPSE       89.37 TCPU     2425.51
 DIIS TEST: 0.42558E-02 AT SCF   CYCLE   4 - DIIS ACTIVE - HISTORY:     4 CYCLES
 TTTTTTTTTTTTTTTTTTTTTTTTTTTTTT FDIK        TELAPSE       89.94 TCPU     2443.90
 INSULATING STATE
 TOP OF VALENCE BANDS -    BAND     99; K   17; EIG -2.3662616E-01 AU
 TOP OF VALENCE BANDS -    BAND     99; K    1; EIG -2.4708591E-01 AU
 BOTTOM OF VIRTUAL BANDS - BAND    100; K   17; EIG -1.0427356E-01 AU
 DIRECT ENERGY BAND GAP:   3.6015 eV
 BOTTOM OF VIRTUAL BANDS - BAND    100; K    1; EIG -9.4781805E-02 AU
 TTTTTTTTTTTTTTTTTTTTTTTTTTTTTT PDIG        TELAPSE       90.31 TCPU     2450.10
 CHARGE NORMALIZATION FACTOR   1.00000000
 TOTAL ATOMIC CHARGES:
   4.4451565   4.4913636   4.4920337   4.4928659   4.4915793   4.4446270
   0.8695785   0.8696806   0.8809342   0.8811416   0.8613076   0.8609445
   0.8627353   0.8622997   0.8686985   0.8696750   0.8813094   0.8807908
   5.9279512   6.1733663   6.1732180   6.1677135   6.1676658   5.9279644
   5.9612573   6.1743640   6.1771443   6.1776346   6.1785133   5.9602448
   5.9282152   6.1720822   6.1731170   6.1679213   6.1682533   5.9287785
   8.4970837   8.4961472   8.5010462   8.4954813   8.4986938   8.4994206
 TTTTTTTTTTTTTTTTTTTTTTTTTTTTTT MOQGAD      TELAPSE       90.36 TCPU     2450.15
 TTTTTTTTTTTTTTTTTTTTTTTTTTTTTT SHELLXN     TELAPSE      103.99 TCPU     2884.83
 TTTTTTTTTTTTTTTTTTTTTTTTTTTTTT MONMO3      TELAPSE      104.19 TCPU     2891.18
 NUMERICALLY INTEGRATED DENSITY    198.0000179601
 TTTTTTTTTTTTTTTTTTTTTTTTTTTTTT NUMDFT      TELAPSE      104.94 TCPU     2915.45
 CYC   5 ETOT(AU) -1.289117103514E+03 DETOT -9.60E-04 tst  5.63E-06 PX  6.99E-03
 TTTTTTTTTTTTTTTTTTTTTTTTTTTTTT DIIS        TELAPSE      105.02 TCPU     2917.93
 DIIS TEST: 0.69059E-04 AT SCF   CYCLE   5 - DIIS ACTIVE - HISTORY:     5 CYCLES
 TTTTTTTTTTTTTTTTTTTTTTTTTTTTTT FDIK        TELAPSE      105.56 TCPU     2935.23
 INSULATING STATE
 TOP OF VALENCE BANDS -    BAND     99; K   17; EIG -2.3631304E-01 AU
 TOP OF VALENCE BANDS -    BAND     99; K    1; EIG -2.4676809E-01 AU
 BOTTOM OF VIRTUAL BANDS - BAND    100; K   17; EIG -1.0397509E-01 AU
 DIRECT ENERGY BAND GAP:   3.6011 eV
 BOTTOM OF VIRTUAL BANDS - BAND    100; K    1; EIG -9.4349903E-02 AU
 TTTTTTTTTTTTTTTTTTTTTTTTTTTTTT PDIG        TELAPSE      105.91 TCPU     2941.43
 CHARGE NORMALIZATION FACTOR   1.00000000
 TOTAL ATOMIC CHARGES:
   4.4468596   4.4904321   4.4909533   4.4919522   4.4905597   4.4463929
   0.8706611   0.8708882   0.8817489   0.8820424   0.8622904   0.8620765
   0.8638097   0.8633960   0.8699103   0.8707595   0.8820280   0.8818173
   5.9279415   6.1725400   6.1714988   6.1670297   6.1671297   5.9273120
   5.9630485   6.1735085   6.1749464   6.1757909   6.1769398   5.9608674
   5.9290271   6.1706452   6.1720717   6.1683416   6.1664652   5.9273141
   8.4955829   8.4946821   8.5044702   8.4935628   8.5025638   8.4981421
 TTTTTTTTTTTTTTTTTTTTTTTTTTTTTT MOQGAD      TELAPSE      105.97 TCPU     2941.48
 TTTTTTTTTTTTTTTTTTTTTTTTTTTTTT SHELLXN     TELAPSE      119.54 TCPU     3374.73
 TTTTTTTTTTTTTTTTTTTTTTTTTTTTTT MONMO3      TELAPSE      119.74 TCPU     3380.98
 NUMERICALLY INTEGRATED DENSITY    198.0000179843
 TTTTTTTTTTTTTTTTTTTTTTTTTTTTTT NUMDFT      TELAPSE      120.50 TCPU     3405.10
 CYC   6 ETOT(AU) -1.289117117347E+03 DETOT -1.38E-05 tst  1.77E-07 PX  1.20E-03
 TTTTTTTTTTTTTTTTTTTTTTTTTTTTTT DIIS        TELAPSE      120.57 TCPU     3407.64
 DIIS TEST: 0.28187E-04 AT SCF   CYCLE   6 - DIIS ACTIVE - HISTORY:     6 CYCLES
 TTTTTTTTTTTTTTTTTTTTTTTTTTTTTT FDIK        TELAPSE      121.13 TCPU     3425.31
 INSULATING STATE
 TOP OF VALENCE BANDS -    BAND     99; K   17; EIG -2.3638185E-01 AU
 TOP OF VALENCE BANDS -    BAND     99; K    1; EIG -2.4686153E-01 AU
 BOTTOM OF VIRTUAL BANDS - BAND    100; K   17; EIG -1.0398666E-01 AU
 DIRECT ENERGY BAND GAP:   3.6027 eV
 BOTTOM OF VIRTUAL BANDS - BAND    100; K    1; EIG -9.4389421E-02 AU
 TTTTTTTTTTTTTTTTTTTTTTTTTTTTTT PDIG        TELAPSE      121.47 TCPU     3431.49
 CHARGE NORMALIZATION FACTOR   1.00000000
 TOTAL ATOMIC CHARGES:
   4.4461449   4.4908775   4.4915056   4.4924014   4.4910062   4.4456220
   0.8706195   0.8707756   0.8816702   0.8819079   0.8622465   0.8618930
   0.8636879   0.8632776   0.8697906   0.8707215   0.8820396   0.8815883
   5.9279297   6.1725121   6.1721293   6.1670740   6.1669190   5.9275916
   5.9618910   6.1733015   6.1760307   6.1765092   6.1772568   5.9606604
   5.9281548   6.1710066   6.1722787   6.1673942   6.1673059   5.9284639
   8.4964040   8.4953559   8.5024587   8.4946526   8.5002045   8.4987390
 TTTTTTTTTTTTTTTTTTTTTTTTTTTTTT MOQGAD      TELAPSE      121.52 TCPU     3431.54
 TTTTTTTTTTTTTTTTTTTTTTTTTTTTTT SHELLXN     TELAPSE      135.08 TCPU     3864.00
 TTTTTTTTTTTTTTTTTTTTTTTTTTTTTT MONMO3      TELAPSE      135.27 TCPU     3870.13
 NUMERICALLY INTEGRATED DENSITY    198.0000179928
 TTTTTTTTTTTTTTTTTTTTTTTTTTTTTT NUMDFT      TELAPSE      136.03 TCPU     3894.52
 CYC   7 ETOT(AU) -1.289117123276E+03 DETOT -5.93E-06 tst  5.30E-08 PX  8.88E-04
 TTTTTTTTTTTTTTTTTTTTTTTTTTTTTT DIIS        TELAPSE      136.12 TCPU     3897.39
 DIIS TEST: 0.11223E-05 AT SCF   CYCLE   7 - DIIS ACTIVE - HISTORY:     7 CYCLES
 TTTTTTTTTTTTTTTTTTTTTTTTTTTTTT FDIK        TELAPSE      136.67 TCPU     3915.01
 INSULATING STATE
 TOP OF VALENCE BANDS -    BAND     99; K   17; EIG -2.3638101E-01 AU
 TOP OF VALENCE BANDS -    BAND     99; K    1; EIG -2.4686633E-01 AU
 BOTTOM OF VIRTUAL BANDS - BAND    100; K   17; EIG -1.0399077E-01 AU
 DIRECT ENERGY BAND GAP:   3.6025 eV
 BOTTOM OF VIRTUAL BANDS - BAND    100; K    1; EIG -9.4408410E-02 AU
 TTTTTTTTTTTTTTTTTTTTTTTTTTTTTT PDIG        TELAPSE      137.00 TCPU     3921.19
 CHARGE NORMALIZATION FACTOR   1.00000000
 TOTAL ATOMIC CHARGES:
   4.4460978   4.4909529   4.4915421   4.4924663   4.4911105   4.4456016
   0.8705843   0.8707485   0.8816625   0.8819069   0.8621675   0.8618943
   0.8636621   0.8632236   0.8697652   0.8706829   0.8819896   0.8816254
   5.9278175   6.1725639   6.1719491   6.1670138   6.1671245   5.9275797
   5.9620632   6.1737239   6.1756919   6.1763698   6.1774821   5.9604156
   5.9286146   6.1709952   6.1721624   6.1678393   6.1670095   5.9278822
   8.4962958   8.4954264   8.5025657   8.4944956   8.5004483   8.4987862
 TTTTTTTTTTTTTTTTTTTTTTTTTTTTTT MOQGAD      TELAPSE      137.06 TCPU     3921.25
 TTTTTTTTTTTTTTTTTTTTTTTTTTTTTT SHELLXN     TELAPSE      150.62 TCPU     4353.65
 TTTTTTTTTTTTTTTTTTTTTTTTTTTTTT MONMO3      TELAPSE      150.81 TCPU     4359.75
 NUMERICALLY INTEGRATED DENSITY    198.0000179908
 TTTTTTTTTTTTTTTTTTTTTTTTTTTTTT NUMDFT      TELAPSE      151.58 TCPU     4384.26
 CYC   8 ETOT(AU) -1.289117123169E+03 DETOT  1.07E-07 tst  9.53E-09 PX  1.44E-04
 TTTTTTTTTTTTTTTTTTTTTTTTTTTTTT DIIS        TELAPSE      151.67 TCPU     4387.28
 DIIS TEST: 0.39551E-06 AT SCF   CYCLE   8 - DIIS ACTIVE - HISTORY:     8 CYCLES
 TTTTTTTTTTTTTTTTTTTTTTTTTTTTTT FDIK        TELAPSE      152.21 TCPU     4404.47
 INSULATING STATE
 TOP OF VALENCE BANDS -    BAND     99; K   17; EIG -2.3638070E-01 AU
 TOP OF VALENCE BANDS -    BAND     99; K    1; EIG -2.4686207E-01 AU
 BOTTOM OF VIRTUAL BANDS - BAND    100; K   17; EIG -1.0399328E-01 AU
 DIRECT ENERGY BAND GAP:   3.6024 eV
 BOTTOM OF VIRTUAL BANDS - BAND    100; K    1; EIG -9.4408474E-02 AU
 TTTTTTTTTTTTTTTTTTTTTTTTTTTTTT PDIG        TELAPSE      152.55 TCPU     4410.66
 CHARGE NORMALIZATION FACTOR   1.00000000
 TOTAL ATOMIC CHARGES:
   4.4461414   4.4909258   4.4915303   4.4924429   4.4910696   4.4456339
   0.8705769   0.8707416   0.8816619   0.8819105   0.8621916   0.8618753
   0.8636543   0.8632372   0.8697581   0.8706755   0.8820080   0.8816106
   5.9278731   6.1725243   6.1720105   6.1670920   6.1670248   5.9275252
   5.9620318   6.1734796   6.1758622   6.1764397   6.1773283   5.9605842
   5.9283525   6.1709577   6.1722255   6.1676672   6.1671563   5.9281429
   8.4963143   8.4953324   8.5026874   8.4945205   8.5005089   8.4987129
 TTTTTTTTTTTTTTTTTTTTTTTTTTTTTT MOQGAD      TELAPSE      152.60 TCPU     4410.71
 TTTTTTTTTTTTTTTTTTTTTTTTTTTTTT SHELLXN     TELAPSE      166.11 TCPU     4841.67
 +++ ENERGIES IN A.U. +++
 ::: EXT EL-POLE                                  -1.6816512375155E+03
 ::: EXT EL-SPHEROPOLE                             1.8481333768241E+01
 ::: BIELET ZONE E-E                               2.4126435069701E+03
 ::: TOTAL E-E                                     7.4947360322283E+02
 ::: TOTAL E-N + N-E                              -3.3202433440127E+03
 ::: TOTAL N-N                                     1.3539671780910E+02
 ::: KINETIC ENERGY                                1.2800002705494E+03
 ::: PSEUDO TOTAL   ENERGY                        -1.1553727524314E+03
 ::: VIRIAL COEFFICIENT                            1.0511738928460E+00
 TTTTTTTTTTTTTTTTTTTTTTTTTTTTTT MONMO3      TELAPSE      166.30 TCPU     4847.65
 NUMERICALLY INTEGRATED DENSITY    198.0000179900
 EXCHANGE ENERGY: -0.126028901881E+03  CORRELATION ENERGY: -0.771546892824E+01
 TTTTTTTTTTTTTTTTTTTTTTTTTTTTTT NUMDFT      TELAPSE      167.08 TCPU     4872.57
 CYC   9 ETOT(AU) -1.289117123240E+03 DETOT -7.13E-08 tst  2.14E-09 PX  1.44E-04

 == SCF ENDED - CONVERGENCE ON ENERGY      E(AU) -1.2891171232402E+03 CYCLES   9


 ENERGY EXPRESSION=HARTREE+FOCK EXCH*0.00000+(HSESOL     EXCH)*1.00000+PBESOL     CORR


 TOTAL ENERGY(DFT)(AU)(  9) -1.2891171232402E+03 DE-7.1E-08 tester 2.1E-09
 TTTTTTTTTTTTTTTTTTTTTTTTTTTTTT EDFT        TELAPSE      167.08 TCPU     4872.59
 
 INFORMATION **** DFTD3 ENERGY **** CALCULATE DFTD3 ENERGY

           DFT-D V3(BJ)
 DF                                         hsesol3c  
 parameters
 s6       :    1.0000
 s8       :    0.0000
 a1       :    0.5196
 a2       :    4.9385
 k1 k3    :   16.0000   -4.0000
 Cutoff   :   50.2022
 CN-Cutoff:   21.1671
 ABC-Cutoff:   21.1671
 
 Edisp /kcal,au:   -31.5198 -0.05022993

 E6    /kcal :   -33.6618
 E8    /kcal :     0.0000
 E6(ABC) "   :   2.142084
 
 INFORMATION **** DFTD3 ENERGY **** NORMAL TERMINATION OF DFTD3 MODULE

 GCP ENERGY CALCULATION
  level        hsesol3c            basis:hsesol3c
  Nbf            474
  Atoms           42

  Parameters: 
  sigma     1.0000
  eta       1.4281
  alpha     0.2936
  beta      1.9467

  dmp_scal      4.0000
  dmp_exp       6.0000
 cutoffs: 
   distance [bohr] 60.0
   noise    [a.u.] 2.2E-16
 SR-damping   T
 ** gCP correction **
  Egcp:        0.0857523278 / (a.u.) ||      53.8104 / (kcal/mol)
 INFORMATION **** GCP **** NORMAL TERMINATION OF GCP MODULE

 *******************************************************************************

 DFT-D3-GCP DISPERSION AND COUNTERPOISE CORRECTION

 D3 DISPERSION ENERGY (AU)      -5.0229933048561E-02
 GCP ENERGY (AU)                 8.5752327796287E-02
 TOTAL ENERGY + DISP + GCP (AU) -1.2890816008455E+03

 *******************************************************************************

 EIGENVECTORS IN FORTRAN UNIT 10
 TTTTTTTTTTTTTTTTTTTTTTTTTTTTTT END         TELAPSE      169.08 TCPU     4880.55
 EEEEEEEEEE TERMINATION  DATE 02 12 2025 TIME 07:58:19.2
