 Default number of threads is:           32

         
 *******************************************************************************
 *                                                                             *
 *                               CRYSTAL23                                     *
 *                      public : 1.0.1 - October 2022                          *
 *                       HTTP://WWW.CRYSTAL.UNITO.IT                           *
 *                                                                             *
 *                              MAIN AUTHORS                                   *
 *                                                                             *
 *  R. DOVESI(1,11), V.R. SAUNDERS(2), C. ROETTI(1,11), R. ORLANDO(1,11),      *
 *  C.M. ZICOVICH-WILSON(1,3), F. PASCALE(4), B. CIVALLERI(1,11),              *
 *  K. DOLL(5), N.M. HARRISON(6), I.J. BUSH(7), Ph. D'ARCO(8),                 *
 *  M. LLUNELL(9), M. CAUSA'(10), Y. NOEL(8), L. MASCHIO(1,11), A. ERBA(1,11)  *
 *  M. RE'RAT(14), S. CASASSA(1,11), B.G. SEARLE(2), J.K. DESMARAIS(1)         *
 *                                                                             *
 *        CONTRIBUTIONS TO THE CODE HAVE ALSO BEEN GIVEN BY                    *
 *                                                                             *
 *  M. FERRABONE(1,11), M. DE LA PIERRE(1,11), M. FERRERO(1,11),               *
 *  J. BAIMA(1,11), E. ALBANESE(1,11), M.F. PEINTINGER(12), R. BAST(13),       *
 *  B. KIRTMAN(15), V. LACIVITA(1,11), R. DEMICHELIS(1,16)                     *
 *  G. BRANDEBURG(17), S. SALUSTRO(1,11), G. SANSONE(1,11)                     *
 *  M.T. RUGGIERO(18), L.E. DAGA(1), L. DONA'(1), A. COSSARD(1)                *
 *                                                                             *
 * (1) THEORETICAL CHEMISTRY GROUP - UNIVERSITA' DI TORINO - TORINO (ITALY)    *
 * (2) SCIENTIFIC COMPUTING DEPARTMENT - STFC DARESBURY (UK)                   *
 * (3) UNIVERSIDAD AUTONOMA DEL ESTADO DE MORELOS - CUERNAVACA (MEXICO)        *
 * (4) UNIVERSITE' DE LORRAINE - NANCY (FRANCE)                                *
 * (5) UNIVERSITAET STUTTGART- STUTTGART (GERMANY)                             *
 * (6) IMPERIAL COLLEGE - LONDON (UK)                                          *
 * (7) SCIENTIFIC COMPUTING DEPARTMENT - STFC RAL (UK)                         *
 * (8) UPMC - SORBONNE UNIVERSITES - PARIS (FRANCE)                            *
 * (9) UNIVERSIDAD DE BARCELONA - BARCELONA (SPAIN)                            *
 *(10) UNIVERSITA' DI NAPOLI "FEDERICO II" - NAPOLI (ITALY)                    *
 *(11) NIS - NANOSTRUCTURED INTERFACES AND SURFACES - TORINO (ITALY)           *
 *(12) MPI FUER CHEMISCHE ENERGIEKONVERSION - MUELHEIM AN DER RUHR (GERMANY)   *
 *(13) UNIVERSITY OF TROMSO - TROMSO (NORWAY)                                  *
 *(14) UNIVERSITE' DE PAU ET DES PAYS DE L'ADOUR - PAU (FRANCE)                *
 *(15) UNIVERSITY OF CALIFORNIA SANTA BARBARA - SANTA BARBARA (USA)            *
 *(16) CURTIN UNIVERSITY - PERTH (AUSTRALIA)                                   *
 *(17) UNIVERSITY COLLEGE LONDON - LONDON (UK)                                 *
 *(18) UNIVERSITY OF VERMONT - BURLINGTON (USA)                                *
 *                                                                             *
 *******************************************************************************
 EEEEEEEEEE STARTING  DATE 19 02 2026 TIME 20:13:39.6
 cof-1_z36_L030_serr                                                             

 CRYSTAL CALCULATION
 (INPUT ACCORDING TO THE INTERNATIONAL TABLES FOR X-RAY CRYSTALLOGRAPHY)
 CRYSTAL FAMILY                       :  TRICLINIC   
 CRYSTAL CLASS  (GROTH - 1921)        :  TRICLINIC PEDIAL                     

 SPACE GROUP (NONCENTROSYMMETRIC)     :  P 1             

 LATTICE PARAMETERS  (ANGSTROMS AND DEGREES) - CONVENTIONAL CELL
        A           B           C        ALPHA        BETA       GAMMA
    15.02361    15.02392     7.20000    90.00032    89.99994   119.99596


 NUMBER OF IRREDUCIBLE ATOMS IN THE CONVENTIONAL CELL:   84

 INPUT COORDINATES

 ATOM AT. N.              COORDINATES
   1   5     6.136805400000E-01  2.273182200000E-01  2.506634300000E-01
   2   5     7.289503700000E-01  4.578813200000E-01  7.506634300000E-01
   3   5     7.727362000000E-01  3.863778800000E-01  2.506634400000E-01
   4   5     8.880060300000E-01  6.169409800000E-01  7.506634500000E-01
   5   5     6.136762700000E-01  3.863606700000E-01  2.492685600000E-01
   6   5     7.289461000000E-01  6.169237700000E-01  7.492685600000E-01
   7   5     2.272552500000E-01  6.136332200000E-01  2.506634400000E-01
   8   5     3.425250800000E-01  8.441963200000E-01  7.506634400000E-01
   9   5     3.863632200000E-01  6.136124500000E-01  2.506634300000E-01
  10   5     5.016330500000E-01  8.441755500000E-01  7.506634300000E-01
  11   5     3.863435000000E-01  7.727516500000E-01  2.492685600000E-01
  12   5     5.016133300000E-01  3.314750000000E-03  7.492685600000E-01
  13   1     9.030436200000E-01  3.089300500000E-01  2.477715600000E-01
  14   1     1.831345000000E-02  5.394931500000E-01  7.477715600000E-01
  15   1     9.663453000000E-02  6.910534400000E-01  2.473293400000E-01
  16   1     2.119043600000E-01  9.216165400000E-01  7.473293400000E-01
  17   1     9.029714200000E-01  5.940724300000E-01  2.472612800000E-01
  18   1     1.824125000000E-02  8.246355300000E-01  7.472612800000E-01
  19   1     9.673618000000E-02  4.056849400000E-01  2.472782600000E-01
  20   1     2.120060100000E-01  6.362480400000E-01  7.472782600000E-01
  21   1     6.910324000000E-01  9.700412000000E-02  2.522284600000E-01
  22   1     8.063022300000E-01  3.275672200000E-01  7.522284600000E-01
  23   1     3.089297200000E-01  9.034373100000E-01  2.526707100000E-01
  24   1     4.241995500000E-01  1.340004100000E-01  7.526707100000E-01
  25   1     4.058699900000E-01  9.704998000000E-02  2.527388100000E-01
  26   1     5.211398200000E-01  3.276130800000E-01  7.527388100000E-01
  27   1     5.943122100000E-01  9.033473200000E-01  2.527217200000E-01
  28   1     7.095820400000E-01  1.339104200000E-01  7.527217200000E-01
  29   1     6.910727400000E-01  5.940542100000E-01  2.477715900000E-01
  30   1     8.063425700000E-01  8.246173100000E-01  7.477715900000E-01
  31   1     3.089618300000E-01  4.056093300000E-01  2.473293200000E-01
  32   1     4.242316600000E-01  6.361724300000E-01  7.473293200000E-01
  33   1     4.058405700000E-01  3.088232500000E-01  2.472612300000E-01
  34   1     5.211104000000E-01  5.393863500000E-01  7.472612300000E-01
  35   1     5.942908800000E-01  6.909579300000E-01  2.472783100000E-01
  36   1     7.095607100000E-01  9.215210300000E-01  7.472783100000E-01
  37   6     8.918903100000E-01  4.459436900000E-01  2.492175200000E-01
  38   6     7.160140000000E-03  6.765067900000E-01  7.492175200000E-01
  39   6     9.464891100000E-01  3.927856300000E-01  2.478396100000E-01
  40   6     6.175894000000E-02  6.233487300000E-01  7.478396100000E-01
  41   6     5.338812000000E-02  6.071853000000E-01  2.477205800000E-01
  42   6     1.686579500000E-01  8.377484000000E-01  7.477205800000E-01
  43   6     9.464521100000E-01  5.536921900000E-01  2.480778100000E-01
  44   6     6.172194000000E-02  7.842552900000E-01  7.480778100000E-01
  45   6     5.342634000000E-02  4.462499700000E-01  2.471591800000E-01
  46   6     1.686961700000E-01  6.768130700000E-01  7.471591800000E-01
  47   6     1.080358900000E-01  5.540356300000E-01  2.480948000000E-01
  48   6     2.233057200000E-01  7.845987300000E-01  7.480948000000E-01
  49   6     5.540394200000E-01  1.081684600000E-01  2.507825200000E-01
  50   6     6.693092500000E-01  3.387315600000E-01  7.507825200000E-01
  51   6     6.071778500000E-01  5.355594000000E-02  2.521604000000E-01
  52   6     7.224476800000E-01  2.841190400000E-01  7.521604000000E-01
  53   6     3.927986700000E-01  9.466631600000E-01  2.522794700000E-01
  54   6     5.080685000000E-01  1.772262600000E-01  7.522794800000E-01
  55   6     4.462875800000E-01  5.360286000000E-02  2.519222600000E-01
  56   6     5.615574100000E-01  2.841659600000E-01  7.519222600000E-01
  57   6     5.537168500000E-01  9.466235600000E-01  2.528408200000E-01
  58   6     6.689866800000E-01  1.771866600000E-01  7.528408200000E-01
  59   6     4.459279100000E-01  8.919920600000E-01  2.519052300000E-01
  60   6     5.611977400000E-01  1.225551600000E-01  7.519052300000E-01
  61   6     5.540448700000E-01  4.458745500000E-01  2.492175200000E-01
  62   6     6.693147000000E-01  6.764376500000E-01  7.492175200000E-01
  63   6     6.072102200000E-01  5.536257800000E-01  2.478396400000E-01
  64   6     7.224800500000E-01  7.841888800000E-01  7.478396400000E-01
  65   6     3.928233700000E-01  4.461720300000E-01  2.477205500000E-01
  66   6     5.080932000000E-01  6.767351300000E-01  7.477205500000E-01
  67   6     4.462872600000E-01  3.926899900000E-01  2.480777700000E-01
  68   6     5.615570900000E-01  6.232530900000E-01  7.480777700000E-01
  69   6     5.537429600000E-01  6.070980000000E-01  2.471592200000E-01
  70   6     6.690127900000E-01  8.376611000000E-01  7.471592200000E-01
  71   6     4.459599800000E-01  5.539582300000E-01  2.480948000000E-01
  72   6     5.612298100000E-01  7.845213300000E-01  7.480948000000E-01
  73   8     5.607366800000E-01  2.803706300000E-01  2.496427900000E-01
  74   8     6.760065100000E-01  5.109337300000E-01  7.496427900000E-01
  75   8     7.196817000000E-01  2.803783300000E-01  2.525856600000E-01
  76   8     8.349515300000E-01  5.109414300000E-01  7.525856600000E-01
  77   8     7.196794200000E-01  4.393234600000E-01  2.481458500000E-01
  78   8     8.349492500000E-01  6.698865600000E-01  7.481458500000E-01
  79   8     2.803245100000E-01  7.196511100000E-01  2.496428000000E-01
  80   8     3.955943400000E-01  9.502142100000E-01  7.496428000000E-01
  81   8     2.803439700000E-01  5.606956100000E-01  2.525856600000E-01
  82   8     3.956138000000E-01  7.912587100000E-01  7.525856600000E-01
  83   8     4.392638400000E-01  7.196354200000E-01  2.481458400000E-01
  84   8     5.545336700000E-01  9.501985200000E-01  7.481458400000E-01

 *******************************************************************************

 << INFORMATION >>: FROM NOW ON, ALL COORDINATES REFER TO THE PRIMITIVE CELL

 *******************************************************************************

 LATTICE PARAMETERS  (ANGSTROMS AND DEGREES) - PRIMITIVE CELL
       A          B          C        ALPHA      BETA     GAMMA        VOLUME
   15.02361   15.02392    7.20000    90.00032  89.99994 119.99596   1407.467146

 COORDINATES OF THE EQUIVALENT ATOMS (FRACTIONAL UNITS)

 N. ATOM EQUIV AT. N.          X                  Y                  Z

   1   1   1    5 B    -3.86319460000E-01  2.27318220000E-01  2.50663430000E-01

   2   2   1    5 B    -2.71049630000E-01  4.57881320000E-01 -2.49336570000E-01

   3   3   1    5 B    -2.27263800000E-01  3.86377880000E-01  2.50663440000E-01

   4   4   1    5 B    -1.11993970000E-01 -3.83059020000E-01 -2.49336550000E-01

   5   5   1    5 B    -3.86323730000E-01  3.86360670000E-01  2.49268560000E-01

   6   6   1    5 B    -2.71053900000E-01 -3.83076230000E-01 -2.50731440000E-01

   7   7   1    5 B     2.27255250000E-01 -3.86366780000E-01  2.50663440000E-01

   8   8   1    5 B     3.42525080000E-01 -1.55803680000E-01 -2.49336560000E-01

   9   9   1    5 B     3.86363220000E-01 -3.86387550000E-01  2.50663430000E-01

  10  10   1    5 B    -4.98366950000E-01 -1.55824450000E-01 -2.49336570000E-01

  11  11   1    5 B     3.86343500000E-01 -2.27248350000E-01  2.49268560000E-01

  12  12   1    5 B    -4.98386670000E-01  3.31475000000E-03 -2.50731440000E-01

  13  13   1    1 H    -9.69563800000E-02  3.08930050000E-01  2.47771560000E-01

  14  14   1    1 H     1.83134500000E-02 -4.60506850000E-01 -2.52228440000E-01

  15  15   1    1 H     9.66345300000E-02 -3.08946560000E-01  2.47329340000E-01

  16  16   1    1 H     2.11904360000E-01 -7.83834600000E-02 -2.52670660000E-01

  17  17   1    1 H    -9.70285800000E-02 -4.05927570000E-01  2.47261280000E-01

  18  18   1    1 H     1.82412500000E-02 -1.75364470000E-01 -2.52738720000E-01

  19  19   1    1 H     9.67361800000E-02  4.05684940000E-01  2.47278260000E-01

  20  20   1    1 H     2.12006010000E-01 -3.63751960000E-01 -2.52721740000E-01

  21  21   1    1 H    -3.08967600000E-01  9.70041200000E-02  2.52228460000E-01

  22  22   1    1 H    -1.93697770000E-01  3.27567220000E-01 -2.47771540000E-01

  23  23   1    1 H     3.08929720000E-01 -9.65626900000E-02  2.52670710000E-01

  24  24   1    1 H     4.24199550000E-01  1.34000410000E-01 -2.47329290000E-01

  25  25   1    1 H     4.05869990000E-01  9.70499800000E-02  2.52738810000E-01

  26  26   1    1 H    -4.78860180000E-01  3.27613080000E-01 -2.47261190000E-01

  27  27   1    1 H    -4.05687790000E-01 -9.66526800000E-02  2.52721720000E-01

  28  28   1    1 H    -2.90417960000E-01  1.33910420000E-01 -2.47278280000E-01

  29  29   1    1 H    -3.08927260000E-01 -4.05945790000E-01  2.47771590000E-01

  30  30   1    1 H    -1.93657430000E-01 -1.75382690000E-01 -2.52228410000E-01

  31  31   1    1 H     3.08961830000E-01  4.05609330000E-01  2.47329320000E-01

  32  32   1    1 H     4.24231660000E-01 -3.63827570000E-01 -2.52670680000E-01

  33  33   1    1 H     4.05840570000E-01  3.08823250000E-01  2.47261230000E-01

  34  34   1    1 H    -4.78889600000E-01 -4.60613650000E-01 -2.52738770000E-01

  35  35   1    1 H    -4.05709120000E-01 -3.09042070000E-01  2.47278310000E-01

  36  36   1    1 H    -2.90439290000E-01 -7.84789700000E-02 -2.52721690000E-01

  37  37   1    6 C    -1.08109690000E-01  4.45943690000E-01  2.49217520000E-01

  38  38   1    6 C     7.16014000000E-03 -3.23493210000E-01 -2.50782480000E-01

  39  39   1    6 C    -5.35108900000E-02  3.92785630000E-01  2.47839610000E-01

  40  40   1    6 C     6.17589400000E-02 -3.76651270000E-01 -2.52160390000E-01

  41  41   1    6 C     5.33881200000E-02 -3.92814700000E-01  2.47720580000E-01

  42  42   1    6 C     1.68657950000E-01 -1.62251600000E-01 -2.52279420000E-01

  43  43   1    6 C    -5.35478900000E-02 -4.46307810000E-01  2.48077810000E-01

  44  44   1    6 C     6.17219400000E-02 -2.15744710000E-01 -2.51922190000E-01

  45  45   1    6 C     5.34263400000E-02  4.46249970000E-01  2.47159180000E-01

  46  46   1    6 C     1.68696170000E-01 -3.23186930000E-01 -2.52840820000E-01

  47  47   1    6 C     1.08035890000E-01 -4.45964370000E-01  2.48094800000E-01

  48  48   1    6 C     2.23305720000E-01 -2.15401270000E-01 -2.51905200000E-01

  49  49   1    6 C    -4.45960580000E-01  1.08168460000E-01  2.50782520000E-01

  50  50   1    6 C    -3.30690750000E-01  3.38731560000E-01 -2.49217480000E-01

  51  51   1    6 C    -3.92822150000E-01  5.35559400000E-02  2.52160400000E-01

  52  52   1    6 C    -2.77552320000E-01  2.84119040000E-01 -2.47839600000E-01

  53  53   1    6 C     3.92798670000E-01 -5.33368400000E-02  2.52279470000E-01

  54  54   1    6 C    -4.91931500000E-01  1.77226260000E-01 -2.47720520000E-01

  55  55   1    6 C     4.46287580000E-01  5.36028600000E-02  2.51922260000E-01

  56  56   1    6 C    -4.38442590000E-01  2.84165960000E-01 -2.48077740000E-01

  57  57   1    6 C    -4.46283150000E-01 -5.33764400000E-02  2.52840820000E-01

  58  58   1    6 C    -3.31013320000E-01  1.77186660000E-01 -2.47159180000E-01

  59  59   1    6 C     4.45927910000E-01 -1.08007940000E-01  2.51905230000E-01

  60  60   1    6 C    -4.38802260000E-01  1.22555160000E-01 -2.48094770000E-01

  61  61   1    6 C    -4.45955130000E-01  4.45874550000E-01  2.49217520000E-01

  62  62   1    6 C    -3.30685300000E-01 -3.23562350000E-01 -2.50782480000E-01

  63  63   1    6 C    -3.92789780000E-01 -4.46374220000E-01  2.47839640000E-01

  64  64   1    6 C    -2.77519950000E-01 -2.15811120000E-01 -2.52160360000E-01

  65  65   1    6 C     3.92823370000E-01  4.46172030000E-01  2.47720550000E-01

  66  66   1    6 C    -4.91906800000E-01 -3.23264870000E-01 -2.52279450000E-01

  67  67   1    6 C     4.46287260000E-01  3.92689990000E-01  2.48077770000E-01

  68  68   1    6 C    -4.38442910000E-01 -3.76746910000E-01 -2.51922230000E-01

  69  69   1    6 C    -4.46257040000E-01 -3.92902000000E-01  2.47159220000E-01

  70  70   1    6 C    -3.30987210000E-01 -1.62338900000E-01 -2.52840780000E-01

  71  71   1    6 C     4.45959980000E-01 -4.46041770000E-01  2.48094800000E-01

  72  72   1    6 C    -4.38770190000E-01 -2.15478670000E-01 -2.51905200000E-01

  73  73   1    8 O    -4.39263320000E-01  2.80370630000E-01  2.49642790000E-01

  74  74   1    8 O    -3.23993490000E-01 -4.89066270000E-01 -2.50357210000E-01

  75  75   1    8 O    -2.80318300000E-01  2.80378330000E-01  2.52585660000E-01

  76  76   1    8 O    -1.65048470000E-01 -4.89058570000E-01 -2.47414340000E-01

  77  77   1    8 O    -2.80320580000E-01  4.39323460000E-01  2.48145850000E-01

  78  78   1    8 O    -1.65050750000E-01 -3.30113440000E-01 -2.51854150000E-01

  79  79   1    8 O     2.80324510000E-01 -2.80348890000E-01  2.49642800000E-01

  80  80   1    8 O     3.95594340000E-01 -4.97857900000E-02 -2.50357200000E-01

  81  81   1    8 O     2.80343970000E-01 -4.39304390000E-01  2.52585660000E-01

  82  82   1    8 O     3.95613800000E-01 -2.08741290000E-01 -2.47414340000E-01

  83  83   1    8 O     4.39263840000E-01 -2.80364580000E-01  2.48145840000E-01

  84  84   1    8 O    -4.45466330000E-01 -4.98014800000E-02 -2.51854160000E-01

 NUMBER OF SYMMETRY OPERATORS         :    1
 *******************************************************************************
 * GEOMETRY EDITING - INPUT COORDINATES ARE GIVEN IN ANGSTROM         
 *******************************************************************************

 GCALCO - MAX INDICES DIRECT LATTICE VECTOR    12    12    21
 NO.OF VECTORS CREATED 6999 STARS 3500 RMAX   251.34433 BOHR

 GEOMETRY FOR WAVE FUNCTION - DIMENSIONALITY OF THE SYSTEM    3
 (NON PERIODIC DIRECTION: LATTICE PARAMETER FORMALLY SET TO 500)
 *******************************************************************************
 LATTICE PARAMETERS (ANGSTROMS AND DEGREES) - BOHR = 0.5291772083 ANGSTROM
 PRIMITIVE CELL - CENTRING CODE 1/0 VOLUME=  1407.467146 - DENSITY  0.921 g/cm^3
         A              B              C           ALPHA      BETA       GAMMA 
    15.02361100    15.02391600     7.20000000    90.000323  89.999944 119.995964
 *******************************************************************************
 ATOMS IN THE ASYMMETRIC UNIT   84 - ATOMS IN THE UNIT CELL:   84
     ATOM                 X/A                 Y/B                 Z/C    
 *******************************************************************************
      1 T   5 B    -3.863194600000E-01  2.273182200000E-01  2.506634300000E-01
      2 T   5 B    -2.710496300000E-01  4.578813200000E-01 -2.493365700000E-01
      3 T   5 B    -2.272638000000E-01  3.863778800000E-01  2.506634400000E-01
      4 T   5 B    -1.119939700000E-01 -3.830590200000E-01 -2.493365500000E-01
      5 T   5 B    -3.863237300000E-01  3.863606700000E-01  2.492685600000E-01
      6 T   5 B    -2.710539000000E-01 -3.830762300000E-01 -2.507314400000E-01
      7 T   5 B     2.272552500000E-01 -3.863667800000E-01  2.506634400000E-01
      8 T   5 B     3.425250800000E-01 -1.558036800000E-01 -2.493365600000E-01
      9 T   5 B     3.863632200000E-01 -3.863875500000E-01  2.506634300000E-01
     10 T   5 B    -4.983669500000E-01 -1.558244500000E-01 -2.493365700000E-01
     11 T   5 B     3.863435000000E-01 -2.272483500000E-01  2.492685600000E-01
     12 T   5 B    -4.983866700000E-01  3.314750000000E-03 -2.507314400000E-01
     13 T   1 H    -9.695638000000E-02  3.089300500000E-01  2.477715600000E-01
     14 T   1 H     1.831345000000E-02 -4.605068500000E-01 -2.522284400000E-01
     15 T   1 H     9.663453000000E-02 -3.089465600000E-01  2.473293400000E-01
     16 T   1 H     2.119043600000E-01 -7.838346000000E-02 -2.526706600000E-01
     17 T   1 H    -9.702858000000E-02 -4.059275700000E-01  2.472612800000E-01
     18 T   1 H     1.824125000000E-02 -1.753644700000E-01 -2.527387200000E-01
     19 T   1 H     9.673618000000E-02  4.056849400000E-01  2.472782600000E-01
     20 T   1 H     2.120060100000E-01 -3.637519600000E-01 -2.527217400000E-01
     21 T   1 H    -3.089676000000E-01  9.700412000000E-02  2.522284600000E-01
     22 T   1 H    -1.936977700000E-01  3.275672200000E-01 -2.477715400000E-01
     23 T   1 H     3.089297200000E-01 -9.656269000000E-02  2.526707100000E-01
     24 T   1 H     4.241995500000E-01  1.340004100000E-01 -2.473292900000E-01
     25 T   1 H     4.058699900000E-01  9.704998000000E-02  2.527388100000E-01
     26 T   1 H    -4.788601800000E-01  3.276130800000E-01 -2.472611900000E-01
     27 T   1 H    -4.056877900000E-01 -9.665268000000E-02  2.527217200000E-01
     28 T   1 H    -2.904179600000E-01  1.339104200000E-01 -2.472782800000E-01
     29 T   1 H    -3.089272600000E-01 -4.059457900000E-01  2.477715900000E-01
     30 T   1 H    -1.936574300000E-01 -1.753826900000E-01 -2.522284100000E-01
     31 T   1 H     3.089618300000E-01  4.056093300000E-01  2.473293200000E-01
     32 T   1 H     4.242316600000E-01 -3.638275700000E-01 -2.526706800000E-01
     33 T   1 H     4.058405700000E-01  3.088232500000E-01  2.472612300000E-01
     34 T   1 H    -4.788896000000E-01 -4.606136500000E-01 -2.527387700000E-01
     35 T   1 H    -4.057091200000E-01 -3.090420700000E-01  2.472783100000E-01
     36 T   1 H    -2.904392900000E-01 -7.847897000000E-02 -2.527216900000E-01
     37 T   6 C    -1.081096900000E-01  4.459436900000E-01  2.492175200000E-01
     38 T   6 C     7.160140000000E-03 -3.234932100000E-01 -2.507824800000E-01
     39 T   6 C    -5.351089000000E-02  3.927856300000E-01  2.478396100000E-01
     40 T   6 C     6.175894000000E-02 -3.766512700000E-01 -2.521603900000E-01
     41 T   6 C     5.338812000000E-02 -3.928147000000E-01  2.477205800000E-01
     42 T   6 C     1.686579500000E-01 -1.622516000000E-01 -2.522794200000E-01
     43 T   6 C    -5.354789000000E-02 -4.463078100000E-01  2.480778100000E-01
     44 T   6 C     6.172194000000E-02 -2.157447100000E-01 -2.519221900000E-01
     45 T   6 C     5.342634000000E-02  4.462499700000E-01  2.471591800000E-01
     46 T   6 C     1.686961700000E-01 -3.231869300000E-01 -2.528408200000E-01
     47 T   6 C     1.080358900000E-01 -4.459643700000E-01  2.480948000000E-01
     48 T   6 C     2.233057200000E-01 -2.154012700000E-01 -2.519052000000E-01
     49 T   6 C    -4.459605800000E-01  1.081684600000E-01  2.507825200000E-01
     50 T   6 C    -3.306907500000E-01  3.387315600000E-01 -2.492174800000E-01
     51 T   6 C    -3.928221500000E-01  5.355594000000E-02  2.521604000000E-01
     52 T   6 C    -2.775523200000E-01  2.841190400000E-01 -2.478396000000E-01
     53 T   6 C     3.927986700000E-01 -5.333684000000E-02  2.522794700000E-01
     54 T   6 C    -4.919315000000E-01  1.772262600000E-01 -2.477205200000E-01
     55 T   6 C     4.462875800000E-01  5.360286000000E-02  2.519222600000E-01
     56 T   6 C    -4.384425900000E-01  2.841659600000E-01 -2.480777400000E-01
     57 T   6 C    -4.462831500000E-01 -5.337644000000E-02  2.528408200000E-01
     58 T   6 C    -3.310133200000E-01  1.771866600000E-01 -2.471591800000E-01
     59 T   6 C     4.459279100000E-01 -1.080079400000E-01  2.519052300000E-01
     60 T   6 C    -4.388022600000E-01  1.225551600000E-01 -2.480947700000E-01
     61 T   6 C    -4.459551300000E-01  4.458745500000E-01  2.492175200000E-01
     62 T   6 C    -3.306853000000E-01 -3.235623500000E-01 -2.507824800000E-01
     63 T   6 C    -3.927897800000E-01 -4.463742200000E-01  2.478396400000E-01
     64 T   6 C    -2.775199500000E-01 -2.158111200000E-01 -2.521603600000E-01
     65 T   6 C     3.928233700000E-01  4.461720300000E-01  2.477205500000E-01
     66 T   6 C    -4.919068000000E-01 -3.232648700000E-01 -2.522794500000E-01
     67 T   6 C     4.462872600000E-01  3.926899900000E-01  2.480777700000E-01
     68 T   6 C    -4.384429100000E-01 -3.767469100000E-01 -2.519222300000E-01
     69 T   6 C    -4.462570400000E-01 -3.929020000000E-01  2.471592200000E-01
     70 T   6 C    -3.309872100000E-01 -1.623389000000E-01 -2.528407800000E-01
     71 T   6 C     4.459599800000E-01 -4.460417700000E-01  2.480948000000E-01
     72 T   6 C    -4.387701900000E-01 -2.154786700000E-01 -2.519052000000E-01
     73 T   8 O    -4.392633200000E-01  2.803706300000E-01  2.496427900000E-01
     74 T   8 O    -3.239934900000E-01 -4.890662700000E-01 -2.503572100000E-01
     75 T   8 O    -2.803183000000E-01  2.803783300000E-01  2.525856600000E-01
     76 T   8 O    -1.650484700000E-01 -4.890585700000E-01 -2.474143400000E-01
     77 T   8 O    -2.803205800000E-01  4.393234600000E-01  2.481458500000E-01
     78 T   8 O    -1.650507500000E-01 -3.301134400000E-01 -2.518541500000E-01
     79 T   8 O     2.803245100000E-01 -2.803488900000E-01  2.496428000000E-01
     80 T   8 O     3.955943400000E-01 -4.978579000000E-02 -2.503572000000E-01
     81 T   8 O     2.803439700000E-01 -4.393043900000E-01  2.525856600000E-01
     82 T   8 O     3.956138000000E-01 -2.087412900000E-01 -2.474143400000E-01
     83 T   8 O     4.392638400000E-01 -2.803645800000E-01  2.481458400000E-01
     84 T   8 O    -4.454663300000E-01 -4.980148000000E-02 -2.518541600000E-01

 T = ATOM BELONGING TO THE ASYMMETRIC UNIT

 ****    1 SYMMOPS - TRANSLATORS IN FRACTIONAL UNITS
 **** MATRICES AND TRANSLATORS IN THE CRYSTALLOGRAPHIC REFERENCE FRAME
   V INV                    ROTATION MATRICES                   TRANSLATORS
   1   1  1.00 -0.00  0.00  0.00  1.00  0.00  0.00  0.00  1.00  0.00  0.00  0.00

 DIRECT LATTICE VECTORS CARTESIAN COMPONENTS (ANGSTROM)
          X                    Y                    Z
   0.130113578931E+02  -0.751088897922E+01   0.000000000000E+00
   0.000000000000E+00   0.150239160000E+02   0.000000000000E+00
  -0.153049849927E-04  -0.405893770827E-04   0.719999999987E+01


 CARTESIAN COORDINATES - PRIMITIVE CELL
 *******************************************************************************
 *      ATOM          X(ANGSTROM)         Y(ANGSTROM)         Z(ANGSTROM)
 *******************************************************************************
    1     5 B    -5.026544591512E+00  6.316802242848E+00  1.804776695967E+00
    2     5 B    -3.526719926618E+00 -6.108911711147E+00 -1.795223303967E+00
    3     5 B    -2.957014474336E+00  7.511851809900E+00  1.804776767967E+00
    4     5 B    -1.457189809442E+00 -4.913862144095E+00 -1.795223159967E+00
    5     5 B    -5.026600128662E+00 -6.317641219805E+00  1.794733631967E+00
    6     5 B    -3.526775463768E+00 -3.719439173800E+00 -1.805266367967E+00
    7     5 B     2.956895554426E+00 -7.511641174877E+00  1.804776767967E+00
    8     5 B     4.456720219320E+00 -4.913439128872E+00 -1.795223231967E+00
    9     5 B     5.027106295734E+00  6.316920480009E+00  1.804776695967E+00
   10     5 B    -6.484426932429E+00  1.402095505231E+00 -1.795223303967E+00
   11     5 B     5.026849733105E+00 -6.315953375536E+00  1.794733631967E+00
   12     5 B     6.526674397999E+00 -3.717751329531E+00 -1.805266367967E+00
   13     1 H    -1.261537952335E+00  5.369557670189E+00  1.783955231968E+00
   14     1 H     2.382867125591E-01 -7.056156283806E+00 -1.816044767967E+00
   15     1 H     1.257342669285E+00 -5.367408431262E+00  1.780771247968E+00
   16     1 H     2.757167334180E+00 -2.769206385257E+00 -1.819228751967E+00
   17     1 H    -1.262477364565E+00 -5.369860857754E+00  1.780281215968E+00
   18     1 H     2.373473003290E-01 -2.771658811749E+00 -1.819718783967E+00
   19     1 H     1.258665274597E+00  5.368391715901E+00  1.780403471968E+00
   20     1 H     2.758489939491E+00 -7.057322238094E+00 -1.819596527967E+00
   21     1 H    -4.020091881312E+00  3.777992854513E+00  1.816044911967E+00
   22     1 H    -2.520267216417E+00  6.376194900518E+00 -1.783955087968E+00
   23     1 H     4.019591283600E+00 -3.771096828341E+00  1.819229111967E+00
   24     1 H     5.519415948495E+00 -1.172894782336E+00 -1.780770887968E+00
   25     1 H     5.280915829778E+00 -1.590383946075E+00  1.819719431967E+00
   26     1 H     6.780740494672E+00  1.007818099930E+00 -1.780280567968E+00
   27     1 H    -5.278552896435E+00  1.594963947602E+00  1.819596383967E+00
   28     1 H    -3.778728231541E+00  4.193165993607E+00 -1.780403615968E+00
   29     1 H    -4.019566934922E+00 -3.778587153895E+00  1.783955447968E+00
   30     1 H    -2.519742270028E+00 -1.180385107890E+00 -1.816044551967E+00
   31     1 H     4.020009160052E+00  3.773252459848E+00  1.780771103968E+00
   32     1 H    -7.491524068110E+00 -1.141572514931E+00 -1.819228895967E+00
   33     1 H     5.280533119463E+00  1.591501066136E+00  1.780280855968E+00
   34     1 H    -6.231000108700E+00 -3.323323908643E+00 -1.819719143967E+00
   35     1 H    -5.278830345388E+00 -1.595795978843E+00  1.780403831968E+00
   36     1 H    -3.779005680494E+00  1.002406067162E+00 -1.819596167967E+00
   37     6 C    -1.406657682568E+00  7.511810302874E+00  1.794366143967E+00
   38     6 C     9.316698232648E-02 -4.913903651121E+00 -1.805633855967E+00
   39     6 C    -6.962531341475E-01  6.303082605441E+00  1.784445191968E+00
   40     6 C     8.035715307468E-01 -6.122631348554E+00 -1.815554807967E+00
   41     6 C     6.946481451977E-01 -6.302617353318E+00  1.783588175968E+00
   42     6 C     2.194472810092E+00 -3.704415307313E+00 -1.816411823967E+00
   43     6 C    -6.967345580352E-01 -6.303108860046E+00  1.786160231968E+00
   44     6 C     8.030901068591E-01 -3.704906814041E+00 -1.813839767967E+00
   45     6 C     6.951454478886E-01  6.303132723939E+00  1.779546095968E+00
   46     6 C     2.194970112783E+00 -6.122581230056E+00 -1.820453903967E+00
   47     6 C     1.405689832998E+00 -7.511586879447E+00  1.786282559968E+00
   48     6 C     2.905514497892E+00 -4.913384833442E+00 -1.813717439967E+00
   49     6 C     7.208801342259E+00 -2.536224895946E+00  1.805634143967E+00
   50     6 C    -4.302731885904E+00 -7.451049870725E+00 -1.794365855967E+00
   51     6 C    -5.111153441281E+00  3.755053266055E+00  1.815554879967E+00
   52     6 C    -3.611328776387E+00  6.353255312060E+00 -1.784445119968E+00
   53     6 C     5.110840214153E+00 -3.751605645286E+00  1.816412183967E+00
   54     6 C     6.610664879047E+00 -1.153403599281E+00 -1.783587743968E+00
   55     6 C     5.806803570940E+00 -2.546701825551E+00  1.813840271967E+00
   56     6 C     7.306628235834E+00  5.150022045396E-02 -1.786159727968E+00
   57     6 C    -5.806753656016E+00  2.550049779355E+00  1.820453903967E+00
   58     6 C    -4.306928991121E+00  5.148251825360E+00 -1.779546095968E+00
   59     6 C     5.802123776107E+00 -4.972027467313E+00  1.813717655967E+00
   60     6 C     7.301948441001E+00 -2.373825421308E+00 -1.786282343968E+00
   61     6 C     7.208872278112E+00  2.537402162079E+00  1.794366143967E+00
   62     6 C    -4.302660950051E+00 -2.377422812699E+00 -1.805633855967E+00
   63     6 C    -5.110732197497E+00 -3.756098415751E+00  1.784445407968E+00
   64     6 C    -3.610907532603E+00 -1.157896369746E+00 -1.815554591967E+00
   65     6 C     5.111161664467E+00  3.752788324935E+00  1.783587959968E+00
   66     6 C    -6.400371563695E+00 -1.162036649844E+00 -1.816412039967E+00
   67     6 C     5.806799466145E+00  2.547717291780E+00  1.786159943968E+00
   68     6 C    -5.704733762017E+00 -2.367107682999E+00 -1.813840055967E+00
   69     6 C    -5.806413842504E+00 -2.551149592637E+00  1.779546383968E+00
   70     6 C    -4.306589177610E+00  4.705245336796E-02 -1.820453615967E+00
   71     6 C     5.802541108673E+00  4.973055946062E+00  1.786282559968E+00
   72     6 C    -5.708992119489E+00  5.823097128314E-02 -1.813717439967E+00
   73     8 O     7.295941806465E+00  6.237110873148E-04  1.797428087967E+00
   74     8 O    -4.215591421697E+00 -4.914201263691E+00 -1.802571911967E+00
   75     8 O    -3.647325591093E+00  6.317809855988E+00  1.818616751967E+00
   76     8 O    -2.147500926199E+00 -6.107904098007E+00 -1.781383247968E+00
   77     8 O    -3.647355189038E+00 -6.318110557247E+00  1.786650119968E+00
   78     8 O    -2.147530524143E+00 -3.719908511242E+00 -1.813349879967E+00
   79     8 O     3.647398705026E+00 -6.317434579662E+00  1.797428159967E+00
   80     8 O     5.147223369921E+00 -3.719232533657E+00 -1.802571839967E+00
   81     8 O     3.647651861011E+00  6.318201059251E+00  1.818616751967E+00
   82     8 O     5.147476525905E+00 -6.107512894744E+00 -1.781383247968E+00
   83     8 O    -7.295942659207E+00 -5.569269881935E-04  1.786650047968E+00
   84     8 O    -5.796117994312E+00  2.597645119017E+00 -1.813349951967E+00

 *******************************************************************************
 STARTING BASIS SET HANDLING 
 *******************************************************************************

 Loading internal basis set: SOLDEF2MSVP         

 Please cite in your publication:
 L. Dona', J. G. Brandenburg and B. Civalleri, J. Chem. Phys., 151, 121101 (2019
 )                                                                              
                                                                                
                    

 *******************************************************************************
 LOCAL ATOMIC FUNCTIONS BASIS SET
 *******************************************************************************
   ATOM   X(AU)   Y(AU)   Z(AU)  N. TYPE  EXPONENT  S COEF   P COEF   D/F/G COEF
 *******************************************************************************
   1 B   -9.499  11.937   3.411
                                  1 S  
                                         2.410E+03 1.755E-03 0.000E+00 0.000E+00
                                         3.619E+02 1.344E-02 0.000E+00 0.000E+00
                                         8.231E+01 6.637E-02 0.000E+00 0.000E+00
                                         2.311E+01 2.303E-01 0.000E+00 0.000E+00
                                         7.252E+00 5.150E-01 0.000E+00 0.000E+00
                                  2 S  
                                         2.367E+00 1.000E+00 0.000E+00 0.000E+00
                                  3 S  
                                         5.533E-01 1.000E+00 0.000E+00 0.000E+00
                                  4 S  
                                         1.716E-01 1.000E+00 0.000E+00 0.000E+00
                           5-     7 P  
                                         6.002E+00 0.000E+00-3.555E-02 0.000E+00
                                         1.240E+00 0.000E+00-1.983E-01 0.000E+00
                                         3.367E-01 0.000E+00-5.048E-01 0.000E+00
                           8-    10 P  
                                         1.256E-01 0.000E+00 1.000E+00 0.000E+00
                          11-    15 D  
                                         8.880E-01 0.000E+00 0.000E+00 1.000E+00
   2 B   -6.665 -11.544  -3.392
   3 B   -5.588  14.195   3.411
   4 B   -2.754  -9.286  -3.392
   5 B   -9.499 -11.939   3.392
   6 B   -6.665  -7.029  -3.411
   7 B    5.588 -14.195   3.411
   8 B    8.422  -9.285  -3.392
   9 B    9.500  11.937   3.411
  10 B  -12.254   2.650  -3.392
  11 B    9.499 -11.935   3.392
  12 B   12.334  -7.026  -3.411
  13 H   -2.384  10.147   3.371
                                181 S  
                                         1.874E+01 1.968E-02 0.000E+00 0.000E+00
                                         2.826E+00 1.380E-01 0.000E+00 0.000E+00
                                         6.401E-01 4.783E-01 0.000E+00 0.000E+00
                                182 S  
                                         1.756E-01 1.000E+00 0.000E+00 0.000E+00
  14 H    0.450 -13.334  -3.432
  15 H    2.376 -10.143   3.365
  16 H    5.210  -5.233  -3.438
  17 H   -2.386 -10.148   3.364
  18 H    0.449  -5.238  -3.439
  19 H    2.379  10.145   3.364
  20 H    5.213 -13.336  -3.439
  21 H   -7.597   7.139   3.432
  22 H   -4.763  12.049  -3.371
  23 H    7.596  -7.126   3.438
  24 H   10.430  -2.216  -3.365
  25 H    9.979  -3.005   3.439
  26 H   12.814   1.905  -3.364
  27 H   -9.975   3.014   3.439
  28 H   -7.141   7.924  -3.364
  29 H   -7.596  -7.140   3.371
  30 H   -4.762  -2.231  -3.432
  31 H    7.597   7.130   3.365
  32 H  -14.157  -2.157  -3.438
  33 H    9.979   3.008   3.364
  34 H  -11.775  -6.280  -3.439
  35 H   -9.976  -3.016   3.364
  36 H   -7.141   1.894  -3.439
  37 C   -2.658  14.195   3.391
                                229 S  
                                         3.624E+03 1.634E-03 0.000E+00 0.000E+00
                                         5.440E+02 1.252E-02 0.000E+00 0.000E+00
                                         1.237E+02 6.211E-02 0.000E+00 0.000E+00
                                         3.476E+01 2.182E-01 0.000E+00 0.000E+00
                                         1.093E+01 4.980E-01 0.000E+00 0.000E+00
                                230 S  
                                         3.574E+00 1.000E+00 0.000E+00 0.000E+00
                                231 S  
                                         7.742E-01 1.000E+00 0.000E+00 0.000E+00
                                232 S  
                                         2.330E-01 1.000E+00 0.000E+00 0.000E+00
                         233-   235 P  
                                         9.443E+00 0.000E+00 3.790E-02 0.000E+00
                                         2.002E+00 0.000E+00 2.082E-01 0.000E+00
                                         5.463E-01 0.000E+00 5.047E-01 0.000E+00
                         236-   238 P  
                                         1.820E-01 0.000E+00 1.000E+00 0.000E+00
                         239-   243 D  
                                         8.880E-01 0.000E+00 0.000E+00 1.000E+00
  38 C    0.176  -9.286  -3.412
  39 C   -1.316  11.911   3.372
  40 C    1.519 -11.570  -3.431
  41 C    1.313 -11.910   3.370
  42 C    4.147  -7.000  -3.433
  43 C   -1.317 -11.911   3.375
  44 C    1.518  -7.001  -3.428
  45 C    1.314  11.911   3.363
  46 C    4.148 -11.570  -3.440
  47 C    2.656 -14.195   3.376
  48 C    5.491  -9.285  -3.427
  49 C   13.623  -4.793   3.412
  50 C   -8.131 -14.080  -3.391
  51 C   -9.659   7.096   3.431
  52 C   -6.824  12.006  -3.372
  53 C    9.658  -7.090   3.433
  54 C   12.492  -2.180  -3.370
  55 C   10.973  -4.813   3.428
  56 C   13.808   0.097  -3.375
  57 C  -10.973   4.819   3.440
  58 C   -8.139   9.729  -3.363
  59 C   10.964  -9.396   3.427
  60 C   13.799  -4.486  -3.376
  61 C   13.623   4.795   3.391
  62 C   -8.131  -4.493  -3.412
  63 C   -9.658  -7.098   3.372
  64 C   -6.824  -2.188  -3.431
  65 C    9.659   7.092   3.370
  66 C  -12.095  -2.196  -3.433
  67 C   10.973   4.814   3.375
  68 C  -10.780  -4.473  -3.428
  69 C  -10.973  -4.821   3.363
  70 C   -8.138   0.089  -3.440
  71 C   10.965   9.398   3.376
  72 C  -10.788   0.110  -3.427
  73 O   13.787   0.001   3.397
                                769 S  
                                         6.773E+03 1.727E-03 0.000E+00 0.000E+00
                                         1.017E+03 1.325E-02 0.000E+00 0.000E+00
                                         2.313E+02 6.603E-02 0.000E+00 0.000E+00
                                         6.501E+01 2.353E-01 0.000E+00 0.000E+00
                                         2.050E+01 5.498E-01 0.000E+00 0.000E+00
                                770 S  
                                         6.716E+00 1.000E+00 0.000E+00 0.000E+00
                                771 S  
                                         1.147E+00 1.000E+00 0.000E+00 0.000E+00
                                772 S  
                                         3.342E-01 1.000E+00 0.000E+00 0.000E+00
                         773-   775 P  
                                         1.769E+01 0.000E+00 4.359E-02 0.000E+00
                                         3.854E+00 0.000E+00 2.318E-01 0.000E+00
                                         1.047E+00 0.000E+00 5.146E-01 0.000E+00
                         776-   778 P  
                                         2.759E-01 0.000E+00 1.000E+00 0.000E+00
                         779-   783 D  
                                         8.000E-01 0.000E+00 0.000E+00 1.000E+00
  74 O   -7.966  -9.286  -3.406
  75 O   -6.892  11.939   3.437
  76 O   -4.058 -11.542  -3.366
  77 O   -6.893 -11.939   3.376
  78 O   -4.058  -7.030  -3.427
  79 O    6.893 -11.938   3.397
  80 O    9.727  -7.028  -3.406
  81 O    6.893  11.940   3.437
  82 O    9.727 -11.542  -3.366
  83 O  -13.787  -0.001   3.376
  84 O  -10.953   4.909  -3.427

 *******************************************************************************
 FINISHED BASIS SET HANDLING 
 *******************************************************************************

 INFORMATION **** SET_MPP **** PCRYSTAL CALCULATION
 INFORMATION **** READM2 **** NEW DEFAULT: FOCK/KS MATRIX MIXING SET TO 30 %
 INFORMATION **** READM2 **** NEW DEFAULT: FULL DIRECT SCF MODE
 INFORMATION **** READM2 **** NEW DEFAULT: COULOMB BIPOLAR BUFFER SET TO 32 Mb
 INFORMATION **** READM2 **** NEW DEFAULT: EXCHANGE BIPOLAR BUFFER SET TO 32 Mb

 *******************************************************************************
 NEW DEFAULT: DFT INTEGRATION GRID INCREASED TO XLGRID
 NEW DEFAULT: DIIS ACCELERATOR ACTIVE
 USE KEYWORD NODIIS TO TURN IT OFF
 *******************************************************************************

 WARNING **** RDDFTP **** HSEsol-HJS ACTIVE
 RANGE SEPARATION - OMEGA:   0.110000000000000     
 WARNING **** RDDFTP **** HSEsol-3c has to be combined with sol-def2-mSVP basis set
 *******************************************************************************
 N. OF ATOMS PER CELL        84  COULOMB OVERLAP TOL         (T1) 10**   -6
 NUMBER OF SHELLS           468  COULOMB PENETRATION TOL     (T2) 10**   -6
 NUMBER OF AO               948  EXCHANGE OVERLAP TOL        (T3) 10**   -6
 N. OF ELECTRONS PER CELL   396  EXCHANGE PSEUDO OVP (F(G))  (T4) 10**   -6
 CORE ELECTRONS PER CELL    120  EXCHANGE PSEUDO OVP (P(G))  (T5) 10**  -12
 N. OF SYMMETRY OPERATORS     1  POLE ORDER IN MONO ZONE                  4
 *******************************************************************************
 TYPE OF CALCULATION :  RESTRICTED CLOSED SHELL
 KOHN-SHAM HAMILTONIAN

 (EXCHANGE)[CORRELATION] FUNCTIONAL:(HSEsol GGA)[PBEsol]

 RANGE-SEPARATED HYBRID FUNCTIONAL 
 OMEGA (SHORT-RANGE)[LONG-RANGE]:(    0.1100)[    0.0000]

 HYBRID EXCHANGE - PERCENTAGE OF FOCK EXCHANGE    25.0000

 CAPPA:IS1  2;IS2  2;IS3  8; K PTS MONK NET  20; SYMMOPS:K SPACE   2;G SPACE   1

 *******************************************************************************
 MAX NUMBER OF SCF CYCLES      50  CONVERGENCE ON DELTAP        10**-16
 WEIGHT OF F(I) IN F(I+1)      30% CONVERGENCE ON ENERGY        10**- 6
 SHRINK. FACT.(MONKH.)    2  2  8  NUMBER OF K POINTS IN THE IBZ     20
 SHRINKING FACTOR(GILAT NET)    8  NUMBER OF K POINTS(GILAT NET)   1028
 *******************************************************************************
 *** K POINTS COORDINATES (OBLIQUE COORDINATES IN UNITS OF IS =  2)
   1-R(  0  0  0)   2-R(  1  0  0)   3-R(  0  1  0)   4-R(  1  1  0)
   5-C(  0  0  1)   6-C(  1  0  1)   7-C(  0  1  1)   8-C(  1  1  1)
   9-C(  0  0  2)  10-C(  1  0  2)  11-C(  0  1  2)  12-C(  1  1  2)
  13-C(  0  0  3)  14-C(  1  0  3)  15-C(  0  1  3)  16-C(  1  1  3)
  17-R(  0  0  4)  18-R(  1  0  4)  19-R(  0  1  4)  20-R(  1  1  4)

 DIRECT LATTICE VECTORS COMPON. (A.U.)     RECIP. LATTICE VECTORS COMPON. (A.U.) 
        X            Y            Z              X            Y            Z
   24.5879030  -14.1935232    0.0000000      0.2555397    0.0000000    0.0000005
    0.0000000   28.3910867    0.0000000      0.1277517    0.2213084    0.0000015
   -0.0000289   -0.0000767   13.6060282      0.0000000    0.0000000    0.4617942

 DISK SPACE FOR EIGENVECTORS (FTN 10)    28758528 REALS

 SYMMETRY ADAPTION OF THE BLOCH FUNCTIONS DISABLED
 TTTTTTTTTTTTTTTTTTTTTTTTTTTTTT gordsh1     TELAPSE        0.07 TCPU        0.07

 MATRIX SIZE: P(G)  722306, F(G)  145723, P(G) IRR  363199, F(G) IRR  146755
 MAX G-VECTOR INDEX FOR 1- AND 2-ELECTRON INTEGRALS  65

 TTTTTTTTTTTTTTTTTTTTTTTTTTTTTT INPUT       TELAPSE        3.16 TCPU        3.15

 NEIGHBORS OF THE NON-EQUIVALENT ATOMS

 N = NUMBER OF NEIGHBORS AT DISTANCE R
    ATOM  N     R/ANG      R/AU   NEIGHBORS (ATOM LABELS AND CELL INDICES)
   1 B    1     1.3791     2.6061   73 O   -1 0 0
   1 B    1     1.3793     2.6065   75 O    0 0 0
   1 B    1     1.5503     2.9297   49 C   -1 0 0
   1 B    1     2.3895     4.5155    5 B    0 1 0
   1 B    1     2.3898     4.5160    3 B    0 0 0
   1 B    1     2.5632     4.8437   51 C    0 0 0

   2 B    1     1.3791     2.6061   74 O    0 0 0
   2 B    1     1.3793     2.6065   76 O    0 0 0
   2 B    1     1.5503     2.9297   50 C    0 0 0
   2 B    1     2.3895     4.5155    6 B    0 0 0
   2 B    1     2.3898     4.5160    4 B    0 0 0
   2 B    1     2.5632     4.8437   52 C    0-1 0

   3 B    1     1.3793     2.6065   77 O    0 1 0
   3 B    1     1.3793     2.6065   75 O    0 0 0
   3 B    1     1.5504     2.9298   37 C    0 0 0
   3 B    1     2.3895     4.5156    5 B    0 1 0
   3 B    1     2.3898     4.5160    1 B    0 0 0
   3 B    1     2.5634     4.8440   43 C    0 1 0

   4 B    1     1.3793     2.6065   78 O    0 0 0
   4 B    1     1.3793     2.6065   76 O    0 0 0
   4 B    1     1.5504     2.9298   38 C    0 0 0
   4 B    1     2.3895     4.5156    6 B    0 0 0
   4 B    1     2.3898     4.5160    2 B    0 0 0
   4 B    1     2.5634     4.8440   44 C    0 0 0

   5 B    1     1.3791     2.6061   73 O   -1-1 0
   5 B    1     1.3793     2.6064   77 O    0 0 0
   5 B    1     1.5502     2.9294   61 C   -1-1 0
   5 B    1     2.3895     4.5155    1 B    0-1 0
   5 B    1     2.3895     4.5156    3 B    0-1 0
   5 B    1     2.5629     4.8433   63 C    0 0 0

   6 B    1     1.3791     2.6061   74 O    0 0 0
   6 B    1     1.3793     2.6064   78 O    0 0 0
   6 B    1     1.5502     2.9294   62 C    0 0 0
   6 B    1     2.3895     4.5155    2 B    0 0 0
   6 B    1     2.3895     4.5156    4 B    0 0 0
   6 B    1     2.5629     4.8433   64 C    0 0 0

   7 B    1     1.3795     2.6068   79 O    0 0 0
   7 B    1     1.3795     2.6070   81 O    0-1 0
   7 B    1     1.5513     2.9316   47 C    0 0 0
   7 B    1     2.3905     4.5174   11 B    0 0 0
   7 B    1     2.3905     4.5175    9 B    0-1 0
   7 B    1     2.5648     4.8468   45 C    0-1 0

   8 B    1     1.3795     2.6068   80 O    0 0 0
   8 B    1     1.3795     2.6070   82 O    0 0 0
   8 B    1     1.5513     2.9316   48 C    0 0 0
   8 B    1     2.3905     4.5174   12 B    0 0 0
   8 B    1     2.3905     4.5175   10 B    1 0 0
   8 B    1     2.5648     4.8468   46 C    0 0 0

   9 B    1     1.3795     2.6069   81 O    0 0 0
   9 B    1     1.3797     2.6072   83 O    1 1 0
   9 B    1     1.5516     2.9322   71 C    0 0 0
   9 B    1     2.3905     4.5175    7 B    0 1 0
   9 B    1     2.3911     4.5185   11 B    0 1 0
   9 B    1     2.5651     4.8473   69 C    1 1 0

  10 B    1     1.3795     2.6069   82 O   -1 0 0
  10 B    1     1.3797     2.6072   84 O    0 0 0
  10 B    1     1.5516     2.9322   72 C    0 0 0
  10 B    1     2.3905     4.5175    8 B   -1 0 0
  10 B    1     2.3911     4.5185   12 B   -1 0 0
  10 B    1     2.5651     4.8473   70 C    0 0 0

  11 B    1     1.3795     2.6068   79 O    0 0 0
  11 B    1     1.3796     2.6071   83 O    1 0 0
  11 B    1     1.5516     2.9322   59 C    0 0 0
  11 B    1     2.3905     4.5174    7 B    0 0 0
  11 B    1     2.3911     4.5185    9 B    0-1 0
  11 B    1     2.5651     4.8473   57 C    1 0 0

  12 B    1     1.3795     2.6068   80 O    0 0 0
  12 B    1     1.3796     2.6071   84 O    1 0 0
  12 B    1     1.5516     2.9322   60 C    0 0 0
  12 B    1     2.3905     4.5174    8 B    0 0 0
  12 B    1     2.3911     4.5185   10 B    1 0 0
  12 B    1     2.5651     4.8473   58 C    1 0 0

  13 H    1     1.0913     2.0623   39 C    0 0 0
  13 H    1     2.1472     4.0576   37 C    0 0 0
  13 H    1     2.1680     4.0969   45 C    0 0 0
  13 H    1     2.5202     4.7625   19 H    0 0 0
  13 H    1     2.5676     4.8520   75 O    0 0 0
  13 H    1     2.7321     5.1630    3 B    0 0 0

  14 H    1     1.0913     2.0623   40 C    0 0 0
  14 H    1     2.1472     4.0576   38 C    0 0 0
  14 H    1     2.1680     4.0969   46 C    0 0 0
  14 H    1     2.5202     4.7625   20 H    0 0 0
  14 H    1     2.5676     4.8520   76 O    0 0 0
  14 H    1     2.7321     5.1630    4 B    0 0 0

  15 H    1     1.0914     2.0625   41 C    0 0 0
  15 H    1     2.1493     4.0616   47 C    0 0 0
  15 H    1     2.1666     4.0942   43 C    0 0 0
  15 H    1     2.5198     4.7618   17 H    0 0 0
  15 H    1     2.5720     4.8604   79 O    0 0 0
  15 H    1     2.7362     5.1707    7 B    0 0 0

  16 H    1     1.0914     2.0625   42 C    0 0 0
  16 H    1     2.1493     4.0616   48 C    0 0 0
  16 H    1     2.1666     4.0942   44 C    0 0 0
  16 H    1     2.5198     4.7618   18 H    0 0 0
  16 H    1     2.5720     4.8604   80 O    0 0 0
  16 H    1     2.7362     5.1707    8 B    0 0 0

  17 H    1     1.0914     2.0624   43 C    0 0 0
  17 H    1     2.1471     4.0575   37 C    0-1 0
  17 H    1     2.1680     4.0970   41 C    0 0 0
  17 H    1     2.5198     4.7618   15 H    0 0 0
  17 H    1     2.5665     4.8500   77 O    0 0 0
  17 H    1     2.7315     5.1618    3 B    0-1 0

  18 H    1     1.0914     2.0624   44 C    0 0 0
  18 H    1     2.1471     4.0575   38 C    0 0 0
  18 H    1     2.1680     4.0970   42 C    0 0 0
  18 H    1     2.5198     4.7618   16 H    0 0 0
  18 H    1     2.5665     4.8500   78 O    0 0 0
  18 H    1     2.7315     5.1618    4 B    0 0 0

  19 H    1     1.0915     2.0626   45 C    0 0 0
  19 H    1     2.1490     4.0610   47 C    0 1 0
  19 H    1     2.1669     4.0948   39 C    0 0 0
  19 H    1     2.5202     4.7625   13 H    0 0 0
  19 H    1     2.5712     4.8588   81 O    0 0 0
  19 H    1     2.7351     5.1686    7 B    0 1 0

  20 H    1     1.0915     2.0626   46 C    0 0 0
  20 H    1     2.1490     4.0610   48 C    0 0 0
  20 H    1     2.1669     4.0948   40 C    0 0 0
  20 H    1     2.5202     4.7625   14 H    0 0 0
  20 H    1     2.5712     4.8588   82 O    0 0 0
  20 H    1     2.7351     5.1686    8 B    0 0 0

  21 H    1     1.0913     2.0623   51 C    0 0 0
  21 H    1     2.1469     4.0571   49 C   -1 0 0
  21 H    1     2.1680     4.0968   57 C    0 0 0
  21 H    1     2.5198     4.7617   27 H    0 0 0
  21 H    1     2.5670     4.8510   75 O    0 0 0
  21 H    1     2.7310     5.1609    1 B    0 0 0

  22 H    1     1.0913     2.0623   52 C    0 0 0
  22 H    1     2.1469     4.0571   50 C    0 1 0
  22 H    1     2.1680     4.0968   58 C    0 0 0
  22 H    1     2.5198     4.7617   28 H    0 0 0
  22 H    1     2.5670     4.8510   76 O    0 1 0
  22 H    1     2.7310     5.1609    2 B    0 1 0

  23 H    1     1.0914     2.0625   53 C    0 0 0
  23 H    1     2.1493     4.0617   59 C    0 0 0
  23 H    1     2.1664     4.0939   55 C    0 0 0
  23 H    1     2.5192     4.7606   25 H    0 0 0
  23 H    1     2.5735     4.8632   79 O    0 0 0
  23 H    1     2.7371     5.1723   11 B    0 0 0

  24 H    1     1.0914     2.0625   54 C    0 0 0
  24 H    1     2.1493     4.0617   60 C    0 0 0
  24 H    1     2.1664     4.0939   56 C    0 0 0
  24 H    1     2.5192     4.7606   26 H    0 0 0
  24 H    1     2.5735     4.8632   80 O    0 0 0
  24 H    1     2.7371     5.1723   12 B    0 0 0

  25 H    1     1.0914     2.0624   55 C    0 0 0
  25 H    1     2.1475     4.0581   49 C    0 0 0
  25 H    1     2.1679     4.0967   53 C    0 0 0
  25 H    1     2.5192     4.7606   23 H    0 0 0
  25 H    1     2.5675     4.8519   73 O    0 0 0
  25 H    1     2.7328     5.1643    1 B    1 0 0

  26 H    1     1.0914     2.0624   56 C    0 0 0
  26 H    1     2.1475     4.0581   50 C    1 1 0
  26 H    1     2.1679     4.0967   54 C    0 0 0
  26 H    1     2.5192     4.7606   24 H    0 0 0
  26 H    1     2.5675     4.8519   74 O    1 1 0
  26 H    1     2.7328     5.1643    2 B    1 1 0

  27 H    1     1.0914     2.0625   57 C    0 0 0
  27 H    1     2.1491     4.0612   59 C   -1 0 0
  27 H    1     2.1666     4.0942   51 C    0 0 0
  27 H    1     2.5198     4.7617   21 H    0 0 0
  27 H    1     2.5723     4.8609   83 O    0 0 0
  27 H    1     2.7355     5.1693   11 B   -1 0 0

  28 H    1     1.0914     2.0625   58 C    0 0 0
  28 H    1     2.1491     4.0612   60 C   -1 0 0
  28 H    1     2.1666     4.0942   52 C    0 0 0
  28 H    1     2.5198     4.7617   22 H    0 0 0
  28 H    1     2.5723     4.8609   84 O    0 0 0
  28 H    1     2.7355     5.1693   12 B   -1 0 0

  29 H    1     1.0914     2.0624   63 C    0 0 0
  29 H    1     2.1475     4.0582   61 C   -1-1 0
  29 H    1     2.1678     4.0966   69 C    0 0 0
  29 H    1     2.5200     4.7621   35 H    0 0 0
  29 H    1     2.5667     4.8503   77 O    0 0 0
  29 H    1     2.7315     5.1618    5 B    0 0 0

  30 H    1     1.0914     2.0624   64 C    0 0 0
  30 H    1     2.1475     4.0582   62 C    0 0 0
  30 H    1     2.1678     4.0966   70 C    0 0 0
  30 H    1     2.5200     4.7621   36 H    0 0 0
  30 H    1     2.5667     4.8503   78 O    0 0 0
  30 H    1     2.7315     5.1618    6 B    0 0 0

  31 H    1     1.0913     2.0623   65 C    0 0 0
  31 H    1     2.1487     4.0605   71 C    0 0 0
  31 H    1     2.1667     4.0945   67 C    0 0 0
  31 H    1     2.5197     4.7616   33 H    0 0 0
  31 H    1     2.5723     4.8610   81 O    0 0 0
  31 H    1     2.7359     5.1701    9 B    0 0 0

  32 H    1     1.0913     2.0623   66 C    0 0 0
  32 H    1     2.1487     4.0605   72 C    0 0 0
  32 H    1     2.1667     4.0945   68 C    0 0 0
  32 H    1     2.5197     4.7616   34 H    0 0 0
  32 H    1     2.5723     4.8610   82 O   -1 0 0
  32 H    1     2.7359     5.1701   10 B    0 0 0

  33 H    1     1.0915     2.0626   67 C    0 0 0
  33 H    1     2.1479     4.0589   61 C    0 0 0
  33 H    1     2.1679     4.0968   65 C    0 0 0
  33 H    1     2.5197     4.7616   31 H    0 0 0
  33 H    1     2.5677     4.8522   73 O    0 0 0
  33 H    1     2.7331     5.1648    5 B    1 1 0

  34 H    1     1.0915     2.0626   68 C    0 0 0
  34 H    1     2.1479     4.0589   62 C    0 0 0
  34 H    1     2.1679     4.0968   66 C    0 0 0
  34 H    1     2.5197     4.7616   32 H    0 0 0
  34 H    1     2.5677     4.8522   74 O    0 0 0
  34 H    1     2.7331     5.1648    6 B    0 0 0

  35 H    1     1.0914     2.0624   69 C    0 0 0
  35 H    1     2.1486     4.0602   71 C   -1-1 0
  35 H    1     2.1668     4.0947   63 C    0 0 0
  35 H    1     2.5200     4.7621   29 H    0 0 0
  35 H    1     2.5717     4.8598   83 O    0 0 0
  35 H    1     2.7349     5.1682    9 B   -1-1 0

  36 H    1     1.0914     2.0624   70 C    0 0 0
  36 H    1     2.1486     4.0602   72 C    0 0 0
  36 H    1     2.1668     4.0947   64 C    0 0 0
  36 H    1     2.5200     4.7621   30 H    0 0 0
  36 H    1     2.5717     4.8598   84 O    0 0 0
  36 H    1     2.7349     5.1682   10 B    0 0 0

  37 C    1     1.4020     2.6495   43 C    0 1 0
  37 C    1     1.4021     2.6495   39 C    0 0 0
  37 C    1     1.5504     2.9298    3 B    0 0 0
  37 C    1     2.1471     4.0575   17 H    0 1 0
  37 C    1     2.1472     4.0576   13 H    0 0 0
  37 C    1     2.4246     4.5817   41 C    0 1 0

  38 C    1     1.4020     2.6495   44 C    0 0 0
  38 C    1     1.4021     2.6495   40 C    0 0 0
  38 C    1     1.5504     2.9298    4 B    0 0 0
  38 C    1     2.1471     4.0575   18 H    0 0 0
  38 C    1     2.1472     4.0576   14 H    0 0 0
  38 C    1     2.4246     4.5817   42 C    0 0 0

  39 C    1     1.0913     2.0623   13 H    0 0 0
  39 C    1     1.3914     2.6294   45 C    0 0 0
  39 C    1     1.4021     2.6495   37 C    0 0 0
  39 C    1     2.1669     4.0948   19 H    0 0 0
  39 C    1     2.4177     4.5688   43 C    0 1 0
  39 C    1     2.4250     4.5825   47 C    0 1 0

  40 C    1     1.0913     2.0623   14 H    0 0 0
  40 C    1     1.3914     2.6294   46 C    0 0 0
  40 C    1     1.4021     2.6495   38 C    0 0 0
  40 C    1     2.1669     4.0948   20 H    0 0 0
  40 C    1     2.4177     4.5688   44 C    0 0 0
  40 C    1     2.4250     4.5825   48 C    0 0 0

  41 C    1     1.0914     2.0625   15 H    0 0 0
  41 C    1     1.3914     2.6293   43 C    0 0 0
  41 C    1     1.4026     2.6505   47 C    0 0 0
  41 C    1     2.1680     4.0970   17 H    0 0 0
  41 C    1     2.4182     4.5697   45 C    0-1 0
  41 C    1     2.4246     4.5817   37 C    0-1 0

  42 C    1     1.0914     2.0625   16 H    0 0 0
  42 C    1     1.3914     2.6293   44 C    0 0 0
  42 C    1     1.4026     2.6505   48 C    0 0 0
  42 C    1     2.1680     4.0970   18 H    0 0 0
  42 C    1     2.4182     4.5697   46 C    0 0 0
  42 C    1     2.4246     4.5817   38 C    0 0 0

  43 C    1     1.0914     2.0624   17 H    0 0 0
  43 C    1     1.3914     2.6293   41 C    0 0 0
  43 C    1     1.4020     2.6495   37 C    0-1 0
  43 C    1     2.1666     4.0942   15 H    0 0 0
  43 C    1     2.4177     4.5688   39 C    0-1 0
  43 C    1     2.4250     4.5826   47 C    0 0 0

  44 C    1     1.0914     2.0624   18 H    0 0 0
  44 C    1     1.3914     2.6293   42 C    0 0 0
  44 C    1     1.4020     2.6495   38 C    0 0 0
  44 C    1     2.1666     4.0942   16 H    0 0 0
  44 C    1     2.4177     4.5688   40 C    0 0 0
  44 C    1     2.4250     4.5826   48 C    0 0 0

  45 C    1     1.0915     2.0626   19 H    0 0 0
  45 C    1     1.3914     2.6294   39 C    0 0 0
  45 C    1     1.4025     2.6504   47 C    0 1 0
  45 C    1     2.1680     4.0969   13 H    0 0 0
  45 C    1     2.4182     4.5697   41 C    0 1 0
  45 C    1     2.4246     4.5818   37 C    0 0 0

  46 C    1     1.0915     2.0626   20 H    0 0 0
  46 C    1     1.3914     2.6294   40 C    0 0 0
  46 C    1     1.4025     2.6504   48 C    0 0 0
  46 C    1     2.1680     4.0969   14 H    0 0 0
  46 C    1     2.4182     4.5697   42 C    0 0 0
  46 C    1     2.4246     4.5818   38 C    0 0 0

  47 C    1     1.4025     2.6504   45 C    0-1 0
  47 C    1     1.4026     2.6505   41 C    0 0 0
  47 C    1     1.5513     2.9316    7 B    0 0 0
  47 C    1     2.1490     4.0610   19 H    0-1 0
  47 C    1     2.1493     4.0616   15 H    0 0 0
  47 C    1     2.4250     4.5825   39 C    0-1 0

  48 C    1     1.4025     2.6504   46 C    0 0 0
  48 C    1     1.4026     2.6505   42 C    0 0 0
  48 C    1     1.5513     2.9316    8 B    0 0 0
  48 C    1     2.1490     4.0610   20 H    0 0 0
  48 C    1     2.1493     4.0616   16 H    0 0 0
  48 C    1     2.4250     4.5825   40 C    0 0 0

  49 C    1     1.4020     2.6494   51 C    1 0 0
  49 C    1     1.4021     2.6495   55 C    0 0 0
  49 C    1     1.5503     2.9297    1 B    1 0 0
  49 C    1     2.1469     4.0571   21 H    1 0 0
  49 C    1     2.1475     4.0581   25 H    0 0 0
  49 C    1     2.4246     4.5818   53 C    0 0 0

  50 C    1     1.4020     2.6494   52 C    0-1 0
  50 C    1     1.4021     2.6495   56 C   -1-1 0
  50 C    1     1.5503     2.9297    2 B    0 0 0
  50 C    1     2.1469     4.0571   22 H    0-1 0
  50 C    1     2.1475     4.0581   26 H   -1-1 0
  50 C    1     2.4246     4.5818   54 C   -1-1 0

  51 C    1     1.0913     2.0623   21 H    0 0 0
  51 C    1     1.3914     2.6293   57 C    0 0 0
  51 C    1     1.4020     2.6494   49 C   -1 0 0
  51 C    1     2.1666     4.0942   27 H    0 0 0
  51 C    1     2.4175     4.5684   55 C   -1 0 0
  51 C    1     2.4251     4.5828   59 C   -1 0 0

  52 C    1     1.0913     2.0623   22 H    0 0 0
  52 C    1     1.3914     2.6293   58 C    0 0 0
  52 C    1     1.4020     2.6494   50 C    0 1 0
  52 C    1     2.1666     4.0942   28 H    0 0 0
  52 C    1     2.4175     4.5684   56 C   -1 0 0
  52 C    1     2.4251     4.5828   60 C   -1 0 0

  53 C    1     1.0914     2.0625   23 H    0 0 0
  53 C    1     1.3915     2.6295   55 C    0 0 0
  53 C    1     1.4026     2.6505   59 C    0 0 0
  53 C    1     2.1679     4.0967   25 H    0 0 0
  53 C    1     2.4179     4.5691   57 C    1 0 0
  53 C    1     2.4246     4.5818   49 C    0 0 0

  54 C    1     1.0914     2.0625   24 H    0 0 0
  54 C    1     1.3915     2.6295   56 C    0 0 0
  54 C    1     1.4026     2.6505   60 C    0 0 0
  54 C    1     2.1679     4.0967   26 H    0 0 0
  54 C    1     2.4179     4.5691   58 C    1 0 0
  54 C    1     2.4246     4.5818   50 C    1 1 0

  55 C    1     1.0914     2.0624   25 H    0 0 0
  55 C    1     1.3915     2.6295   53 C    0 0 0
  55 C    1     1.4021     2.6495   49 C    0 0 0
  55 C    1     2.1664     4.0939   23 H    0 0 0
  55 C    1     2.4175     4.5684   51 C    1 0 0
  55 C    1     2.4253     4.5832   59 C    0 0 0

  56 C    1     1.0914     2.0624   26 H    0 0 0
  56 C    1     1.3915     2.6295   54 C    0 0 0
  56 C    1     1.4021     2.6495   50 C    1 1 0
  56 C    1     2.1664     4.0939   24 H    0 0 0
  56 C    1     2.4175     4.5684   52 C    1 0 0
  56 C    1     2.4253     4.5832   60 C    0 0 0

  57 C    1     1.0914     2.0625   27 H    0 0 0
  57 C    1     1.3914     2.6293   51 C    0 0 0
  57 C    1     1.4025     2.6504   59 C   -1 0 0
  57 C    1     2.1680     4.0968   21 H    0 0 0
  57 C    1     2.4179     4.5691   53 C   -1 0 0
  57 C    1     2.4247     4.5819   49 C   -1 0 0

  58 C    1     1.0914     2.0625   28 H    0 0 0
  58 C    1     1.3914     2.6293   52 C    0 0 0
  58 C    1     1.4025     2.6504   60 C   -1 0 0
  58 C    1     2.1680     4.0968   22 H    0 0 0
  58 C    1     2.4179     4.5691   54 C   -1 0 0
  58 C    1     2.4247     4.5819   50 C    0 1 0

  59 C    1     1.4025     2.6504   57 C    1 0 0
  59 C    1     1.4026     2.6505   53 C    0 0 0
  59 C    1     1.5516     2.9322   11 B    0 0 0
  59 C    1     2.1491     4.0612   27 H    1 0 0
  59 C    1     2.1493     4.0617   23 H    0 0 0
  59 C    1     2.4251     4.5828   51 C    1 0 0

  60 C    1     1.4025     2.6504   58 C    1 0 0
  60 C    1     1.4026     2.6505   54 C    0 0 0
  60 C    1     1.5516     2.9322   12 B    0 0 0
  60 C    1     2.1491     4.0612   28 H    1 0 0
  60 C    1     2.1493     4.0617   24 H    0 0 0
  60 C    1     2.4251     4.5828   52 C    1 0 0

  61 C    1     1.4021     2.6496   63 C    1 1 0
  61 C    1     1.4021     2.6497   67 C    0 0 0
  61 C    1     1.5502     2.9294    5 B    1 1 0
  61 C    1     2.1475     4.0582   29 H    1 1 0
  61 C    1     2.1479     4.0589   33 H    0 0 0
  61 C    1     2.4244     4.5814   65 C    0 0 0

  62 C    1     1.4021     2.6496   64 C    0 0 0
  62 C    1     1.4021     2.6497   68 C    0 0 0
  62 C    1     1.5502     2.9294    6 B    0 0 0
  62 C    1     2.1475     4.0582   30 H    0 0 0
  62 C    1     2.1479     4.0589   34 H    0 0 0
  62 C    1     2.4244     4.5814   66 C    0 0 0

  63 C    1     1.0914     2.0624   29 H    0 0 0
  63 C    1     1.3914     2.6293   69 C    0 0 0
  63 C    1     1.4021     2.6496   61 C   -1-1 0
  63 C    1     2.1668     4.0947   35 H    0 0 0
  63 C    1     2.4179     4.5692   67 C   -1-1 0
  63 C    1     2.4251     4.5827   71 C   -1-1 0

  64 C    1     1.0914     2.0624   30 H    0 0 0
  64 C    1     1.3914     2.6293   70 C    0 0 0
  64 C    1     1.4021     2.6496   62 C    0 0 0
  64 C    1     2.1668     4.0947   36 H    0 0 0
  64 C    1     2.4179     4.5692   68 C    0 0 0
  64 C    1     2.4251     4.5827   72 C    0 0 0

  65 C    1     1.0913     2.0623   31 H    0 0 0
  65 C    1     1.3914     2.6294   67 C    0 0 0
  65 C    1     1.4025     2.6504   71 C    0 0 0
  65 C    1     2.1679     4.0968   33 H    0 0 0
  65 C    1     2.4178     4.5690   69 C    1 1 0
  65 C    1     2.4244     4.5814   61 C    0 0 0

  66 C    1     1.0913     2.0623   32 H    0 0 0
  66 C    1     1.3914     2.6294   68 C    0 0 0
  66 C    1     1.4025     2.6504   72 C    0 0 0
  66 C    1     2.1679     4.0968   34 H    0 0 0
  66 C    1     2.4178     4.5690   70 C    0 0 0
  66 C    1     2.4244     4.5814   62 C    0 0 0

  67 C    1     1.0915     2.0626   33 H    0 0 0
  67 C    1     1.3914     2.6294   65 C    0 0 0
  67 C    1     1.4021     2.6497   61 C    0 0 0
  67 C    1     2.1667     4.0945   31 H    0 0 0
  67 C    1     2.4179     4.5692   63 C    1 1 0
  67 C    1     2.4253     4.5832   71 C    0 0 0

  68 C    1     1.0915     2.0626   34 H    0 0 0
  68 C    1     1.3914     2.6294   66 C    0 0 0
  68 C    1     1.4021     2.6497   62 C    0 0 0
  68 C    1     2.1667     4.0945   32 H    0 0 0
  68 C    1     2.4179     4.5692   64 C    0 0 0
  68 C    1     2.4253     4.5832   72 C    0 0 0

  69 C    1     1.0914     2.0624   35 H    0 0 0
  69 C    1     1.3914     2.6293   63 C    0 0 0
  69 C    1     1.4025     2.6503   71 C   -1-1 0
  69 C    1     2.1678     4.0966   29 H    0 0 0
  69 C    1     2.4178     4.5690   65 C   -1-1 0
  69 C    1     2.4245     4.5817   61 C   -1-1 0

  70 C    1     1.0914     2.0624   36 H    0 0 0
  70 C    1     1.3914     2.6293   64 C    0 0 0
  70 C    1     1.4025     2.6503   72 C    0 0 0
  70 C    1     2.1678     4.0966   30 H    0 0 0
  70 C    1     2.4178     4.5690   66 C    0 0 0
  70 C    1     2.4245     4.5817   62 C    0 0 0

  71 C    1     1.4025     2.6503   69 C    1 1 0
  71 C    1     1.4025     2.6504   65 C    0 0 0
  71 C    1     1.5516     2.9322    9 B    0 0 0
  71 C    1     2.1486     4.0602   35 H    1 1 0
  71 C    1     2.1487     4.0605   31 H    0 0 0
  71 C    1     2.4251     4.5827   63 C    1 1 0

  72 C    1     1.4025     2.6503   70 C    0 0 0
  72 C    1     1.4025     2.6504   66 C    0 0 0
  72 C    1     1.5516     2.9322   10 B    0 0 0
  72 C    1     2.1486     4.0602   36 H    0 0 0
  72 C    1     2.1487     4.0605   32 H    0 0 0
  72 C    1     2.4251     4.5827   64 C    0 0 0

  73 O    1     1.3791     2.6061    1 B    1 0 0
  73 O    1     1.3791     2.6061    5 B    1 1 0
  73 O    1     2.3880     4.5126   75 O    1 0 0
  73 O    1     2.3882     4.5130   77 O    1 1 0
  73 O    1     2.5383     4.7966   61 C    0 0 0
  73 O    1     2.5384     4.7968   49 C    0 0 0

  74 O    1     1.3791     2.6061    2 B    0 0 0
  74 O    1     1.3791     2.6061    6 B    0 0 0
  74 O    1     2.3880     4.5126   76 O    0 0 0
  74 O    1     2.3882     4.5130   78 O    0 0 0
  74 O    1     2.5383     4.7966   62 C    0 0 0
  74 O    1     2.5384     4.7968   50 C    0 0 0

  75 O    1     1.3793     2.6065    1 B    0 0 0
  75 O    1     1.3793     2.6065    3 B    0 0 0
  75 O    1     2.3880     4.5126   73 O   -1 0 0
  75 O    1     2.3882     4.5131   77 O    0 1 0
  75 O    1     2.5391     4.7981   37 C    0 0 0
  75 O    1     2.5395     4.7990   49 C   -1 0 0

  76 O    1     1.3793     2.6065    2 B    0 0 0
  76 O    1     1.3793     2.6065    4 B    0 0 0
  76 O    1     2.3880     4.5126   74 O    0 0 0
  76 O    1     2.3882     4.5131   78 O    0 0 0
  76 O    1     2.5391     4.7981   38 C    0 0 0
  76 O    1     2.5395     4.7990   50 C    0 0 0

  77 O    1     1.3793     2.6064    5 B    0 0 0
  77 O    1     1.3793     2.6065    3 B    0-1 0
  77 O    1     2.3882     4.5130   73 O   -1-1 0
  77 O    1     2.3882     4.5131   75 O    0-1 0
  77 O    1     2.5390     4.7980   37 C    0-1 0
  77 O    1     2.5391     4.7982   61 C   -1-1 0

  78 O    1     1.3793     2.6064    6 B    0 0 0
  78 O    1     1.3793     2.6065    4 B    0 0 0
  78 O    1     2.3882     4.5130   74 O    0 0 0
  78 O    1     2.3882     4.5131   76 O    0 0 0
  78 O    1     2.5390     4.7980   38 C    0 0 0
  78 O    1     2.5391     4.7982   62 C    0 0 0

  79 O    1     1.3795     2.6068   11 B    0 0 0
  79 O    1     1.3795     2.6068    7 B    0 0 0
  79 O    1     2.3880     4.5126   83 O    1 0 0
  79 O    1     2.3884     4.5134   81 O    0-1 0
  79 O    1     2.5400     4.7998   47 C    0 0 0
  79 O    1     2.5403     4.8005   59 C    0 0 0

  80 O    1     1.3795     2.6068   12 B    0 0 0
  80 O    1     1.3795     2.6068    8 B    0 0 0
  80 O    1     2.3880     4.5126   84 O    1 0 0
  80 O    1     2.3884     4.5134   82 O    0 0 0
  80 O    1     2.5400     4.7998   48 C    0 0 0
  80 O    1     2.5403     4.8005   60 C    0 0 0

  81 O    1     1.3795     2.6069    9 B    0 0 0
  81 O    1     1.3795     2.6070    7 B    0 1 0
  81 O    1     2.3881     4.5128   83 O    1 1 0
  81 O    1     2.3884     4.5134   79 O    0 1 0
  81 O    1     2.5404     4.8006   47 C    0 1 0
  81 O    1     2.5405     4.8008   71 C    0 0 0

  82 O    1     1.3795     2.6069   10 B    1 0 0
  82 O    1     1.3795     2.6070    8 B    0 0 0
  82 O    1     2.3881     4.5128   84 O    1 0 0
  82 O    1     2.3884     4.5134   80 O    0 0 0
  82 O    1     2.5404     4.8006   48 C    0 0 0
  82 O    1     2.5405     4.8008   72 C    1 0 0

  83 O    1     1.3796     2.6071   11 B   -1 0 0
  83 O    1     1.3797     2.6072    9 B   -1-1 0
  83 O    1     2.3880     4.5126   79 O   -1 0 0
  83 O    1     2.3881     4.5128   81 O   -1-1 0
  83 O    1     2.5409     4.8016   71 C   -1-1 0
  83 O    1     2.5410     4.8019   59 C   -1 0 0

  84 O    1     1.3796     2.6071   12 B   -1 0 0
  84 O    1     1.3797     2.6072   10 B    0 0 0
  84 O    1     2.3880     4.5126   80 O   -1 0 0
  84 O    1     2.3881     4.5128   82 O   -1 0 0
  84 O    1     2.5409     4.8016   72 C    0 0 0
  84 O    1     2.5410     4.8019   60 C   -1 0 0


 SYMMETRY ALLOWED INTERNAL DEGREE(S) OF FREEDOM: 249
 TTTTTTTTTTTTTTTTTTTTTTTTTTTTTT SYMM        TELAPSE        3.17 TCPU        3.16
 TTTTTTTTTTTTTTTTTTTTTTTTTTTTTT INT_SCREEN  TELAPSE        3.39 TCPU        3.38

 DFT PARAMETERS

     ATOM       ELECTRONS   NET CHARGE   R(ANGSTROM)
   1   5  B       5.0000      0.0000     0.89000000
  13   1  H       1.0000      0.0000     1.11000000
  37   6  C       6.0000      0.0000     0.77000000
  73   8  O       8.0000      0.0000     0.74000000

 SIZE OF GRID=    2556441
 TTTTTTTTTTTTTTTTTTTTTTTTTTTTTT MAKE_GRID2  TELAPSE       26.07 TCPU       26.02
 BECKE WEIGHT FUNCTION
 RADSAFE =     2.00
 TOLERANCES - DENSITY:10**- 6; POTENTIAL:10**- 9; GRID WGT:10**-14

 RADIAL INTEGRATION  - INTERVALS (POINTS,UPPER LIMIT):            1( 75,  4.0*R)

 ANGULAR INTEGRATION - INTERVALS (ACCURACY LEVEL [N. POINTS] UPPER LIMIT):
  1(  4[  86]   0.2)  2(  8[ 194]   0.5)  3( 12[ 350]   0.9)  4( 16[ 974]   3.5)
  5( 12[ 350]9999.0)
 TTTTTTTTTTTTTTTTTTTTTTTTTTTTTT INT_CALC    TELAPSE       26.35 TCPU       26.31
 EEEEEEEEEE INT_CALC TERMINATION  DATE 19 02 2026 TIME 20:14:05.9

 *******************************************************************************
 cof-1_z36_L030_serr                                                             
 CRYSTAL - SCF - TYPE OF CALCULATION :  RESTRICTED CLOSED SHELL
 *******************************************************************************

 CAPPA:IS1  2;IS2  2;IS3  8; K PTS MONK NET  20; SYMMOPS:K SPACE   2;G SPACE   1

 TTTTTTTTTTTTTTTTTTTTTTTTTTTTTT SDIK        TELAPSE       28.33 TCPU       54.72

 AAAAAAAAAAAAAAAAAAAAAAAAAAAAAAAAAAAAAAAAAAAAAAAAAAAAAAAAAAAAAAAAAAAAAAAAAAAAAAA
         ATOMIC WAVEFUNCTION(S)


 NUCLEAR CHARGE  5.0  SYMMETRY SPECIES            S    P
 N. ELECTRONS    5.0  NUMBER OF PRIMITIVE GTOS    8    4
                      NUMBER OF CONTRACTED GTOS   4    2
                      NUMBER OF CLOSED SHELLS     2    0
                      OPEN SHELL OCCUPATION       0    1

  ZNUC  SCFIT    TOTAL HF ENERGY   KINETIC ENERGY   VIRIAL THEOREM ACCURACY
   5.0    11    -2.451164084E+01  2.462155050E+01 -1.995536038E+00  1.5E-06

 NUCLEAR CHARGE  1.0  SYMMETRY SPECIES            S
 N. ELECTRONS    1.0  NUMBER OF PRIMITIVE GTOS    4
                      NUMBER OF CONTRACTED GTOS   2
                      NUMBER OF CLOSED SHELLS     0
                      OPEN SHELL OCCUPATION       1

  ZNUC  SCFIT    TOTAL HF ENERGY   KINETIC ENERGY   VIRIAL THEOREM ACCURACY
   1.0     1    -4.977266687E-01  5.190767460E-01 -1.958869132E+00  0.0E+00

 NUCLEAR CHARGE  6.0  SYMMETRY SPECIES            S    P
 N. ELECTRONS    6.0  NUMBER OF PRIMITIVE GTOS    8    4
                      NUMBER OF CONTRACTED GTOS   4    2
                      NUMBER OF CLOSED SHELLS     2    0
                      OPEN SHELL OCCUPATION       0    2

  ZNUC  SCFIT    TOTAL HF ENERGY   KINETIC ENERGY   VIRIAL THEOREM ACCURACY
   6.0     9    -3.766704647E+01  3.775180683E+01 -1.997754800E+00  1.1E-06

 NUCLEAR CHARGE  8.0  SYMMETRY SPECIES            S    P
 N. ELECTRONS    8.0  NUMBER OF PRIMITIVE GTOS    8    4
                      NUMBER OF CONTRACTED GTOS   4    2
                      NUMBER OF CLOSED SHELLS     2    0
                      OPEN SHELL OCCUPATION       0    4

  ZNUC  SCFIT    TOTAL HF ENERGY   KINETIC ENERGY   VIRIAL THEOREM ACCURACY
   8.0    12    -7.477373220E+01  7.477365593E+01 -2.000001020E+00  3.8E-06

 AAAAAAAAAAAAAAAAAAAAAAAAAAAAAAAAAAAAAAAAAAAAAAAAAAAAAAAAAAAAAAAAAAAAAAAAAAAAAAA

 CHARGE NORMALIZATION FACTOR   1.00000000
 TOTAL ATOMIC CHARGES:
   5.0000000   5.0000000   5.0000000   5.0000000   5.0000000   5.0000000
   5.0000000   5.0000000   5.0000000   5.0000000   5.0000000   5.0000000
   1.0000000   1.0000000   1.0000000   1.0000000   1.0000000   1.0000000
   1.0000000   1.0000000   1.0000000   1.0000000   1.0000000   1.0000000
   1.0000000   1.0000000   1.0000000   1.0000000   1.0000000   1.0000000
   1.0000000   1.0000000   1.0000000   1.0000000   1.0000000   1.0000000
   6.0000000   6.0000000   6.0000000   6.0000000   6.0000000   6.0000000
   6.0000000   6.0000000   6.0000000   6.0000000   6.0000000   6.0000000
   6.0000000   6.0000000   6.0000000   6.0000000   6.0000000   6.0000000
   6.0000000   6.0000000   6.0000000   6.0000000   6.0000000   6.0000000
   6.0000000   6.0000000   6.0000000   6.0000000   6.0000000   6.0000000
   6.0000000   6.0000000   6.0000000   6.0000000   6.0000000   6.0000000
   8.0000000   8.0000000   8.0000000   8.0000000   8.0000000   8.0000000
   8.0000000   8.0000000   8.0000000   8.0000000   8.0000000   8.0000000
 TTTTTTTTTTTTTTTTTTTTTTTTTTTTTT MOQGAD      TELAPSE       28.44 TCPU       58.09
 TTTTTTTTTTTTTTTTTTTTTTTTTTTTTT SHELLXN     TELAPSE       49.49 TCPU      729.83
 TTTTTTTTTTTTTTTTTTTTTTTTTTTTTT MONMO3      TELAPSE       50.14 TCPU      750.47
 NUMERICALLY INTEGRATED DENSITY    395.9999625188
 TTTTTTTTTTTTTTTTTTTTTTTTTTTTTT NUMDFT      TELAPSE       51.80 TCPU      803.38
 CYC   0 ETOT(AU) -2.591933800180E+03 DETOT -2.59E+03 tst  0.00E+00 PX  1.00E+00
 TTTTTTTTTTTTTTTTTTTTTTTTTTTTTT DIIS        TELAPSE       51.91 TCPU      806.95
 TTTTTTTTTTTTTTTTTTTTTTTTTTTTTT FDIK        TELAPSE       53.87 TCPU      869.59
 INSULATING STATE
 TOP OF VALENCE BANDS -    BAND    198; K    1; EIG -3.0767623E-01 AU
 BOTTOM OF VIRTUAL BANDS - BAND    199; K    1; EIG -1.6206414E-01 AU
 DIRECT ENERGY BAND GAP:   3.9623 eV
 TTTTTTTTTTTTTTTTTTTTTTTTTTTTTT PDIG        TELAPSE       55.56 TCPU      876.34
 CHARGE NORMALIZATION FACTOR   1.00000000
 TOTAL ATOMIC CHARGES:
   4.1532444   4.1268071   4.1510717   4.1626319   4.1512705   4.1628868
   4.1625109   4.1509364   4.1622954   4.1507249   4.1265797   4.1528563
   0.7855690   0.7856410   0.7857491   0.7856800   0.7841447   0.7853054
   0.7854260   0.7842704   0.7860221   0.7863400   0.7865061   0.7861874
   0.7860121   0.7863336   0.7864687   0.7861513   0.7841495   0.7853073
   0.7854883   0.7843355   0.7855217   0.7855920   0.7857458   0.7856736
   6.0443826   6.0458343   6.2683014   6.2672273   6.2671996   6.2682639
   6.2660926   6.2650988   6.2650206   6.2660233   6.0451057   6.0436531
   6.0464656   6.0555955   6.2666420   6.2644107   6.2644729   6.2667190
   6.2665613   6.2643294   6.2644837   6.2667238   6.0543211   6.0452166
   6.0447532   6.0462045   6.2658613   6.2648526   6.2654100   6.2663995
   6.2679267   6.2668531   6.2674779   6.2685451   6.0446280   6.0431792
   8.6988658   8.6986352   8.6989757   8.6987445   8.7031739   8.6914841
   8.6990540   8.6992897   8.6918884   8.7035446   8.6992164   8.6994553
 TTTTTTTTTTTTTTTTTTTTTTTTTTTTTT MOQGAD      TELAPSE       55.67 TCPU      876.45
 TTTTTTTTTTTTTTTTTTTTTTTTTTTTTT SHELLXN     TELAPSE       77.53 TCPU     1573.81
 TTTTTTTTTTTTTTTTTTTTTTTTTTTTTT MONMO3      TELAPSE       78.17 TCPU     1594.44
 NUMERICALLY INTEGRATED DENSITY    395.9999578789
 TTTTTTTTTTTTTTTTTTTTTTTTTTTTTT NUMDFT      TELAPSE       79.86 TCPU     1648.20
 CYC   1 ETOT(AU) -2.577651772437E+03 DETOT  1.43E+01 tst  0.00E+00 PX  1.00E+00
 TTTTTTTTTTTTTTTTTTTTTTTTTTTTTT DIIS        TELAPSE       80.00 TCPU     1652.82
 DIIS TEST: 0.21996E+01 AT SCF   CYCLE   1 - MIX   30 %
 TTTTTTTTTTTTTTTTTTTTTTTTTTTTTT FDIK        TELAPSE       81.98 TCPU     1716.04
 INSULATING STATE
 TOP OF VALENCE BANDS -    BAND    198; K    1; EIG -2.1459028E-01 AU
 BOTTOM OF VIRTUAL BANDS - BAND    199; K    1; EIG -8.3958759E-02 AU
 DIRECT ENERGY BAND GAP:   3.5547 eV
 TTTTTTTTTTTTTTTTTTTTTTTTTTTTTT PDIG        TELAPSE       83.67 TCPU     1722.79
 CHARGE NORMALIZATION FACTOR   1.00000000
 TOTAL ATOMIC CHARGES:
   4.6483217   4.6755056   4.6900884   4.7020975   4.6899867   4.7021151
   4.7023721   4.6904019   4.7023445   4.6904052   4.6759388   4.6484342
   0.9130503   0.9056809   0.9057948   0.9130574   0.9200942   0.9163731
   0.9164249   0.9201122   0.9130101   0.8996191   0.8996229   0.9131642
   0.9130042   0.8996053   0.8996142   0.9131281   0.9200787   0.9163618
   0.9164963   0.9201741   0.9129953   0.9056071   0.9058095   0.9130443
   5.8677454   5.8667911   6.1525146   6.0903583   6.0908683   6.1529658
   6.1399051   6.1521350   6.1528008   6.1408090   5.8694935   5.8705282
   5.8434288   5.9401757   6.1317453   6.1515205   6.1522987   6.1324222
   6.1319223   6.1516440   6.1522030   6.1323518   5.9434748   5.8464649
   5.8676759   5.8667132   6.1400031   6.1522012   6.1526511   6.1407286
   6.1527672   6.0905722   6.0906010   6.1526946   5.8697014   5.8707669
   8.3350461   8.3343613   8.3354359   8.3347207   8.3710236   8.3430871
   8.3342609   8.3348487   8.3428026   8.3709593   8.3346669   8.3352085
 TTTTTTTTTTTTTTTTTTTTTTTTTTTTTT MOQGAD      TELAPSE       83.78 TCPU     1722.90
 TTTTTTTTTTTTTTTTTTTTTTTTTTTTTT SHELLXN     TELAPSE      106.37 TCPU     2443.67
 TTTTTTTTTTTTTTTTTTTTTTTTTTTTTT MONMO3      TELAPSE      107.07 TCPU     2465.83
 NUMERICALLY INTEGRATED DENSITY    395.9999432774
 TTTTTTTTTTTTTTTTTTTTTTTTTTTTTT NUMDFT      TELAPSE      108.85 TCPU     2522.70
 CYC   2 ETOT(AU) -2.578035865700E+03 DETOT -3.84E-01 tst  4.21E-03 PX  1.59E-01
 TTTTTTTTTTTTTTTTTTTTTTTTTTTTTT DIIS        TELAPSE      109.14 TCPU     2529.49
 DIIS TEST: 0.92283E+00 AT SCF   CYCLE   2 - DIIS ACTIVE - HISTORY:     2 CYCLES
 TTTTTTTTTTTTTTTTTTTTTTTTTTTTTT FDIK        TELAPSE      111.31 TCPU     2598.56
 INSULATING STATE
 TOP OF VALENCE BANDS -    BAND    198; K    1; EIG -2.2926819E-01 AU
 BOTTOM OF VIRTUAL BANDS - BAND    199; K    1; EIG -7.9802283E-02 AU
 DIRECT ENERGY BAND GAP:   4.0672 eV
 TTTTTTTTTTTTTTTTTTTTTTTTTTTTTT PDIG        TELAPSE      113.03 TCPU     2605.33
 CHARGE NORMALIZATION FACTOR   1.00000000
 TOTAL ATOMIC CHARGES:
   4.4716495   4.4541294   4.4812900   4.5000858   4.4813242   4.5001940
   4.4996302   4.4806227   4.4994799   4.4804594   4.4535340   4.4711052
   0.8953931   0.8776683   0.8776674   0.8956471   0.8920452   0.8946030
   0.8947168   0.8920641   0.8877913   0.8833648   0.8837455   0.8878386
   0.8878299   0.8834011   0.8836886   0.8877739   0.8920343   0.8946073
   0.8947701   0.8921272   0.8954016   0.8776576   0.8776221   0.8955909
   5.8842398   5.8997834   6.1563034   6.1745565   6.1741714   6.1559125
   6.1653522   6.1530041   6.1522356   6.1642117   5.8983862   5.8828846
   5.9305418   5.9036988   6.1709709   6.1536030   6.1528951   6.1705995
   6.1710648   6.1536681   6.1527667   6.1705094   5.9018477   5.9291830
   5.8845510   5.9000770   6.1653777   6.1529488   6.1523546   6.1643177
   6.1562475   6.1744784   6.1741593   6.1559554   5.8980632   5.8825700
   8.5208732   8.5182917   8.5210308   8.5184621   8.5228321   8.5070387
   8.5183957   8.5211769   8.5072550   8.5226690   8.5185615   8.5213680
 TTTTTTTTTTTTTTTTTTTTTTTTTTTTTT MOQGAD      TELAPSE      113.13 TCPU     2605.44
 TTTTTTTTTTTTTTTTTTTTTTTTTTTTTT SHELLXN     TELAPSE      135.77 TCPU     3327.04
 TTTTTTTTTTTTTTTTTTTTTTTTTTTTTT MONMO3      TELAPSE      136.43 TCPU     3348.20
 NUMERICALLY INTEGRATED DENSITY    395.9999466884
 TTTTTTTTTTTTTTTTTTTTTTTTTTTTTT NUMDFT      TELAPSE      138.16 TCPU     3403.63
 CYC   3 ETOT(AU) -2.578224841364E+03 DETOT -1.89E-01 tst  6.68E-04 PX  6.68E-02
 TTTTTTTTTTTTTTTTTTTTTTTTTTTTTT DIIS        TELAPSE      138.40 TCPU     3410.33
 DIIS TEST: 0.35677E-01 AT SCF   CYCLE   3 - DIIS ACTIVE - HISTORY:     3 CYCLES
 TTTTTTTTTTTTTTTTTTTTTTTTTTTTTT FDIK        TELAPSE      140.59 TCPU     3479.83
 INSULATING STATE
 TOP OF VALENCE BANDS -    BAND    198; K    1; EIG -2.3809018E-01 AU
 BOTTOM OF VIRTUAL BANDS - BAND    199; K    1; EIG -8.8613853E-02 AU
 DIRECT ENERGY BAND GAP:   4.0675 eV
 TTTTTTTTTTTTTTTTTTTTTTTTTTTTTT PDIG        TELAPSE      142.30 TCPU     3486.60
 CHARGE NORMALIZATION FACTOR   1.00000000
 TOTAL ATOMIC CHARGES:
   4.4704446   4.4681799   4.4909255   4.4994200   4.4909488   4.4995198
   4.4996966   4.4911509   4.4995462   4.4910090   4.4684392   4.4704385
   0.8726263   0.8698307   0.8700174   0.8725850   0.8788235   0.8744670
   0.8745053   0.8788123   0.8746557   0.8634957   0.8633902   0.8749241
   0.8746903   0.8635233   0.8633385   0.8748633   0.8788359   0.8744741
   0.8745644   0.8788485   0.8726187   0.8697890   0.8699948   0.8725400
   5.9412358   5.9310201   6.1810566   6.1364564   6.1371787   6.1814845
   6.1697753   6.1767312   6.1780373   6.1717764   5.9345193   5.9448964
   5.9049120   6.0086584   6.1554252   6.1844421   6.1856349   6.1563376
   6.1553501   6.1843665   6.1856742   6.1564040   6.0123546   5.9079499
   5.9412253   5.9310075   6.1697194   6.1766410   6.1781051   6.1719403
   6.1809864   6.1363701   6.1372185   6.1815366   5.9345462   5.9449548
   8.4804948   8.4847567   8.4808078   8.4850416   8.5119013   8.4856615
   8.4849626   8.4803883   8.4855897   8.5125220   8.4853075   8.4807046
 TTTTTTTTTTTTTTTTTTTTTTTTTTTTTT MOQGAD      TELAPSE      142.41 TCPU     3486.71
 TTTTTTTTTTTTTTTTTTTTTTTTTTTTTT SHELLXN     TELAPSE      165.51 TCPU     4223.61
 TTTTTTTTTTTTTTTTTTTTTTTTTTTTTT MONMO3      TELAPSE      166.18 TCPU     4244.90
 NUMERICALLY INTEGRATED DENSITY    395.9999464009
 TTTTTTTTTTTTTTTTTTTTTTTTTTTTTT NUMDFT      TELAPSE      167.91 TCPU     4300.04
 CYC   4 ETOT(AU) -2.578231242156E+03 DETOT -6.40E-03 tst  1.09E-04 PX  2.58E-02
 TTTTTTTTTTTTTTTTTTTTTTTTTTTTTT DIIS        TELAPSE      168.12 TCPU     4306.60
 DIIS TEST: 0.13819E-01 AT SCF   CYCLE   4 - DIIS ACTIVE - HISTORY:     4 CYCLES
 TTTTTTTTTTTTTTTTTTTTTTTTTTTTTT FDIK        TELAPSE      170.20 TCPU     4372.79
 INSULATING STATE
 TOP OF VALENCE BANDS -    BAND    198; K    1; EIG -2.3741752E-01 AU
 BOTTOM OF VIRTUAL BANDS - BAND    199; K    1; EIG -8.8143950E-02 AU
 DIRECT ENERGY BAND GAP:   4.0619 eV
 TTTTTTTTTTTTTTTTTTTTTTTTTTTTTT PDIG        TELAPSE      171.90 TCPU     4379.55
 CHARGE NORMALIZATION FACTOR   1.00000000
 TOTAL ATOMIC CHARGES:
   4.4708165   4.4684249   4.4906970   4.5051326   4.4907128   4.5052336
   4.5048853   4.4903107   4.5047438   4.4901717   4.4681077   4.4704941
   0.8778940   0.8670215   0.8670596   0.8781084   0.8797430   0.8778605
   0.8780287   0.8798266   0.8728466   0.8667933   0.8671318   0.8729335
   0.8728662   0.8668116   0.8670918   0.8728831   0.8797345   0.8778626
   0.8780889   0.8798886   0.8778800   0.8669857   0.8670344   0.8780696
   5.9190093   5.9305383   6.1723987   6.1568112   6.1565012   6.1721589
   6.1731307   6.1721256   6.1711808   6.1717268   5.9290393   5.9176533
   5.9408410   5.9562710   6.1759778   6.1682104   6.1676184   6.1756479
   6.1761101   6.1682824   6.1674839   6.1755340   5.9548550   5.9397754
   5.9192126   5.9307335   6.1731509   6.1720823   6.1712358   6.1718086
   6.1724262   6.1568046   6.1564380   6.1721272   5.9288495   5.9174795
   8.4919646   8.4902712   8.4921705   8.4904814   8.5062740   8.4880717
   8.4902548   8.4921861   8.4881209   8.5059034   8.4904864   8.4924097
 TTTTTTTTTTTTTTTTTTTTTTTTTTTTTT MOQGAD      TELAPSE      172.00 TCPU     4379.65
 TTTTTTTTTTTTTTTTTTTTTTTTTTTTTT SHELLXN     TELAPSE      195.17 TCPU     5118.53
 TTTTTTTTTTTTTTTTTTTTTTTTTTTTTT MONMO3      TELAPSE      195.83 TCPU     5139.54
 NUMERICALLY INTEGRATED DENSITY    395.9999465387
 TTTTTTTTTTTTTTTTTTTTTTTTTTTTTT NUMDFT      TELAPSE      197.56 TCPU     5194.77
 CYC   5 ETOT(AU) -2.578234314397E+03 DETOT -3.07E-03 tst  5.48E-05 PX  1.33E-02
 TTTTTTTTTTTTTTTTTTTTTTTTTTTTTT DIIS        TELAPSE      197.82 TCPU     5201.58
 DIIS TEST: 0.13155E-02 AT SCF   CYCLE   5 - DIIS ACTIVE - HISTORY:     5 CYCLES
 TTTTTTTTTTTTTTTTTTTTTTTTTTTTTT FDIK        TELAPSE      199.88 TCPU     5267.02
 INSULATING STATE
 TOP OF VALENCE BANDS -    BAND    198; K    1; EIG -2.3677367E-01 AU
 BOTTOM OF VIRTUAL BANDS - BAND    199; K    1; EIG -8.7943239E-02 AU
 DIRECT ENERGY BAND GAP:   4.0499 eV
 TTTTTTTTTTTTTTTTTTTTTTTTTTTTTT PDIG        TELAPSE      201.59 TCPU     5273.80
 CHARGE NORMALIZATION FACTOR   1.00000000
 TOTAL ATOMIC CHARGES:
   4.4710667   4.4684695   4.4913847   4.5045172   4.4914033   4.5046172
   4.5046047   4.4913367   4.5044623   4.4911971   4.4685030   4.4709153
   0.8786916   0.8686486   0.8687868   0.8787435   0.8810503   0.8795820
   0.8796207   0.8810421   0.8764856   0.8679074   0.8679505   0.8766911
   0.8765199   0.8679348   0.8678986   0.8766308   0.8810511   0.8795850
   0.8796805   0.8810921   0.8786856   0.8686133   0.8687613   0.8786982
   5.9182937   5.9206008   6.1731400   6.1545433   6.1549073   6.1732900
   6.1708700   6.1691148   6.1699991   6.1721915   5.9228832   5.9206623
   5.9180383   5.9652681   6.1656964   6.1739413   6.1745791   6.1662501
   6.1656752   6.1739149   6.1745626   6.1662658   5.9673228   5.9197671
   5.9184097   5.9207121   6.1708598   6.1690482   6.1700766   6.1723156
   6.1730805   6.1544671   6.1549166   6.1733356   5.9227735   5.9205770
   8.4934829   8.4939590   8.4937415   8.4942038   8.5115409   8.4899977
   8.4941476   8.4934863   8.4900540   8.5120258   8.4944226   8.4937590
 TTTTTTTTTTTTTTTTTTTTTTTTTTTTTT MOQGAD      TELAPSE      201.70 TCPU     5273.91
 TTTTTTTTTTTTTTTTTTTTTTTTTTTTTT SHELLXN     TELAPSE      224.77 TCPU     6009.97
 TTTTTTTTTTTTTTTTTTTTTTTTTTTTTT MONMO3      TELAPSE      225.42 TCPU     6030.71
 NUMERICALLY INTEGRATED DENSITY    395.9999465258
 TTTTTTTTTTTTTTTTTTTTTTTTTTTTTT NUMDFT      TELAPSE      227.12 TCPU     6085.07
 CYC   6 ETOT(AU) -2.578234579390E+03 DETOT -2.65E-04 tst  9.40E-06 PX  5.13E-03
 TTTTTTTTTTTTTTTTTTTTTTTTTTTTTT DIIS        TELAPSE      227.38 TCPU     6091.71
 DIIS TEST: 0.30075E-03 AT SCF   CYCLE   6 - DIIS ACTIVE - HISTORY:     6 CYCLES
 TTTTTTTTTTTTTTTTTTTTTTTTTTTTTT FDIK        TELAPSE      229.45 TCPU     6157.29
 INSULATING STATE
 TOP OF VALENCE BANDS -    BAND    198; K    1; EIG -2.3675588E-01 AU
 BOTTOM OF VIRTUAL BANDS - BAND    199; K    1; EIG -8.7681245E-02 AU
 DIRECT ENERGY BAND GAP:   4.0565 eV
 TTTTTTTTTTTTTTTTTTTTTTTTTTTTTT PDIG        TELAPSE      231.13 TCPU     6164.05
 CHARGE NORMALIZATION FACTOR   1.00000000
 TOTAL ATOMIC CHARGES:
   4.4719719   4.4682218   4.4910421   4.5044865   4.4910621   4.5045866
   4.5043126   4.4907446   4.5041700   4.4906033   4.4679743   4.4716854
   0.8789084   0.8690520   0.8691154   0.8790626   0.8812146   0.8795023
   0.8796413   0.8812722   0.8760672   0.8680245   0.8682632   0.8761887
   0.8760943   0.8680468   0.8682180   0.8761337   0.8812123   0.8795074
   0.8796991   0.8813257   0.8789001   0.8690185   0.8690878   0.8790195
   5.9196569   5.9236809   6.1736027   6.1535863   6.1535362   6.1735263
   6.1707634   6.1710831   6.1706046   6.1700713   5.9232813   5.9194279
   5.9254219   5.9635264   6.1682782   6.1720321   6.1718506   6.1682385
   6.1683446   6.1720655   6.1717643   6.1681774   5.9632926   5.9253019
   5.9198121   5.9238253   6.1707549   6.1710180   6.1706794   6.1701914
   6.1735857   6.1535432   6.1535135   6.1735314   5.9231389   5.9193029
   8.4925986   8.4925206   8.4928281   8.4927471   8.5103340   8.4900443
   8.4925845   8.4927734   8.4900665   8.5101944   8.4928415   8.4930183
 TTTTTTTTTTTTTTTTTTTTTTTTTTTTTT MOQGAD      TELAPSE      231.24 TCPU     6164.16
 TTTTTTTTTTTTTTTTTTTTTTTTTTTTTT SHELLXN     TELAPSE      254.09 TCPU     6893.22
 TTTTTTTTTTTTTTTTTTTTTTTTTTTTTT MONMO3      TELAPSE      254.74 TCPU     6913.95
 NUMERICALLY INTEGRATED DENSITY    395.9999465073
 TTTTTTTTTTTTTTTTTTTTTTTTTTTTTT NUMDFT      TELAPSE      256.46 TCPU     6968.87
 CYC   7 ETOT(AU) -2.578234652569E+03 DETOT -7.32E-05 tst  9.87E-07 PX  1.61E-03
 TTTTTTTTTTTTTTTTTTTTTTTTTTTTTT DIIS        TELAPSE      256.75 TCPU     6975.60
 DIIS TEST: 0.15471E-04 AT SCF   CYCLE   7 - DIIS ACTIVE - HISTORY:     7 CYCLES
 TTTTTTTTTTTTTTTTTTTTTTTTTTTTTT FDIK        TELAPSE      258.84 TCPU     7042.08
 INSULATING STATE
 TOP OF VALENCE BANDS -    BAND    198; K    1; EIG -2.3683156E-01 AU
 BOTTOM OF VIRTUAL BANDS - BAND    199; K    1; EIG -8.7744800E-02 AU
 DIRECT ENERGY BAND GAP:   4.0569 eV
 TTTTTTTTTTTTTTTTTTTTTTTTTTTTTT PDIG        TELAPSE      260.54 TCPU     7048.84
 CHARGE NORMALIZATION FACTOR   1.00000000
 TOTAL ATOMIC CHARGES:
   4.4717139   4.4682441   4.4911229   4.5045894   4.4911419   4.5046895
   4.5045624   4.4909608   4.5044198   4.4908202   4.4681577   4.4715033
   0.8789636   0.8688000   0.8689048   0.8790676   0.8810946   0.8795373
   0.8796168   0.8811132   0.8759560   0.8680567   0.8681921   0.8761220
   0.8759858   0.8680819   0.8681439   0.8760646   0.8810928   0.8795406
   0.8796763   0.8811666   0.8789560   0.8687657   0.8688784   0.8790237
   5.9187460   5.9234807   6.1726847   6.1543510   6.1544972   6.1727096
   6.1709513   6.1699802   6.1702724   6.1713891   5.9245535   5.9199253
   5.9247761   5.9630497   6.1681830   6.1717970   6.1720429   6.1684586
   6.1682156   6.1718035   6.1719857   6.1684290   5.9640120   5.9256220
   5.9188891   5.9236174   6.1709486   6.1699195   6.1703433   6.1715023
   6.1726537   6.1542968   6.1544840   6.1727294   5.9244195   5.9198129
   8.4926225   8.4926064   8.4928641   8.4928402   8.5100555   8.4895368
   8.4927259   8.4926952   8.4895903   8.5102628   8.4929885   8.4929519
 TTTTTTTTTTTTTTTTTTTTTTTTTTTTTT MOQGAD      TELAPSE      260.64 TCPU     7048.95
 TTTTTTTTTTTTTTTTTTTTTTTTTTTTTT SHELLXN     TELAPSE      283.45 TCPU     7776.36
 TTTTTTTTTTTTTTTTTTTTTTTTTTTTTT MONMO3      TELAPSE      284.11 TCPU     7797.72
 NUMERICALLY INTEGRATED DENSITY    395.9999465031
 TTTTTTTTTTTTTTTTTTTTTTTTTTTTTT NUMDFT      TELAPSE      285.86 TCPU     7853.31
 CYC   8 ETOT(AU) -2.578234655988E+03 DETOT -3.42E-06 tst  3.73E-08 PX  3.14E-04
 TTTTTTTTTTTTTTTTTTTTTTTTTTTTTT DIIS        TELAPSE      286.17 TCPU     7860.01
 DIIS TEST: 0.18907E-05 AT SCF   CYCLE   8 - DIIS ACTIVE - HISTORY:     8 CYCLES
 TTTTTTTTTTTTTTTTTTTTTTTTTTTTTT FDIK        TELAPSE      288.25 TCPU     7926.18
 INSULATING STATE
 TOP OF VALENCE BANDS -    BAND    198; K    1; EIG -2.3682547E-01 AU
 BOTTOM OF VIRTUAL BANDS - BAND    199; K    1; EIG -8.7757487E-02 AU
 DIRECT ENERGY BAND GAP:   4.0563 eV
 TTTTTTTTTTTTTTTTTTTTTTTTTTTTTT PDIG        TELAPSE      289.94 TCPU     7932.94
 CHARGE NORMALIZATION FACTOR   1.00000000
 TOTAL ATOMIC CHARGES:
   4.4716027   4.4683810   4.4912148   4.5046569   4.4912336   4.5047568
   4.5045715   4.4909992   4.5044291   4.4908588   4.4682306   4.4713616
   0.8789033   0.8688268   0.8689144   0.8790275   0.8811075   0.8794891
   0.8795940   0.8811431   0.8759305   0.8680036   0.8681826   0.8760789
   0.8759595   0.8680278   0.8681352   0.8760223   0.8811055   0.8794928
   0.8796531   0.8811965   0.8788953   0.8687925   0.8688878   0.8789840
   5.9190663   5.9236598   6.1728791   6.1542370   6.1543046   6.1728633
   6.1711009   6.1702022   6.1701713   6.1710681   5.9241150   5.9196556
   5.9249164   5.9632345   6.1682742   6.1719465   6.1720115   6.1684131
   6.1683151   6.1719610   6.1719470   6.1683754   5.9636931   5.9253562
   5.9192130   5.9237991   6.1710971   6.1701405   6.1702430   6.1711824
   6.1728525   6.1541866   6.1542882   6.1728789   5.9239785   5.9195395
   8.4926922   8.4926481   8.4929304   8.4928797   8.5100917   8.4895634
   8.4927466   8.4928081   8.4896014   8.5101539   8.4930071   8.4930614
 TTTTTTTTTTTTTTTTTTTTTTTTTTTTTT MOQGAD      TELAPSE      290.05 TCPU     7933.05
 TTTTTTTTTTTTTTTTTTTTTTTTTTTTTT SHELLXN     TELAPSE      312.65 TCPU     8653.96
 TTTTTTTTTTTTTTTTTTTTTTTTTTTTTT MONMO3      TELAPSE      313.31 TCPU     8675.01
 NUMERICALLY INTEGRATED DENSITY    395.9999465031
 TTTTTTTTTTTTTTTTTTTTTTTTTTTTTT NUMDFT      TELAPSE      315.03 TCPU     8729.89
 CYC   9 ETOT(AU) -2.578234656063E+03 DETOT -7.44E-08 tst  5.23E-09 PX  1.11E-04
 TTTTTTTTTTTTTTTTTTTTTTTTTTTTTT DIIS        TELAPSE      315.37 TCPU     8736.72
 DIIS TEST: 0.24396E-06 AT SCF   CYCLE   9 - DIIS ACTIVE - HISTORY:     9 CYCLES
 TTTTTTTTTTTTTTTTTTTTTTTTTTTTTT FDIK        TELAPSE      317.43 TCPU     8802.34
 INSULATING STATE
 TOP OF VALENCE BANDS -    BAND    198; K    1; EIG -2.3682071E-01 AU
 BOTTOM OF VIRTUAL BANDS - BAND    199; K    1; EIG -8.7751912E-02 AU
 DIRECT ENERGY BAND GAP:   4.0564 eV
 TTTTTTTTTTTTTTTTTTTTTTTTTTTTTT PDIG        TELAPSE      319.12 TCPU     8809.10
 CHARGE NORMALIZATION FACTOR   1.00000000
 TOTAL ATOMIC CHARGES:
   4.4716402   4.4683573   4.4911780   4.5046247   4.4911968   4.5047247
   4.5045597   4.4909811   4.5044172   4.4908406   4.4682295   4.4714099
   0.8788989   0.8688354   0.8689292   0.8790163   0.8811231   0.8794832
   0.8795794   0.8811529   0.8759291   0.8680106   0.8681742   0.8760833
   0.8759581   0.8680349   0.8681268   0.8760267   0.8811212   0.8794870
   0.8796384   0.8812063   0.8788910   0.8688012   0.8689026   0.8789727
   5.9189569   5.9235193   6.1729480   6.1541663   6.1542610   6.1729469
   6.1709365   6.1702459   6.1703279   6.1710669   5.9241895   5.9197517
   5.9249263   5.9631096   6.1682486   6.1719051   6.1720357   6.1684384
   6.1682898   6.1719191   6.1719709   6.1684006   5.9637438   5.9255080
   5.9191033   5.9236582   6.1709323   6.1701840   6.1703998   6.1711818
   6.1729209   6.1541154   6.1542450   6.1729627   5.9240533   5.9196359
   8.4926846   8.4926197   8.4929229   8.4928515   8.5101047   8.4896366
   8.4927248   8.4927853   8.4896807   8.5102174   8.4929857   8.4930387
 TTTTTTTTTTTTTTTTTTTTTTTTTTTTTT MOQGAD      TELAPSE      319.23 TCPU     8809.21
 TTTTTTTTTTTTTTTTTTTTTTTTTTTTTT SHELLXN     TELAPSE      341.75 TCPU     9527.31
 +++ ENERGIES IN A.U. +++
 ::: EXT EL-POLE                                  -2.7724685177041E+03
 ::: EXT EL-SPHEROPOLE                             3.1858797168212E+01
 ::: BIELET ZONE E-E                               4.4938754847493E+03
 ::: TOTAL E-E                                     1.7532657642135E+03
 ::: TOTAL E-N + N-E                              -7.1589811357704E+03
 ::: TOTAL N-N                                     5.3507540776629E+02
 ::: KINETIC ENERGY                                2.5598333159121E+03
 ::: PSEUDO TOTAL   ENERGY                        -2.3108066478786E+03
 ::: VIRIAL COEFFICIENT                            1.0511281207161E+00
 TTTTTTTTTTTTTTTTTTTTTTTTTTTTTT MONMO3      TELAPSE      342.41 TCPU     9548.47
 NUMERICALLY INTEGRATED DENSITY    395.9999465029
 EXCHANGE ENERGY: -0.252037541535E+03  CORRELATION ENERGY: -0.153904667432E+02
 TTTTTTTTTTTTTTTTTTTTTTTTTTTTTT NUMDFT      TELAPSE      344.13 TCPU     9603.49
 CYC  10 ETOT(AU) -2.578234656157E+03 DETOT -9.41E-08 tst  6.33E-10 PX  1.11E-04

 == SCF ENDED - CONVERGENCE ON ENERGY      E(AU) -2.5782346561567E+03 CYCLES  10


 ENERGY EXPRESSION=HARTREE+FOCK EXCH*0.00000+(HSESOL     EXCH)*1.00000+PBESOL     CORR


 TOTAL ENERGY(DFT)(AU)( 10) -2.5782346561567E+03 DE-9.4E-08 tester 6.3E-10
 TTTTTTTTTTTTTTTTTTTTTTTTTTTTTT EDFT        TELAPSE      344.13 TCPU     9603.50
 
 INFORMATION **** DFTD3 ENERGY **** CALCULATE DFTD3 ENERGY

           DFT-D V3(BJ)
 DF                                         hsesol3c  
 parameters
 s6       :    1.0000
 s8       :    0.0000
 a1       :    0.5196
 a2       :    4.9385
 k1 k3    :   16.0000   -4.0000
 Cutoff   :   50.2022
 CN-Cutoff:   21.1671
 ABC-Cutoff:   21.1671
 
 Edisp /kcal,au:   -56.1496 -0.08948010

 E6    /kcal :   -60.1374
 E8    /kcal :     0.0000
 E6(ABC) "   :   3.987755
 
 INFORMATION **** DFTD3 ENERGY **** NORMAL TERMINATION OF DFTD3 MODULE

 GCP ENERGY CALCULATION
  level        hsesol3c            basis:hsesol3c
  Nbf            948
  Atoms           84

  Parameters: 
  sigma     1.0000
  eta       1.4281
  alpha     0.2936
  beta      1.9467

  dmp_scal      4.0000
  dmp_exp       6.0000
 cutoffs: 
   distance [bohr] 60.0
   noise    [a.u.] 2.2E-16
 SR-damping   T
 ** gCP correction **
  Egcp:        0.1665118735 / (a.u.) ||     104.4878 / (kcal/mol)
 INFORMATION **** GCP **** NORMAL TERMINATION OF GCP MODULE

 *******************************************************************************

 DFT-D3-GCP DISPERSION AND COUNTERPOISE CORRECTION

 D3 DISPERSION ENERGY (AU)      -8.9480097424068E-02
 GCP ENERGY (AU)                 1.6651187347042E-01
 TOTAL ENERGY + DISP + GCP (AU) -2.5781576243807E+03

 *******************************************************************************

 EIGENVECTORS IN FORTRAN UNIT  8
 TTTTTTTTTTTTTTTTTTTTTTTTTTTTTT END         TELAPSE      347.45 TCPU     9612.41
 EEEEEEEEEE TERMINATION  DATE 19 02 2026 TIME 20:19:27.0
