 Default number of threads is:           32

         
 *******************************************************************************
 *                                                                             *
 *                               CRYSTAL23                                     *
 *                      public : 1.0.1 - October 2022                          *
 *                       HTTP://WWW.CRYSTAL.UNITO.IT                           *
 *                                                                             *
 *                              MAIN AUTHORS                                   *
 *                                                                             *
 *  R. DOVESI(1,11), V.R. SAUNDERS(2), C. ROETTI(1,11), R. ORLANDO(1,11),      *
 *  C.M. ZICOVICH-WILSON(1,3), F. PASCALE(4), B. CIVALLERI(1,11),              *
 *  K. DOLL(5), N.M. HARRISON(6), I.J. BUSH(7), Ph. D'ARCO(8),                 *
 *  M. LLUNELL(9), M. CAUSA'(10), Y. NOEL(8), L. MASCHIO(1,11), A. ERBA(1,11)  *
 *  M. RE'RAT(14), S. CASASSA(1,11), B.G. SEARLE(2), J.K. DESMARAIS(1)         *
 *                                                                             *
 *        CONTRIBUTIONS TO THE CODE HAVE ALSO BEEN GIVEN BY                    *
 *                                                                             *
 *  M. FERRABONE(1,11), M. DE LA PIERRE(1,11), M. FERRERO(1,11),               *
 *  J. BAIMA(1,11), E. ALBANESE(1,11), M.F. PEINTINGER(12), R. BAST(13),       *
 *  B. KIRTMAN(15), V. LACIVITA(1,11), R. DEMICHELIS(1,16)                     *
 *  G. BRANDEBURG(17), S. SALUSTRO(1,11), G. SANSONE(1,11)                     *
 *  M.T. RUGGIERO(18), L.E. DAGA(1), L. DONA'(1), A. COSSARD(1)                *
 *                                                                             *
 * (1) THEORETICAL CHEMISTRY GROUP - UNIVERSITA' DI TORINO - TORINO (ITALY)    *
 * (2) SCIENTIFIC COMPUTING DEPARTMENT - STFC DARESBURY (UK)                   *
 * (3) UNIVERSIDAD AUTONOMA DEL ESTADO DE MORELOS - CUERNAVACA (MEXICO)        *
 * (4) UNIVERSITE' DE LORRAINE - NANCY (FRANCE)                                *
 * (5) UNIVERSITAET STUTTGART- STUTTGART (GERMANY)                             *
 * (6) IMPERIAL COLLEGE - LONDON (UK)                                          *
 * (7) SCIENTIFIC COMPUTING DEPARTMENT - STFC RAL (UK)                         *
 * (8) UPMC - SORBONNE UNIVERSITES - PARIS (FRANCE)                            *
 * (9) UNIVERSIDAD DE BARCELONA - BARCELONA (SPAIN)                            *
 *(10) UNIVERSITA' DI NAPOLI "FEDERICO II" - NAPOLI (ITALY)                    *
 *(11) NIS - NANOSTRUCTURED INTERFACES AND SURFACES - TORINO (ITALY)           *
 *(12) MPI FUER CHEMISCHE ENERGIEKONVERSION - MUELHEIM AN DER RUHR (GERMANY)   *
 *(13) UNIVERSITY OF TROMSO - TROMSO (NORWAY)                                  *
 *(14) UNIVERSITE' DE PAU ET DES PAYS DE L'ADOUR - PAU (FRANCE)                *
 *(15) UNIVERSITY OF CALIFORNIA SANTA BARBARA - SANTA BARBARA (USA)            *
 *(16) CURTIN UNIVERSITY - PERTH (AUSTRALIA)                                   *
 *(17) UNIVERSITY COLLEGE LONDON - LONDON (UK)                                 *
 *(18) UNIVERSITY OF VERMONT - BURLINGTON (USA)                                *
 *                                                                             *
 *******************************************************************************
 EEEEEEEEEE STARTING  DATE 02 12 2025 TIME 08:01:57.5
 COF-5_z37_inc_L040                                                              

 CRYSTAL CALCULATION
 (INPUT ACCORDING TO THE INTERNATIONAL TABLES FOR X-RAY CRYSTALLOGRAPHY)
 CRYSTAL FAMILY                       :  TRICLINIC   
 CRYSTAL CLASS  (GROTH - 1921)        :  TRICLINIC PEDIAL                     

 SPACE GROUP (NONCENTROSYMMETRIC)     :  P 1             

 LATTICE PARAMETERS  (ANGSTROMS AND DEGREES) - CONVENTIONAL CELL
        A           B           C        ALPHA        BETA       GAMMA
    15.02070    15.04439     5.44885    50.55263    89.99952   120.05310


 NUMBER OF IRREDUCIBLE ATOMS IN THE CONVENTIONAL CELL:   42

 INPUT COORDINATES

 ATOM AT. N.              COORDINATES
   1   5     5.384795600000E-01  7.429103000000E-02  5.006379500000E-01
   2   5     6.972574200000E-01  2.333146800000E-01  5.006479400000E-01
   3   5     5.382460300000E-01  2.334413100000E-01  4.992180100000E-01
   4   5     1.509143000000E-01  4.591020900000E-01  5.054328000000E-01
   5   5     3.088658400000E-01  4.573591200000E-01  5.094765700000E-01
   6   5     3.100575300000E-01  6.185300800000E-01  5.035111200000E-01
   7   1     8.266839200000E-01  1.545671000000E-01  5.045362300000E-01
   8   1     2.291759000000E-02  5.400186400000E-01  4.929462600000E-01
   9   1     8.285566200000E-01  4.427616400000E-01  4.928079700000E-01
  10   1     2.118977000000E-02  2.519133800000E-01  5.041048200000E-01
  11   1     5.167104200000E-01  7.483426400000E-01  5.042268800000E-01
  12   1     3.320573800000E-01 -5.328670000000E-02  4.945784300000E-01
  13   1     2.335157400000E-01  7.526000400000E-01  4.958852400000E-01
  14   1     6.150987700000E-01 -5.739560000000E-02  5.023656100000E-01
  15   1     5.173008100000E-01  5.376580100000E-01  4.977826600000E-01
  16   1     3.287143500000E-01  1.535005400000E-01  5.060655300000E-01
  17   1     2.314065200000E-01  2.495340900000E-01  5.057006700000E-01
  18   1     6.149484000000E-01  4.415120400000E-01  4.987160800000E-01
  19   6     8.165884400000E-01  2.928205600000E-01  5.003979600000E-01
  20   6     8.708405500000E-01  2.391015900000E-01  5.021639900000E-01
  21   6    -2.115740000000E-02  4.554015900000E-01  4.957713000000E-01
  22   6     8.718121700000E-01  4.017731200000E-01  4.961084400000E-01
  23   6    -2.202963000000E-02  2.928642700000E-01  5.015203100000E-01
  24   6     3.280805000000E-02  4.012070000000E-01  4.993371100000E-01
  25   6     3.692720100000E-01  7.384073800000E-01  5.018793700000E-01
  26   6     4.770851600000E-01  7.927695700000E-01  5.022695400000E-01
  27   6     3.714386200000E-01 -9.806462000000E-02  4.969933400000E-01
  28   6     3.171479500000E-01  7.946365400000E-01  4.981119700000E-01
  29   6     5.313899200000E-01 -9.992237000000E-02  5.008321800000E-01
  30   6     4.789606900000E-01 -4.443022000000E-02  4.992079700000E-01
  31   6     3.691654300000E-01  3.999375900000E-01  4.999791600000E-01
  32   6     4.770995900000E-01  4.533619800000E-01  4.994277000000E-01
  33   6     3.695650700000E-01  2.379430600000E-01  5.039510900000E-01
  34   6     3.157572700000E-01  2.911754000000E-01  5.033431700000E-01
  35   6     5.307686500000E-01  4.000092200000E-01  5.003660300000E-01
  36   6     4.778227100000E-01  2.919044500000E-01  5.016078400000E-01
  37   8     4.855215400000E-01  1.274228900000E-01  4.996078700000E-01
  38   8     6.442203100000E-01  1.268016500000E-01  5.025978200000E-01
  39   8     6.445251000000E-01  2.869337500000E-01  4.980782500000E-01
  40   8     2.041671400000E-01  5.657895500000E-01  5.027444900000E-01
  41   8     2.027737000000E-01  4.044279400000E-01  5.102320000000E-01
  42   8     3.625948100000E-01  5.647406700000E-01  5.052161400000E-01

 *******************************************************************************

 << INFORMATION >>: FROM NOW ON, ALL COORDINATES REFER TO THE PRIMITIVE CELL

 *******************************************************************************

 LATTICE PARAMETERS  (ANGSTROMS AND DEGREES) - PRIMITIVE CELL
       A          B          C        ALPHA      BETA     GAMMA        VOLUME
   15.02070   15.04439    5.44885    50.55263  89.99952 120.05310    723.756211

 COORDINATES OF THE EQUIVALENT ATOMS (FRACTIONAL UNITS)

 N. ATOM EQUIV AT. N.          X                  Y                  Z

   1   1   1    5 B    -4.61520440000E-01  7.42910300000E-02 -4.99362050000E-01

   2   2   1    5 B    -3.02742580000E-01  2.33314680000E-01 -4.99352060000E-01

   3   3   1    5 B    -4.61753970000E-01  2.33441310000E-01  4.99218010000E-01

   4   4   1    5 B     1.50914300000E-01  4.59102090000E-01 -4.94567200000E-01

   5   5   1    5 B     3.08865840000E-01  4.57359120000E-01 -4.90523430000E-01

   6   6   1    5 B     3.10057530000E-01 -3.81469920000E-01 -4.96488880000E-01

   7   7   1    1 H    -1.73316080000E-01  1.54567100000E-01 -4.95463770000E-01

   8   8   1    1 H     2.29175900000E-02 -4.59981360000E-01  4.92946260000E-01

   9   9   1    1 H    -1.71443380000E-01  4.42761640000E-01  4.92807970000E-01

  10  10   1    1 H     2.11897700000E-02  2.51913380000E-01 -4.95895180000E-01

  11  11   1    1 H    -4.83289580000E-01 -2.51657360000E-01 -4.95773120000E-01

  12  12   1    1 H     3.32057380000E-01 -5.32867000000E-02  4.94578430000E-01

  13  13   1    1 H     2.33515740000E-01 -2.47399960000E-01  4.95885240000E-01

  14  14   1    1 H    -3.84901230000E-01 -5.73956000000E-02 -4.97634390000E-01

  15  15   1    1 H    -4.82699190000E-01 -4.62341990000E-01  4.97782660000E-01

  16  16   1    1 H     3.28714350000E-01  1.53500540000E-01 -4.93934470000E-01

  17  17   1    1 H     2.31406520000E-01  2.49534090000E-01 -4.94299330000E-01

  18  18   1    1 H    -3.85051600000E-01  4.41512040000E-01  4.98716080000E-01

  19  19   1    6 C    -1.83411560000E-01  2.92820560000E-01 -4.99602040000E-01

  20  20   1    6 C    -1.29159450000E-01  2.39101590000E-01 -4.97836010000E-01

  21  21   1    6 C    -2.11574000000E-02  4.55401590000E-01  4.95771300000E-01

  22  22   1    6 C    -1.28187830000E-01  4.01773120000E-01  4.96108440000E-01

  23  23   1    6 C    -2.20296300000E-02  2.92864270000E-01 -4.98479690000E-01

  24  24   1    6 C     3.28080500000E-02  4.01207000000E-01  4.99337110000E-01

  25  25   1    6 C     3.69272010000E-01 -2.61592620000E-01 -4.98120630000E-01

  26  26   1    6 C     4.77085160000E-01 -2.07230430000E-01 -4.97730460000E-01

  27  27   1    6 C     3.71438620000E-01 -9.80646200000E-02  4.96993340000E-01

  28  28   1    6 C     3.17147950000E-01 -2.05363460000E-01  4.98111970000E-01

  29  29   1    6 C    -4.68610080000E-01 -9.99223700000E-02 -4.99167820000E-01

  30  30   1    6 C     4.78960690000E-01 -4.44302200000E-02  4.99207970000E-01

  31  31   1    6 C     3.69165430000E-01  3.99937590000E-01  4.99979160000E-01

  32  32   1    6 C     4.77099590000E-01  4.53361980000E-01  4.99427700000E-01

  33  33   1    6 C     3.69565070000E-01  2.37943060000E-01 -4.96048910000E-01

  34  34   1    6 C     3.15757270000E-01  2.91175400000E-01 -4.96656830000E-01

  35  35   1    6 C    -4.69231350000E-01  4.00009220000E-01 -4.99633970000E-01

  36  36   1    6 C     4.77822710000E-01  2.91904450000E-01 -4.98392160000E-01

  37  37   1    8 O     4.85521540000E-01  1.27422890000E-01  4.99607870000E-01

  38  38   1    8 O    -3.55779690000E-01  1.26801650000E-01 -4.97402180000E-01

  39  39   1    8 O    -3.55474900000E-01  2.86933750000E-01  4.98078250000E-01

  40  40   1    8 O     2.04167140000E-01 -4.34210450000E-01 -4.97255510000E-01

  41  41   1    8 O     2.02773700000E-01  4.04427940000E-01 -4.89768000000E-01

  42  42   1    8 O     3.62594810000E-01 -4.35259330000E-01 -4.94783860000E-01

 NUMBER OF SYMMETRY OPERATORS         :    1
 *******************************************************************************
 * GEOMETRY EDITING - INPUT COORDINATES ARE GIVEN IN ANGSTROM         
 *******************************************************************************

 GCALCO - MAX INDICES DIRECT LATTICE VECTOR     9    12    28
 NO.OF VECTORS CREATED 6999 STARS 3500 RMAX   201.34511 BOHR

 GEOMETRY FOR WAVE FUNCTION - DIMENSIONALITY OF THE SYSTEM    3
 (NON PERIODIC DIRECTION: LATTICE PARAMETER FORMALLY SET TO 500)
 *******************************************************************************
 LATTICE PARAMETERS (ANGSTROMS AND DEGREES) - BOHR = 0.5291772083 ANGSTROM
 PRIMITIVE CELL - CENTRING CODE 1/0 VOLUME=   723.756211 - DENSITY  0.895 g/cm^3
         A              B              C           ALPHA      BETA       GAMMA 
    15.02070100    15.04438700     5.44885300    50.552633  89.999515 120.053104
 *******************************************************************************
 ATOMS IN THE ASYMMETRIC UNIT   42 - ATOMS IN THE UNIT CELL:   42
     ATOM                 X/A                 Y/B                 Z/C    
 *******************************************************************************
      1 T   5 B    -4.615204400000E-01  7.429103000000E-02 -4.993620500000E-01
      2 T   5 B    -3.027425800000E-01  2.333146800000E-01 -4.993520600000E-01
      3 T   5 B    -4.617539700000E-01  2.334413100000E-01  4.992180100000E-01
      4 T   5 B     1.509143000000E-01  4.591020900000E-01 -4.945672000000E-01
      5 T   5 B     3.088658400000E-01  4.573591200000E-01 -4.905234300000E-01
      6 T   5 B     3.100575300000E-01 -3.814699200000E-01 -4.964888800000E-01
      7 T   1 H    -1.733160800000E-01  1.545671000000E-01 -4.954637700000E-01
      8 T   1 H     2.291759000000E-02 -4.599813600000E-01  4.929462600000E-01
      9 T   1 H    -1.714433800000E-01  4.427616400000E-01  4.928079700000E-01
     10 T   1 H     2.118977000000E-02  2.519133800000E-01 -4.958951800000E-01
     11 T   1 H    -4.832895800000E-01 -2.516573600000E-01 -4.957731200000E-01
     12 T   1 H     3.320573800000E-01 -5.328670000000E-02  4.945784300000E-01
     13 T   1 H     2.335157400000E-01 -2.473999600000E-01  4.958852400000E-01
     14 T   1 H    -3.849012300000E-01 -5.739560000000E-02 -4.976343900000E-01
     15 T   1 H    -4.826991900000E-01 -4.623419900000E-01  4.977826600000E-01
     16 T   1 H     3.287143500000E-01  1.535005400000E-01 -4.939344700000E-01
     17 T   1 H     2.314065200000E-01  2.495340900000E-01 -4.942993300000E-01
     18 T   1 H    -3.850516000000E-01  4.415120400000E-01  4.987160800000E-01
     19 T   6 C    -1.834115600000E-01  2.928205600000E-01 -4.996020400000E-01
     20 T   6 C    -1.291594500000E-01  2.391015900000E-01 -4.978360100000E-01
     21 T   6 C    -2.115740000000E-02  4.554015900000E-01  4.957713000000E-01
     22 T   6 C    -1.281878300000E-01  4.017731200000E-01  4.961084400000E-01
     23 T   6 C    -2.202963000000E-02  2.928642700000E-01 -4.984796900000E-01
     24 T   6 C     3.280805000000E-02  4.012070000000E-01  4.993371100000E-01
     25 T   6 C     3.692720100000E-01 -2.615926200000E-01 -4.981206300000E-01
     26 T   6 C     4.770851600000E-01 -2.072304300000E-01 -4.977304600000E-01
     27 T   6 C     3.714386200000E-01 -9.806462000000E-02  4.969933400000E-01
     28 T   6 C     3.171479500000E-01 -2.053634600000E-01  4.981119700000E-01
     29 T   6 C    -4.686100800000E-01 -9.992237000000E-02 -4.991678200000E-01
     30 T   6 C     4.789606900000E-01 -4.443022000000E-02  4.992079700000E-01
     31 T   6 C     3.691654300000E-01  3.999375900000E-01  4.999791600000E-01
     32 T   6 C     4.770995900000E-01  4.533619800000E-01  4.994277000000E-01
     33 T   6 C     3.695650700000E-01  2.379430600000E-01 -4.960489100000E-01
     34 T   6 C     3.157572700000E-01  2.911754000000E-01 -4.966568300000E-01
     35 T   6 C    -4.692313500000E-01  4.000092200000E-01 -4.996339700000E-01
     36 T   6 C     4.778227100000E-01  2.919044500000E-01 -4.983921600000E-01
     37 T   8 O     4.855215400000E-01  1.274228900000E-01  4.996078700000E-01
     38 T   8 O    -3.557796900000E-01  1.268016500000E-01 -4.974021800000E-01
     39 T   8 O    -3.554749000000E-01  2.869337500000E-01  4.980782500000E-01
     40 T   8 O     2.041671400000E-01 -4.342104500000E-01 -4.972555100000E-01
     41 T   8 O     2.027737000000E-01  4.044279400000E-01 -4.897680000000E-01
     42 T   8 O     3.625948100000E-01 -4.352593300000E-01 -4.947838600000E-01

 T = ATOM BELONGING TO THE ASYMMETRIC UNIT

 ****    1 SYMMOPS - TRANSLATORS IN FRACTIONAL UNITS
 **** MATRICES AND TRANSLATORS IN THE CRYSTALLOGRAPHIC REFERENCE FRAME
   V INV                    ROTATION MATRICES                   TRANSLATORS
   1   1  1.00  0.00  0.00  0.00  1.00  0.00  0.00  0.00  1.00  0.00  0.00  0.00

 DIRECT LATTICE VECTORS CARTESIAN COMPONENTS (ANGSTROM)
          X                    Y                    Z
   0.130013421718E+02  -0.752240388864E+01   0.000000000000E+00
   0.000000000000E+00   0.150443870000E+02   0.000000000000E+00
   0.200313956836E+01   0.346203295132E+01   0.370023765849E+01


 CARTESIAN COORDINATES - PRIMITIVE CELL
 *******************************************************************************
 *      ATOM          X(ANGSTROM)         Y(ANGSTROM)         Z(ANGSTROM)
 *******************************************************************************
    1     5 B    -7.000677040998E+00  2.860598286754E+00 -1.847758262628E+00
    2     5 B    -4.936331742472E+00  4.058655013721E+00 -1.847721297254E+00
    3     5 B     5.994784589340E+00 -2.270646370499E+00 -1.853012378089E+00
    4     5 B     9.714013253827E-01  4.059463254255E+00 -1.830016178092E+00
    5     5 B     3.033083579174E+00  2.859065725320E+00 -1.815053268055E+00
    6     5 B     1.033487951332E+00  1.792134111443E+00 -5.537364509280E+00
    7     1 H    -3.245824742324E+00  1.913808926099E+00 -1.833333700169E+00
    8     1 H     1.285399587822E+00 -5.385936765411E+00  1.824018314861E+00
    9     1 H    -1.241830902157E+00 -5.387525759878E+00  1.823506608996E+00
   10     1 H    -7.178518065039E-01  1.913678917390E+00 -1.834930019697E+00
   11     1 H    -5.273376382876E+00  1.595118774195E+00  1.865759289796E+00
   12     1 H     5.307901240831E+00 -1.587288641645E+00  1.830057731760E+00
   13     1 H     4.029345383843E+00 -3.761809411707E+00  1.834893239335E+00
   14     1 H    -3.997924162394E+00  3.771107186228E+00  1.858872148450E+00
   15     1 H    -5.278609192541E+00 -1.601253588494E+00  1.841914144273E+00
   16     1 H     3.284308060090E+00 -1.873417987156E+00 -1.827674926718E+00
   17     1 H     2.018444800765E+00  3.020735454724E-01 -1.829024995430E+00
   18     1 H    -4.007189692166E+00 -3.779023849600E+00  1.845368020108E+00
   19     6 C    -3.385369064574E+00  4.055362933336E+00 -1.848646282664E+00
   20     6 C    -2.676481214352E+00  2.845201730237E+00 -1.842111551952E+00
   21     6 C    -1.285115057336E+00  5.264735894008E+00 -1.865766024229E+00
   22     6 C    -2.675978962084E+00  5.264221749734E+00 -1.864518526105E+00
   23     6 C    -1.284939148608E+00  2.845926078386E+00 -1.844493320928E+00
   24     6 C    -5.763489613278E-01  4.055806549527E+00 -1.852571679784E+00
   25     6 C     1.800087044345E+00  3.144530198273E+00 -5.543402372079E+00
   26     6 C    -5.792478771984E+00  2.554795536672E+00  1.858516666618E+00
   27     6 C     5.824747618995E+00 -2.548826094101E+00  1.838993472684E+00
   28     6 C     5.121136813605E+00 -3.750802286667E+00  1.843132669536E+00
   29     6 C    -5.089323238358E+00  3.755700994053E+00  1.853198093017E+00
   30     6 C    -5.774227116709E+00  4.979317149206E+00  1.847188130010E+00
   31     6 C     3.798034543813E+00  1.508715789196E+00 -1.850195942195E+00
   32     6 C     5.200218838650E+00  1.498619470003E+00 -1.852236475254E+00
   33     6 C     3.811186730345E+00 -9.176479129563E-01 -1.835498857232E+00
   34     6 C     3.110395362428E+00  2.858593758068E-01 -1.837748305710E+00
   35     6 C     5.899868257699E+00  2.954880847801E-01 -1.848764431252E+00
   36     6 C     5.213987493900E+00 -9.283019795628E-01 -1.844169439126E+00
   37     8 O     5.310076398010E+00 -3.467663893338E+00 -1.851569803436E+00
   38     8 O    -5.621979475602E+00  2.861948881176E+00 -1.840506277849E+00
   39     8 O    -1.620790989309E+00 -2.867222586409E+00  5.543245556007E+00
   40     8 O     1.658374659708E+00  5.254614302042E+00 -1.839963563991E+00
   41     8 O     1.655256597022E+00  2.863431819076E+00 -1.812257997521E+00
   42     8 O     3.723098066769E+00  4.055634558273E+00 -1.830817871583E+00

 *******************************************************************************
 STARTING BASIS SET HANDLING 
 *******************************************************************************

 Loading internal basis set: SOLDEF2MSVP         

 Please cite in your publication:
 L. Dona', J. G. Brandenburg and B. Civalleri, J. Chem. Phys., 151, 121101 (2019
 )                                                                              
                                                                                
                    

 *******************************************************************************
 LOCAL ATOMIC FUNCTIONS BASIS SET
 *******************************************************************************
   ATOM   X(AU)   Y(AU)   Z(AU)  N. TYPE  EXPONENT  S COEF   P COEF   D/F/G COEF
 *******************************************************************************
   1 B  -13.229   5.406  -3.492
                                  1 S  
                                         2.410E+03 1.755E-03 0.000E+00 0.000E+00
                                         3.619E+02 1.344E-02 0.000E+00 0.000E+00
                                         8.231E+01 6.637E-02 0.000E+00 0.000E+00
                                         2.311E+01 2.303E-01 0.000E+00 0.000E+00
                                         7.252E+00 5.150E-01 0.000E+00 0.000E+00
                                  2 S  
                                         2.367E+00 1.000E+00 0.000E+00 0.000E+00
                                  3 S  
                                         5.533E-01 1.000E+00 0.000E+00 0.000E+00
                                  4 S  
                                         1.716E-01 1.000E+00 0.000E+00 0.000E+00
                           5-     7 P  
                                         6.002E+00 0.000E+00-3.555E-02 0.000E+00
                                         1.240E+00 0.000E+00-1.983E-01 0.000E+00
                                         3.367E-01 0.000E+00-5.048E-01 0.000E+00
                           8-    10 P  
                                         1.256E-01 0.000E+00 1.000E+00 0.000E+00
                          11-    15 D  
                                         8.880E-01 0.000E+00 0.000E+00 1.000E+00
   2 B   -9.328   7.670  -3.492
   3 B   11.329  -4.291  -3.502
   4 B    1.836   7.671  -3.458
   5 B    5.732   5.403  -3.430
   6 B    1.953   3.387 -10.464
   7 H   -6.134   3.617  -3.464
                                 91 S  
                                         1.874E+01 1.968E-02 0.000E+00 0.000E+00
                                         2.826E+00 1.380E-01 0.000E+00 0.000E+00
                                         6.401E-01 4.783E-01 0.000E+00 0.000E+00
                                 92 S  
                                         1.756E-01 1.000E+00 0.000E+00 0.000E+00
   8 H    2.429 -10.178   3.447
   9 H   -2.347 -10.181   3.446
  10 H   -1.357   3.616  -3.468
  11 H   -9.965   3.014   3.526
  12 H   10.030  -3.000   3.458
  13 H    7.614  -7.109   3.467
  14 H   -7.555   7.126   3.513
  15 H   -9.975  -3.026   3.481
  16 H    6.206  -3.540  -3.454
  17 H    3.814   0.571  -3.456
  18 H   -7.572  -7.141   3.487
  19 C   -6.397   7.664  -3.493
                                115 S  
                                         3.624E+03 1.634E-03 0.000E+00 0.000E+00
                                         5.440E+02 1.252E-02 0.000E+00 0.000E+00
                                         1.237E+02 6.211E-02 0.000E+00 0.000E+00
                                         3.476E+01 2.182E-01 0.000E+00 0.000E+00
                                         1.093E+01 4.980E-01 0.000E+00 0.000E+00
                                116 S  
                                         3.574E+00 1.000E+00 0.000E+00 0.000E+00
                                117 S  
                                         7.742E-01 1.000E+00 0.000E+00 0.000E+00
                                118 S  
                                         2.330E-01 1.000E+00 0.000E+00 0.000E+00
                         119-   121 P  
                                         9.443E+00 0.000E+00 3.790E-02 0.000E+00
                                         2.002E+00 0.000E+00 2.082E-01 0.000E+00
                                         5.463E-01 0.000E+00 5.047E-01 0.000E+00
                         122-   124 P  
                                         1.820E-01 0.000E+00 1.000E+00 0.000E+00
                         125-   129 D  
                                         8.880E-01 0.000E+00 0.000E+00 1.000E+00
  20 C   -5.058   5.377  -3.481
  21 C   -2.429   9.949  -3.526
  22 C   -5.057   9.948  -3.523
  23 C   -2.428   5.378  -3.486
  24 C   -1.089   7.664  -3.501
  25 C    3.402   5.942 -10.476
  26 C  -10.946   4.828   3.512
  27 C   11.007  -4.817   3.475
  28 C    9.678  -7.088   3.483
  29 C   -9.617   7.097   3.502
  30 C  -10.912   9.410   3.491
  31 C    7.177   2.851  -3.496
  32 C    9.827   2.832  -3.500
  33 C    7.202  -1.734  -3.469
  34 C    5.878   0.540  -3.473
  35 C   11.149   0.558  -3.494
  36 C    9.853  -1.754  -3.485
  37 O   10.035  -6.553  -3.499
                                385 S  
                                         6.773E+03 1.727E-03 0.000E+00 0.000E+00
                                         1.017E+03 1.325E-02 0.000E+00 0.000E+00
                                         2.313E+02 6.603E-02 0.000E+00 0.000E+00
                                         6.501E+01 2.353E-01 0.000E+00 0.000E+00
                                         2.050E+01 5.498E-01 0.000E+00 0.000E+00
                                386 S  
                                         6.716E+00 1.000E+00 0.000E+00 0.000E+00
                                387 S  
                                         1.147E+00 1.000E+00 0.000E+00 0.000E+00
                                388 S  
                                         3.342E-01 1.000E+00 0.000E+00 0.000E+00
                         389-   391 P  
                                         1.769E+01 0.000E+00 4.359E-02 0.000E+00
                                         3.854E+00 0.000E+00 2.318E-01 0.000E+00
                                         1.047E+00 0.000E+00 5.146E-01 0.000E+00
                         392-   394 P  
                                         2.759E-01 0.000E+00 1.000E+00 0.000E+00
                         395-   399 D  
                                         8.000E-01 0.000E+00 0.000E+00 1.000E+00
  38 O  -10.624   5.408  -3.478
  39 O   -3.063  -5.418  10.475
  40 O    3.134   9.930  -3.477
  41 O    3.128   5.411  -3.425
  42 O    7.036   7.664  -3.460

 *******************************************************************************
 FINISHED BASIS SET HANDLING 
 *******************************************************************************

 INFORMATION **** SET_MPP **** PCRYSTAL CALCULATION
 INFORMATION **** READM2 **** NEW DEFAULT: FOCK/KS MATRIX MIXING SET TO 30 %
 INFORMATION **** READM2 **** NEW DEFAULT: FULL DIRECT SCF MODE
 INFORMATION **** READM2 **** NEW DEFAULT: COULOMB BIPOLAR BUFFER SET TO 32 Mb
 INFORMATION **** READM2 **** NEW DEFAULT: EXCHANGE BIPOLAR BUFFER SET TO 32 Mb

 *******************************************************************************
 NEW DEFAULT: DFT INTEGRATION GRID INCREASED TO XLGRID
 NEW DEFAULT: DIIS ACCELERATOR ACTIVE
 USE KEYWORD NODIIS TO TURN IT OFF
 *******************************************************************************

 WARNING **** RDDFTP **** HSEsol-HJS ACTIVE
 RANGE SEPARATION - OMEGA:   0.110000000000000     
 WARNING **** RDDFTP **** HSEsol-3c has to be combined with sol-def2-mSVP basis set
 *******************************************************************************
 N. OF ATOMS PER CELL        42  COULOMB OVERLAP TOL         (T1) 10**   -6
 NUMBER OF SHELLS           234  COULOMB PENETRATION TOL     (T2) 10**   -6
 NUMBER OF AO               474  EXCHANGE OVERLAP TOL        (T3) 10**   -6
 N. OF ELECTRONS PER CELL   198  EXCHANGE PSEUDO OVP (F(G))  (T4) 10**   -6
 CORE ELECTRONS PER CELL     60  EXCHANGE PSEUDO OVP (P(G))  (T5) 10**  -12
 N. OF SYMMETRY OPERATORS     1  POLE ORDER IN MONO ZONE                  4
 *******************************************************************************
 TYPE OF CALCULATION :  RESTRICTED CLOSED SHELL
 KOHN-SHAM HAMILTONIAN

 (EXCHANGE)[CORRELATION] FUNCTIONAL:(HSEsol GGA)[PBEsol]

 RANGE-SEPARATED HYBRID FUNCTIONAL 
 OMEGA (SHORT-RANGE)[LONG-RANGE]:(    0.1100)[    0.0000]

 HYBRID EXCHANGE - PERCENTAGE OF FOCK EXCHANGE    25.0000

 CAPPA:IS1  2;IS2  2;IS3  8; K PTS MONK NET  20; SYMMOPS:K SPACE   2;G SPACE   1

 *******************************************************************************
 MAX NUMBER OF SCF CYCLES      50  CONVERGENCE ON DELTAP        10**-16
 WEIGHT OF F(I) IN F(I+1)      30% CONVERGENCE ON ENERGY        10**- 6
 SHRINK. FACT.(MONKH.)    2  2  8  NUMBER OF K POINTS IN THE IBZ     20
 SHRINKING FACTOR(GILAT NET)    8  NUMBER OF K POINTS(GILAT NET)   1028
 *******************************************************************************
 *** K POINTS COORDINATES (OBLIQUE COORDINATES IN UNITS OF IS =  2)
   1-R(  0  0  0)   2-R(  1  0  0)   3-R(  0  1  0)   4-R(  1  1  0)
   5-C(  0  0  1)   6-C(  1  0  1)   7-C(  0  1  1)   8-C(  1  1  1)
   9-C(  0  0  2)  10-C(  1  0  2)  11-C(  0  1  2)  12-C(  1  1  2)
  13-C(  0  0  3)  14-C(  1  0  3)  15-C(  0  1  3)  16-C(  1  1  3)
  17-R(  0  0  4)  18-R(  1  0  4)  19-R(  0  1  4)  20-R(  1  1  4)

 DIRECT LATTICE VECTORS COMPON. (A.U.)     RECIP. LATTICE VECTORS COMPON. (A.U.) 
        X            Y            Z              X            Y            Z
   24.5689761  -14.2152832    0.0000000      0.2557366    0.0000000   -0.1384441
    0.0000000   28.4297713    0.0000000      0.1278719    0.2210072   -0.2760038
    3.7853852    6.5422941    6.9924358      0.0000000    0.0000000    0.8985689

 DISK SPACE FOR EIGENVECTORS (FTN 10)     7189632 REALS

 SYMMETRY ADAPTION OF THE BLOCH FUNCTIONS DISABLED
 TTTTTTTTTTTTTTTTTTTTTTTTTTTTTT gordsh1     TELAPSE        0.04 TCPU        0.04

 MATRIX SIZE: P(G)  332814, F(G)   67918, P(G) IRR  167544, F(G) IRR   68542
 MAX G-VECTOR INDEX FOR 1- AND 2-ELECTRON INTEGRALS  49

 TTTTTTTTTTTTTTTTTTTTTTTTTTTTTT INPUT       TELAPSE        0.36 TCPU        0.36

 NEIGHBORS OF THE NON-EQUIVALENT ATOMS

 N = NUMBER OF NEIGHBORS AT DISTANCE R
    ATOM  N     R/ANG      R/AU   NEIGHBORS (ATOM LABELS AND CELL INDICES)
   1 B    1     1.3787     2.6054   38 O    0 0 0
   1 B    1     1.3795     2.6068   37 O   -1 0 0
   1 B    1     1.5517     2.9323   30 C    0 0-1
   1 B    1     2.3868     4.5104    2 B    0 0 0
   1 B    1     2.3912     4.5187    3 B   -1 0 0
   1 B    1     2.5629     4.8432   27 C   -1 0-1

   2 B    1     1.3792     2.6064   38 O    0 0 0
   2 B    1     1.3798     2.6075   39 O    0 1-2
   2 B    1     1.5510     2.9309   19 C    0 0 0
   2 B    1     2.3868     4.5104    1 B    0 0 0
   2 B    1     2.3894     4.5154    3 B   -1 0 0
   2 B    1     2.5618     4.8411   22 C    0 0 0

   3 B    1     1.3790     2.6060   37 O    0 0 0
   3 B    1     1.3795     2.6069   39 O    1 1-2
   3 B    1     1.5529     2.9346   36 C    0 0 0
   3 B    1     2.3894     4.5154    2 B    1 0 0
   3 B    1     2.3912     4.5187    1 B    1 0 0
   3 B    1     2.5679     4.8526   35 C    0 0 0

   4 B    1     1.3778     2.6038   41 O    0 0 0
   4 B    1     1.3786     2.6051   40 O    0 0 0
   4 B    1     1.5479     2.9251   24 C    0 0 0
   4 B    1     2.3857     4.5084    5 B    0 0 0
   4 B    1     2.3859     4.5087    6 B    0 0 1
   4 B    1     2.5585     4.8348   21 C    0 0 0

   5 B    1     1.3778     2.6037   41 O    0 0 0
   5 B    1     1.3814     2.6104   42 O    0 0 0
   5 B    1     1.5524     2.9335   31 C    0 0 0
   5 B    1     2.3857     4.5084    4 B    0 0 0
   5 B    1     2.3952     4.5263    6 B    0 0 1
   5 B    1     2.5590     4.8359   32 C    0 0 0

   6 B    1     1.3783     2.6045   40 O    0 0-1
   6 B    1     1.3812     2.6101   42 O    0 0-1
   6 B    1     1.5546     2.9377   25 C    0 0 0
   6 B    1     2.3859     4.5087    4 B    0 0-1
   6 B    1     2.3952     4.5263    5 B    0 0-1
   6 B    1     2.5605     4.8386   26 C    1 1-2

   7 H    1     1.0917     2.0629   20 C    0 0 0
   7 H    1     2.1462     4.0556   19 C    0 0 0
   7 H    1     2.1712     4.1029   23 C    0 0 0
   7 H    1     2.5280     4.7772   10 H    0 0 0
   7 H    1     2.5583     4.8346   38 O    0 0 0
   7 H    1     2.7310     5.1609    2 B    0 0 0

   8 H    1     1.0909     2.0615   21 C    0-1 1
   8 H    1     2.1454     4.0542   24 C    0-1 1
   8 H    1     2.1688     4.0985   22 C    0-1 1
   8 H    1     2.5272     4.7758    9 H    0 0 0
   8 H    1     2.5562     4.8305   40 O    0-1 1
   8 H    1     2.7243     5.1482    4 B    0-1 1

   9 H    1     1.0908     2.0614   22 C    0-1 1
   9 H    1     2.1443     4.0520   19 C    0-1 1
   9 H    1     2.1694     4.0995   21 C    0-1 1
   9 H    1     2.5272     4.7758    8 H    0 0 0
   9 H    1     2.5616     4.8407   39 O    0 0-1
   9 H    1     2.7248     5.1492    2 B    0-1 1

  10 H    1     1.0912     2.0621   23 C    0 0 0
  10 H    1     2.1469     4.0570   24 C    0 0 0
  10 H    1     2.1689     4.0986   20 C    0 0 0
  10 H    1     2.5280     4.7772    7 H    0 0 0
  10 H    1     2.5562     4.8305   41 O    0 0 0
  10 H    1     2.7309     5.1607    4 B    0 0 0

  11 H    1     1.0911     2.0619   26 C    0 0 0
  11 H    1     2.1443     4.0521   25 C   -1-1 2
  11 H    1     2.1684     4.0978   29 C    0 0 0
  11 H    1     2.5223     4.7664   14 H    0 0 0
  11 H    1     2.5622     4.8419   42 O   -1-1 1
  11 H    1     2.7179     5.1361    6 B   -1-1 2

  12 H    1     1.0917     2.0630   27 C    0 0 0
  12 H    1     2.1441     4.0518   30 C    1 0 0
  12 H    1     2.1716     4.1037   28 C    0 0 0
  12 H    1     2.5226     4.7669   13 H    0 0 0
  12 H    1     2.5541     4.8265   37 O    0 0 1
  12 H    1     2.7237     5.1471    1 B    1 0 1

  13 H    1     1.0919     2.0634   28 C    0 0 0
  13 H    1     2.1522     4.0671   25 C    0-1 2
  13 H    1     2.1668     4.0946   27 C    0 0 0
  13 H    1     2.5226     4.7669   12 H    0 0 0
  13 H    1     2.5923     4.8987   40 O    0-1 1
  13 H    1     2.7583     5.2124    6 B    0-1 2

  14 H    1     1.0915     2.0627   29 C    0 0 0
  14 H    1     2.1483     4.0597   30 C    0 0 0
  14 H    1     2.1679     4.0968   26 C    0 0 0
  14 H    1     2.5223     4.7664   11 H    0 0 0
  14 H    1     2.5809     4.8771   38 O    0 0 1
  14 H    1     2.7404     5.1785    1 B    0 0 1

  15 H    1     1.0916     2.0628   32 C   -1-1 1
  15 H    1     2.1436     4.0508   31 C   -1-1 1
  15 H    1     2.1707     4.1021   35 C   -1-1 1
  15 H    1     2.5217     4.7654   18 H    0 0 0
  15 H    1     2.5567     4.8316   42 O   -1-1 1
  15 H    1     2.7165     5.1335    5 B   -1-1 1

  16 H    1     1.0914     2.0625   33 C    0 0 0
  16 H    1     2.1488     4.0606   36 C    0 0 0
  16 H    1     2.1663     4.0937   34 C    0 0 0
  16 H    1     2.5170     4.7564   17 H    0 0 0
  16 H    1     2.5780     4.8717   37 O    0 0 0
  16 H    1     2.7395     5.1770    3 B    0 0 0

  17 H    1     1.0921     2.0638   34 C    0 0 0
  17 H    1     2.1502     4.0633   31 C    0 0 0
  17 H    1     2.1683     4.0976   33 C    0 0 0
  17 H    1     2.5170     4.7564   16 H    0 0 0
  17 H    1     2.5870     4.8888   41 O    0 0 0
  17 H    1     2.7510     5.1986    5 B    0 0 0

  18 H    1     1.0913     2.0622   35 C   -1-1 1
  18 H    1     2.1495     4.0619   36 C   -1-1 1
  18 H    1     2.1656     4.0923   32 C   -1-1 1
  18 H    1     2.5217     4.7654   15 H    0 0 0
  18 H    1     2.5789     4.8734   39 O    0 0-1
  18 H    1     2.7392     5.1763    3 B   -1-1 1

  19 C    1     1.4017     2.6489   22 C    0 0 0
  19 C    1     1.4025     2.6504   20 C    0 0 0
  19 C    1     1.5510     2.9309    2 B    0 0 0
  19 C    1     2.1443     4.0520    9 H    0 1-1
  19 C    1     2.1462     4.0556    7 H    0 0 0
  19 C    1     2.4236     4.5800   21 C    0 0 0

  20 C    1     1.0917     2.0629    7 H    0 0 0
  20 C    1     1.3915     2.6296   23 C    0 0 0
  20 C    1     1.4025     2.6504   19 C    0 0 0
  20 C    1     2.1689     4.0986   10 H    0 0 0
  20 C    1     2.4191     4.5715   22 C    0 0 0
  20 C    1     2.4241     4.5809   24 C    0 0 0

  21 C    1     1.0909     2.0615    8 H    0 1-1
  21 C    1     1.3909     2.6284   22 C    0 0 0
  21 C    1     1.4014     2.6483   24 C    0 0 0
  21 C    1     2.1694     4.0995    9 H    0 1-1
  21 C    1     2.4189     4.5711   23 C    0 0 0
  21 C    1     2.4236     4.5800   19 C    0 0 0

  22 C    1     1.0908     2.0614    9 H    0 1-1
  22 C    1     1.3909     2.6284   21 C    0 0 0
  22 C    1     1.4017     2.6489   19 C    0 0 0
  22 C    1     2.1688     4.0985    8 H    0 1-1
  22 C    1     2.4191     4.5715   20 C    0 0 0
  22 C    1     2.4226     4.5780   24 C    0 0 0

  23 C    1     1.0912     2.0621   10 H    0 0 0
  23 C    1     1.3915     2.6296   20 C    0 0 0
  23 C    1     1.4021     2.6496   24 C    0 0 0
  23 C    1     2.1712     4.1029    7 H    0 0 0
  23 C    1     2.4189     4.5711   21 C    0 0 0
  23 C    1     2.4237     4.5802   19 C    0 0 0

  24 C    1     1.4014     2.6483   21 C    0 0 0
  24 C    1     1.4021     2.6496   23 C    0 0 0
  24 C    1     1.5479     2.9251    4 B    0 0 0
  24 C    1     2.1454     4.0542    8 H    0 1-1
  24 C    1     2.1469     4.0570   10 H    0 0 0
  24 C    1     2.4226     4.5780   22 C    0 0 0

  25 C    1     1.4025     2.6504   26 C    1 1-2
  25 C    1     1.4037     2.6526   28 C    0 1-2
  25 C    1     1.5546     2.9377    6 B    0 0 0
  25 C    1     2.1443     4.0521   11 H    1 1-2
  25 C    1     2.1522     4.0671   13 H    0 1-2
  25 C    1     2.4271     4.5866   27 C    0 1-2

  26 C    1     1.0911     2.0619   11 H    0 0 0
  26 C    1     1.3916     2.6298   29 C    0 0 0
  26 C    1     1.4025     2.6504   25 C   -1-1 2
  26 C    1     2.1679     4.0968   14 H    0 0 0
  26 C    1     2.4165     4.5665   28 C   -1 0 0
  26 C    1     2.4246     4.5819   30 C    0 0 0

  27 C    1     1.0917     2.0630   12 H    0 0 0
  27 C    1     1.3928     2.6320   28 C    0 0 0
  27 C    1     1.4024     2.6502   30 C    1 0 0
  27 C    1     2.1668     4.0946   13 H    0 0 0
  27 C    1     2.4166     4.5668   29 C    1 0 0
  27 C    1     2.4271     4.5866   25 C    0-1 2

  28 C    1     1.0919     2.0634   13 H    0 0 0
  28 C    1     1.3928     2.6320   27 C    0 0 0
  28 C    1     1.4037     2.6526   25 C    0-1 2
  28 C    1     2.1716     4.1037   12 H    0 0 0
  28 C    1     2.4165     4.5665   26 C    1 0 0
  28 C    1     2.4277     4.5877   30 C    1 0 0

  29 C    1     1.0915     2.0627   14 H    0 0 0
  29 C    1     1.3916     2.6298   26 C    0 0 0
  29 C    1     1.4023     2.6499   30 C    0 0 0
  29 C    1     2.1684     4.0978   11 H    0 0 0
  29 C    1     2.4166     4.5668   27 C   -1 0 0
  29 C    1     2.4281     4.5884   25 C   -1-1 2

  30 C    1     1.4023     2.6499   29 C    0 0 0
  30 C    1     1.4024     2.6502   27 C   -1 0 0
  30 C    1     1.5517     2.9323    1 B    0 0 1
  30 C    1     2.1441     4.0518   12 H   -1 0 0
  30 C    1     2.1483     4.0597   14 H    0 0 0
  30 C    1     2.4246     4.5819   26 C    0 0 0

  31 C    1     1.4022     2.6498   32 C    0 0 0
  31 C    1     1.4030     2.6513   34 C    0 0 0
  31 C    1     1.5524     2.9335    5 B    0 0 0
  31 C    1     2.1436     4.0508   15 H    1 1-1
  31 C    1     2.1502     4.0633   17 H    0 0 0
  31 C    1     2.4264     4.5853   33 C    0 0 0

  32 C    1     1.0916     2.0628   15 H    1 1-1
  32 C    1     1.3918     2.6301   35 C    0 0 0
  32 C    1     1.4022     2.6498   31 C    0 0 0
  32 C    1     2.1656     4.0923   18 H    1 1-1
  32 C    1     2.4163     4.5661   34 C    0 0 0
  32 C    1     2.4270     4.5863   36 C    0 0 0

  33 C    1     1.0914     2.0625   16 H    0 0 0
  33 C    1     1.3927     2.6318   34 C    0 0 0
  33 C    1     1.4029     2.6510   36 C    0 0 0
  33 C    1     2.1683     4.0976   17 H    0 0 0
  33 C    1     2.4155     4.5646   35 C    0 0 0
  33 C    1     2.4264     4.5853   31 C    0 0 0

  34 C    1     1.0921     2.0638   17 H    0 0 0
  34 C    1     1.3927     2.6318   33 C    0 0 0
  34 C    1     1.4030     2.6513   31 C    0 0 0
  34 C    1     2.1663     4.0937   16 H    0 0 0
  34 C    1     2.4163     4.5661   32 C    0 0 0
  34 C    1     2.4289     4.5899   36 C    0 0 0

  35 C    1     1.0913     2.0622   18 H    1 1-1
  35 C    1     1.3918     2.6301   32 C    0 0 0
  35 C    1     1.4029     2.6511   36 C    0 0 0
  35 C    1     2.1707     4.1021   15 H    1 1-1
  35 C    1     2.4155     4.5646   33 C    0 0 0
  35 C    1     2.4269     4.5861   31 C    0 0 0

  36 C    1     1.4029     2.6510   33 C    0 0 0
  36 C    1     1.4029     2.6511   35 C    0 0 0
  36 C    1     1.5529     2.9346    3 B    0 0 0
  36 C    1     2.1488     4.0606   16 H    0 0 0
  36 C    1     2.1495     4.0619   18 H    1 1-1
  36 C    1     2.4270     4.5863   32 C    0 0 0

  37 O    1     1.3790     2.6060    3 B    0 0 0
  37 O    1     1.3795     2.6068    1 B    1 0 0
  37 O    1     2.3868     4.5105   39 O    1 1-2
  37 O    1     2.3885     4.5136   38 O    1 0 0
  37 O    1     2.5389     4.7979   30 C    1 0-1
  37 O    1     2.5412     4.8022   36 C    0 0 0

  38 O    1     1.3787     2.6054    1 B    0 0 0
  38 O    1     1.3792     2.6064    2 B    0 0 0
  38 O    1     2.3885     4.5136   37 O   -1 0 0
  38 O    1     2.3912     4.5187   39 O    0 1-2
  38 O    1     2.5351     4.7906   19 C    0 0 0
  38 O    1     2.5405     4.8008   30 C    0 0-1

  39 O    1     1.3795     2.6069    3 B   -1-1 2
  39 O    1     1.3798     2.6075    2 B    0-1 2
  39 O    1     2.3868     4.5105   37 O   -1-1 2
  39 O    1     2.3912     4.5187   38 O    0-1 2
  39 O    1     2.5416     4.8030   19 C    0-1 2
  39 O    1     2.5427     4.8050   36 C   -1-1 2

  40 O    1     1.3783     2.6045    6 B    0 0 1
  40 O    1     1.3786     2.6051    4 B    0 0 0
  40 O    1     2.3876     4.5119   42 O    0 0 0
  40 O    1     2.3913     4.5190   41 O    0 0 0
  40 O    1     2.5354     4.7912   25 C    0 0 1
  40 O    1     2.5360     4.7923   24 C    0 0 0

  41 O    1     1.3778     2.6037    5 B    0 0 0
  41 O    1     1.3778     2.6038    4 B    0 0 0
  41 O    1     2.3870     4.5107   42 O    0 0 0
  41 O    1     2.3913     4.5190   40 O    0 0 0
  41 O    1     2.5305     4.7820   24 C    0 0 0
  41 O    1     2.5354     4.7912   31 C    0 0 0

  42 O    1     1.3812     2.6101    6 B    0 0 1
  42 O    1     1.3814     2.6104    5 B    0 0 0
  42 O    1     2.3870     4.5107   41 O    0 0 0
  42 O    1     2.3876     4.5119   40 O    0 0 0
  42 O    1     2.5481     4.8152   31 C    0 0 0
  42 O    1     2.5522     4.8230   25 C    0 0 1


 SYMMETRY ALLOWED INTERNAL DEGREE(S) OF FREEDOM: 123
 TTTTTTTTTTTTTTTTTTTTTTTTTTTTTT SYMM        TELAPSE        0.36 TCPU        0.36
 TTTTTTTTTTTTTTTTTTTTTTTTTTTTTT INT_SCREEN  TELAPSE        0.40 TCPU        0.39

 DFT PARAMETERS

     ATOM       ELECTRONS   NET CHARGE   R(ANGSTROM)
   1   5  B       5.0000      0.0000     0.89000000
   7   1  H       1.0000      0.0000     1.11000000
  19   6  C       6.0000      0.0000     0.77000000
  37   8  O       8.0000      0.0000     0.74000000

 SIZE OF GRID=    1294476
 TTTTTTTTTTTTTTTTTTTTTTTTTTTTTT MAKE_GRID2  TELAPSE        9.70 TCPU        9.69
 BECKE WEIGHT FUNCTION
 RADSAFE =     2.00
 TOLERANCES - DENSITY:10**- 6; POTENTIAL:10**- 9; GRID WGT:10**-14

 RADIAL INTEGRATION  - INTERVALS (POINTS,UPPER LIMIT):            1( 75,  4.0*R)

 ANGULAR INTEGRATION - INTERVALS (ACCURACY LEVEL [N. POINTS] UPPER LIMIT):
  1(  4[  86]   0.2)  2(  8[ 194]   0.5)  3( 12[ 350]   0.9)  4( 16[ 974]   3.5)
  5( 12[ 350]9999.0)
 TTTTTTTTTTTTTTTTTTTTTTTTTTTTTT INT_CALC    TELAPSE        9.79 TCPU        9.78
 EEEEEEEEEE INT_CALC TERMINATION  DATE 02 12 2025 TIME 08:02:07.3

 *******************************************************************************
 COF-5_z37_inc_L040                                                              
 CRYSTAL - SCF - TYPE OF CALCULATION :  RESTRICTED CLOSED SHELL
 *******************************************************************************

 CAPPA:IS1  2;IS2  2;IS3  8; K PTS MONK NET  20; SYMMOPS:K SPACE   2;G SPACE   1

 TTTTTTTTTTTTTTTTTTTTTTTTTTTTTT SDIK        TELAPSE       10.67 TCPU       17.97

 AAAAAAAAAAAAAAAAAAAAAAAAAAAAAAAAAAAAAAAAAAAAAAAAAAAAAAAAAAAAAAAAAAAAAAAAAAAAAAA
         ATOMIC WAVEFUNCTION(S)


 NUCLEAR CHARGE  5.0  SYMMETRY SPECIES            S    P
 N. ELECTRONS    5.0  NUMBER OF PRIMITIVE GTOS    8    4
                      NUMBER OF CONTRACTED GTOS   4    2
                      NUMBER OF CLOSED SHELLS     2    0
                      OPEN SHELL OCCUPATION       0    1

  ZNUC  SCFIT    TOTAL HF ENERGY   KINETIC ENERGY   VIRIAL THEOREM ACCURACY
   5.0    11    -2.451164084E+01  2.462155050E+01 -1.995536038E+00  1.5E-06

 NUCLEAR CHARGE  1.0  SYMMETRY SPECIES            S
 N. ELECTRONS    1.0  NUMBER OF PRIMITIVE GTOS    4
                      NUMBER OF CONTRACTED GTOS   2
                      NUMBER OF CLOSED SHELLS     0
                      OPEN SHELL OCCUPATION       1

  ZNUC  SCFIT    TOTAL HF ENERGY   KINETIC ENERGY   VIRIAL THEOREM ACCURACY
   1.0     1    -4.977266687E-01  5.190767460E-01 -1.958869132E+00  0.0E+00

 NUCLEAR CHARGE  6.0  SYMMETRY SPECIES            S    P
 N. ELECTRONS    6.0  NUMBER OF PRIMITIVE GTOS    8    4
                      NUMBER OF CONTRACTED GTOS   4    2
                      NUMBER OF CLOSED SHELLS     2    0
                      OPEN SHELL OCCUPATION       0    2

  ZNUC  SCFIT    TOTAL HF ENERGY   KINETIC ENERGY   VIRIAL THEOREM ACCURACY
   6.0     9    -3.766704647E+01  3.775180683E+01 -1.997754800E+00  1.1E-06

 NUCLEAR CHARGE  8.0  SYMMETRY SPECIES            S    P
 N. ELECTRONS    8.0  NUMBER OF PRIMITIVE GTOS    8    4
                      NUMBER OF CONTRACTED GTOS   4    2
                      NUMBER OF CLOSED SHELLS     2    0
                      OPEN SHELL OCCUPATION       0    4

  ZNUC  SCFIT    TOTAL HF ENERGY   KINETIC ENERGY   VIRIAL THEOREM ACCURACY
   8.0    12    -7.477373220E+01  7.477365593E+01 -2.000001020E+00  3.8E-06

 AAAAAAAAAAAAAAAAAAAAAAAAAAAAAAAAAAAAAAAAAAAAAAAAAAAAAAAAAAAAAAAAAAAAAAAAAAAAAAA

 CHARGE NORMALIZATION FACTOR   1.00000000
 TOTAL ATOMIC CHARGES:
   5.0000000   5.0000000   5.0000000   5.0000000   5.0000000   5.0000000
   1.0000000   1.0000000   1.0000000   1.0000000   1.0000000   1.0000000
   1.0000000   1.0000000   1.0000000   1.0000000   1.0000000   1.0000000
   6.0000000   6.0000000   6.0000000   6.0000000   6.0000000   6.0000000
   6.0000000   6.0000000   6.0000000   6.0000000   6.0000000   6.0000000
   6.0000000   6.0000000   6.0000000   6.0000000   6.0000000   6.0000000
   8.0000000   8.0000000   8.0000000   8.0000000   8.0000000   8.0000000
 TTTTTTTTTTTTTTTTTTTTTTTTTTTTTT MOQGAD      TELAPSE       10.77 TCPU       19.64
 TTTTTTTTTTTTTTTTTTTTTTTTTTTTTT SHELLXN     TELAPSE       19.51 TCPU      277.24
 TTTTTTTTTTTTTTTTTTTTTTTTTTTTTT MONMO3      TELAPSE       19.66 TCPU      282.12
 NUMERICALLY INTEGRATED DENSITY    197.9999400388
 TTTTTTTTTTTTTTTTTTTTTTTTTTTTTT NUMDFT      TELAPSE       20.28 TCPU      301.90
 CYC   0 ETOT(AU) -1.295953276120E+03 DETOT -1.30E+03 tst  0.00E+00 PX  1.00E+00
 TTTTTTTTTTTTTTTTTTTTTTTTTTTTTT DIIS        TELAPSE       20.32 TCPU      303.15
 TTTTTTTTTTTTTTTTTTTTTTTTTTTTTT FDIK        TELAPSE       20.83 TCPU      319.38
 INSULATING STATE
 TOP OF VALENCE BANDS -    BAND     99; K   17; EIG -3.1171689E-01 AU
 TOP OF VALENCE BANDS -    BAND     99; K    1; EIG -3.1423200E-01 AU
 BOTTOM OF VIRTUAL BANDS - BAND    100; K   17; EIG -1.6133218E-01 AU
 DIRECT ENERGY BAND GAP:   4.0922 eV
 BOTTOM OF VIRTUAL BANDS - BAND    100; K    1; EIG -1.5917613E-01 AU
 TTTTTTTTTTTTTTTTTTTTTTTTTTTTTT PDIG        TELAPSE       21.14 TCPU      325.56
 CHARGE NORMALIZATION FACTOR   1.00000000
 TOTAL ATOMIC CHARGES:
   4.1480296   4.1617909   4.1629087   4.1646445   4.1618480   4.1469832
   0.7853606   0.7853392   0.7848460   0.7848374   0.7858156   0.7857208
   0.7867177   0.7862786   0.7851104   0.7856639   0.7850023   0.7852393
   6.0444569   6.2662560   6.2662813   6.2661036   6.2648193   6.0467459
   6.0446231   6.2650993   6.2634276   6.2657358   6.2656951   6.0480941
   6.0435618   6.2663265   6.2671968   6.2656278   6.2672426   6.0411633
   8.6952142   8.6943932   8.6954491   8.6939278   8.6940154   8.6964069
 TTTTTTTTTTTTTTTTTTTTTTTTTTTTTT MOQGAD      TELAPSE       21.19 TCPU      325.60
 TTTTTTTTTTTTTTTTTTTTTTTTTTTTTT SHELLXN     TELAPSE       29.50 TCPU      590.52
 TTTTTTTTTTTTTTTTTTTTTTTTTTTTTT MONMO3      TELAPSE       29.65 TCPU      595.43
 NUMERICALLY INTEGRATED DENSITY    197.9999562319
 TTTTTTTTTTTTTTTTTTTTTTTTTTTTTT NUMDFT      TELAPSE       30.28 TCPU      615.55
 CYC   1 ETOT(AU) -1.288825654985E+03 DETOT  7.13E+00 tst  0.00E+00 PX  1.00E+00
 TTTTTTTTTTTTTTTTTTTTTTTTTTTTTT DIIS        TELAPSE       30.33 TCPU      617.09
 DIIS TEST: 0.10903E+01 AT SCF   CYCLE   1 - MIX   30 %
 TTTTTTTTTTTTTTTTTTTTTTTTTTTTTT FDIK        TELAPSE       30.83 TCPU      633.21
 INSULATING STATE
 TOP OF VALENCE BANDS -    BAND     99; K   17; EIG -2.2424029E-01 AU
 TOP OF VALENCE BANDS -    BAND     99; K    1; EIG -2.2957112E-01 AU
 BOTTOM OF VIRTUAL BANDS - BAND    100; K   17; EIG -8.5989113E-02 AU
 DIRECT ENERGY BAND GAP:   3.7620 eV
 BOTTOM OF VIRTUAL BANDS - BAND    100; K    1; EIG -8.1763753E-02 AU
 TTTTTTTTTTTTTTTTTTTTTTTTTTTTTT PDIG        TELAPSE       31.15 TCPU      639.38
 CHARGE NORMALIZATION FACTOR   1.00000000
 TOTAL ATOMIC CHARGES:
   4.6683583   4.6978778   4.6985522   4.6992771   4.6988038   4.6682397
   0.9057493   0.9061914   0.9168875   0.9170717   0.8995555   0.8991258
   0.9002387   0.9004557   0.9053150   0.9058318   0.9167730   0.9167984
   5.8714459   6.1338782   6.1320788   6.1424007   6.1442883   5.8674621
   5.8990901   6.1421236   6.1451992   6.1476536   6.1461973   5.8940745
   5.8727316   6.1290223   6.1319843   6.1446125   6.1411808   5.8738910
   8.3318726   8.3304390   8.3479885   8.3290315   8.3449535   8.3352976
 TTTTTTTTTTTTTTTTTTTTTTTTTTTTTT MOQGAD      TELAPSE       31.19 TCPU      639.42
 TTTTTTTTTTTTTTTTTTTTTTTTTTTTTT SHELLXN     TELAPSE       39.41 TCPU      901.34
 TTTTTTTTTTTTTTTTTTTTTTTTTTTTTT MONMO3      TELAPSE       39.56 TCPU      906.19
 NUMERICALLY INTEGRATED DENSITY    197.9999491670
 TTTTTTTTTTTTTTTTTTTTTTTTTTTTTT NUMDFT      TELAPSE       40.18 TCPU      925.92
 CYC   2 ETOT(AU) -1.289019147312E+03 DETOT -1.93E-01 tst  3.43E-03 PX  1.59E-01
 TTTTTTTTTTTTTTTTTTTTTTTTTTTTTT DIIS        TELAPSE       40.23 TCPU      927.53
 DIIS TEST: 0.44727E+00 AT SCF   CYCLE   2 - DIIS ACTIVE - HISTORY:     2 CYCLES
 TTTTTTTTTTTTTTTTTTTTTTTTTTTTTT FDIK        TELAPSE       40.72 TCPU      943.29
 INSULATING STATE
 TOP OF VALENCE BANDS -    BAND     99; K   17; EIG -2.3633169E-01 AU
 TOP OF VALENCE BANDS -    BAND     99; K    1; EIG -2.4000682E-01 AU
 BOTTOM OF VIRTUAL BANDS - BAND    100; K   17; EIG -8.1730951E-02 AU
 DIRECT ENERGY BAND GAP:   4.2069 eV
 BOTTOM OF VIRTUAL BANDS - BAND    100; K    1; EIG -7.7886578E-02 AU
 TTTTTTTTTTTTTTTTTTTTTTTTTTTTTT PDIG        TELAPSE       41.03 TCPU      949.46
 CHARGE NORMALIZATION FACTOR   1.00000000
 TOTAL ATOMIC CHARGES:
   4.4686748   4.4964580   4.4971123   4.4983299   4.4965128   4.4682315
   0.8858840   0.8858156   0.8939097   0.8942501   0.8819599   0.8817903
   0.8834788   0.8829743   0.8847592   0.8858699   0.8943817   0.8937971
   5.8933397   6.1629592   6.1634688   6.1561586   6.1559609   5.8947464
   5.9096845   6.1624599   6.1631488   6.1653211   6.1655551   5.9106138
   5.8938590   6.1627285   6.1631561   6.1566962   6.1576030   5.8935073
   8.5169280   8.5163728   8.5145690   8.5157357   8.5121895   8.5190481
 TTTTTTTTTTTTTTTTTTTTTTTTTTTTTT MOQGAD      TELAPSE       41.08 TCPU      949.51
 TTTTTTTTTTTTTTTTTTTTTTTTTTTTTT SHELLXN     TELAPSE       49.31 TCPU     1211.78
 TTTTTTTTTTTTTTTTTTTTTTTTTTTTTT MONMO3      TELAPSE       49.46 TCPU     1216.66
 NUMERICALLY INTEGRATED DENSITY    197.9999492139
 TTTTTTTTTTTTTTTTTTTTTTTTTTTTTT NUMDFT      TELAPSE       50.08 TCPU     1236.44
 CYC   3 ETOT(AU) -1.289111454904E+03 DETOT -9.23E-02 tst  6.43E-04 PX  6.62E-02
 TTTTTTTTTTTTTTTTTTTTTTTTTTTTTT DIIS        TELAPSE       50.14 TCPU     1238.35
 DIIS TEST: 0.14716E-01 AT SCF   CYCLE   3 - DIIS ACTIVE - HISTORY:     3 CYCLES
 TTTTTTTTTTTTTTTTTTTTTTTTTTTTTT FDIK        TELAPSE       50.64 TCPU     1254.26
 INSULATING STATE
 TOP OF VALENCE BANDS -    BAND     99; K   17; EIG -2.4614325E-01 AU
 TOP OF VALENCE BANDS -    BAND     99; K    1; EIG -2.5161480E-01 AU
 BOTTOM OF VIRTUAL BANDS - BAND    100; K   17; EIG -9.0620827E-02 AU
 DIRECT ENERGY BAND GAP:   4.2320 eV
 BOTTOM OF VIRTUAL BANDS - BAND    100; K    1; EIG -8.5796626E-02 AU
 TTTTTTTTTTTTTTTTTTTTTTTTTTTTTT PDIG        TELAPSE       50.95 TCPU     1260.43
 CHARGE NORMALIZATION FACTOR   1.00000000
 TOTAL ATOMIC CHARGES:
   4.4753032   4.5004686   4.5010874   4.5024096   4.5005797   4.4749466
   0.8689525   0.8693248   0.8760595   0.8763644   0.8627791   0.8625911
   0.8640858   0.8639253   0.8684067   0.8691274   0.8763834   0.8763480
   5.9405770   6.1663482   6.1647521   6.1709676   6.1712043   5.9386015
   5.9617889   6.1734020   6.1744821   6.1759526   6.1753604   5.9597312
   5.9409461   6.1636351   6.1657689   6.1719778   6.1700626   5.9401820
   8.4776994   8.4763808   8.4889076   8.4752972   8.4866875   8.4801440
 TTTTTTTTTTTTTTTTTTTTTTTTTTTTTT MOQGAD      TELAPSE       51.00 TCPU     1260.47
 TTTTTTTTTTTTTTTTTTTTTTTTTTTTTT SHELLXN     TELAPSE       59.21 TCPU     1522.21
 TTTTTTTTTTTTTTTTTTTTTTTTTTTTTT MONMO3      TELAPSE       59.36 TCPU     1527.08
 NUMERICALLY INTEGRATED DENSITY    197.9999500155
 TTTTTTTTTTTTTTTTTTTTTTTTTTTTTT NUMDFT      TELAPSE       59.98 TCPU     1546.85
 CYC   4 ETOT(AU) -1.289114622821E+03 DETOT -3.17E-03 tst  3.01E-05 PX  1.42E-02
 TTTTTTTTTTTTTTTTTTTTTTTTTTTTTT DIIS        TELAPSE       60.04 TCPU     1548.79
 DIIS TEST: 0.41555E-02 AT SCF   CYCLE   4 - DIIS ACTIVE - HISTORY:     4 CYCLES
 TTTTTTTTTTTTTTTTTTTTTTTTTTTTTT FDIK        TELAPSE       60.53 TCPU     1564.54
 INSULATING STATE
 TOP OF VALENCE BANDS -    BAND     99; K   17; EIG -2.4454425E-01 AU
 TOP OF VALENCE BANDS -    BAND     99; K    1; EIG -2.4944004E-01 AU
 BOTTOM OF VIRTUAL BANDS - BAND    100; K   17; EIG -8.9949797E-02 AU
 DIRECT ENERGY BAND GAP:   4.2067 eV
 BOTTOM OF VIRTUAL BANDS - BAND    100; K    1; EIG -8.5708893E-02 AU
 TTTTTTTTTTTTTTTTTTTTTTTTTTTTTT PDIG        TELAPSE       60.84 TCPU     1570.72
 CHARGE NORMALIZATION FACTOR   1.00000000
 TOTAL ATOMIC CHARGES:
   4.4753218   4.5032117   4.5039314   4.5050576   4.5034658   4.4749274
   0.8715547   0.8716196   0.8797040   0.8799765   0.8664895   0.8662457
   0.8678122   0.8674697   0.8706953   0.8716562   0.8800953   0.8797274
   5.9232573   6.1676570   6.1675457   6.1678884   6.1680606   5.9233734
   5.9424825   6.1718824   6.1731624   6.1748107   6.1747946   5.9421792
   5.9238520   6.1663575   6.1673916   6.1684391   6.1683920   5.9238143
   8.4901571   8.4892553   8.4939070   8.4884526   8.4914600   8.4924654
 TTTTTTTTTTTTTTTTTTTTTTTTTTTTTT MOQGAD      TELAPSE       60.89 TCPU     1570.76
 TTTTTTTTTTTTTTTTTTTTTTTTTTTTTT SHELLXN     TELAPSE       69.09 TCPU     1832.39
 TTTTTTTTTTTTTTTTTTTTTTTTTTTTTT MONMO3      TELAPSE       69.25 TCPU     1837.25
 NUMERICALLY INTEGRATED DENSITY    197.9999499248
 TTTTTTTTTTTTTTTTTTTTTTTTTTTTTT NUMDFT      TELAPSE       69.87 TCPU     1857.06
 CYC   5 ETOT(AU) -1.289115569836E+03 DETOT -9.47E-04 tst  6.92E-06 PX  6.52E-03
 TTTTTTTTTTTTTTTTTTTTTTTTTTTTTT DIIS        TELAPSE       69.94 TCPU     1859.31
 DIIS TEST: 0.57972E-04 AT SCF   CYCLE   5 - DIIS ACTIVE - HISTORY:     5 CYCLES
 TTTTTTTTTTTTTTTTTTTTTTTTTTTTTT FDIK        TELAPSE       70.43 TCPU     1875.07
 INSULATING STATE
 TOP OF VALENCE BANDS -    BAND     99; K   17; EIG -2.4431087E-01 AU
 TOP OF VALENCE BANDS -    BAND     99; K    1; EIG -2.4921257E-01 AU
 BOTTOM OF VIRTUAL BANDS - BAND    100; K   17; EIG -8.9477938E-02 AU
 DIRECT ENERGY BAND GAP:   4.2132 eV
 BOTTOM OF VIRTUAL BANDS - BAND    100; K    1; EIG -8.5219295E-02 AU
 TTTTTTTTTTTTTTTTTTTTTTTTTTTTTT PDIG        TELAPSE       70.74 TCPU     1881.24
 CHARGE NORMALIZATION FACTOR   1.00000000
 TOTAL ATOMIC CHARGES:
   4.4762184   4.5026295   4.5032774   4.5045250   4.5028082   4.4758452
   0.8724839   0.8727444   0.8805370   0.8808682   0.8674494   0.8672876
   0.8687870   0.8685477   0.8717970   0.8726127   0.8808607   0.8807178
   5.9236261   6.1672394   6.1660808   6.1674203   6.1675345   5.9225426
   5.9431518   6.1713274   6.1720465   6.1739701   6.1736122   5.9417738
   5.9241072   6.1651201   6.1668244   6.1685450   6.1671051   5.9231253
   8.4889768   8.4879294   8.4959520   8.4868992   8.4937490   8.4913438
 TTTTTTTTTTTTTTTTTTTTTTTTTTTTTT MOQGAD      TELAPSE       70.79 TCPU     1881.29
 TTTTTTTTTTTTTTTTTTTTTTTTTTTTTT SHELLXN     TELAPSE       78.98 TCPU     2142.29
 TTTTTTTTTTTTTTTTTTTTTTTTTTTTTT MONMO3      TELAPSE       79.13 TCPU     2147.13
 NUMERICALLY INTEGRATED DENSITY    197.9999498920
 TTTTTTTTTTTTTTTTTTTTTTTTTTTTTT NUMDFT      TELAPSE       79.75 TCPU     2166.88
 CYC   6 ETOT(AU) -1.289115585215E+03 DETOT -1.54E-05 tst  8.95E-08 PX  9.17E-04
 TTTTTTTTTTTTTTTTTTTTTTTTTTTTTT DIIS        TELAPSE       79.82 TCPU     2169.18
 DIIS TEST: 0.12216E-04 AT SCF   CYCLE   6 - DIIS ACTIVE - HISTORY:     6 CYCLES
 TTTTTTTTTTTTTTTTTTTTTTTTTTTTTT FDIK        TELAPSE       80.32 TCPU     2184.89
 INSULATING STATE
 TOP OF VALENCE BANDS -    BAND     99; K   17; EIG -2.4433013E-01 AU
 TOP OF VALENCE BANDS -    BAND     99; K    1; EIG -2.4921714E-01 AU
 BOTTOM OF VIRTUAL BANDS - BAND    100; K   17; EIG -8.9533102E-02 AU
 DIRECT ENERGY BAND GAP:   4.2122 eV
 BOTTOM OF VIRTUAL BANDS - BAND    100; K    1; EIG -8.5258910E-02 AU
 TTTTTTTTTTTTTTTTTTTTTTTTTTTTTT PDIG        TELAPSE       80.63 TCPU     2191.07
 CHARGE NORMALIZATION FACTOR   1.00000000
 TOTAL ATOMIC CHARGES:
   4.4757805   4.5029905   4.5036925   4.5048662   4.5031969   4.4753835
   0.8724993   0.8726216   0.8804949   0.8807818   0.8673828   0.8671439
   0.8687105   0.8684008   0.8716885   0.8726105   0.8808870   0.8805545
   5.9233100   6.1669715   6.1666222   6.1672856   6.1673995   5.9230652
   5.9426177   6.1711289   6.1724135   6.1740637   6.1738659   5.9420873
   5.9237510   6.1654595   6.1667079   6.1678642   6.1676095   5.9236899
   8.4895955   8.4885993   8.4944646   8.4877858   8.4920547   8.4919012
 TTTTTTTTTTTTTTTTTTTTTTTTTTTTTT MOQGAD      TELAPSE       80.68 TCPU     2191.12
 TTTTTTTTTTTTTTTTTTTTTTTTTTTTTT SHELLXN     TELAPSE       88.85 TCPU     2451.96
 TTTTTTTTTTTTTTTTTTTTTTTTTTTTTT MONMO3      TELAPSE       89.01 TCPU     2456.80
 NUMERICALLY INTEGRATED DENSITY    197.9999498840
 TTTTTTTTTTTTTTTTTTTTTTTTTTTTTT NUMDFT      TELAPSE       89.62 TCPU     2476.57
 CYC   7 ETOT(AU) -1.289115587426E+03 DETOT -2.21E-06 tst  3.76E-08 PX  6.23E-04
 TTTTTTTTTTTTTTTTTTTTTTTTTTTTTT DIIS        TELAPSE       89.71 TCPU     2479.14
 DIIS TEST: 0.10147E-05 AT SCF   CYCLE   7 - DIIS ACTIVE - HISTORY:     7 CYCLES
 TTTTTTTTTTTTTTTTTTTTTTTTTTTTTT FDIK        TELAPSE       90.19 TCPU     2494.81
 INSULATING STATE
 TOP OF VALENCE BANDS -    BAND     99; K   17; EIG -2.4432668E-01 AU
 TOP OF VALENCE BANDS -    BAND     99; K    1; EIG -2.4922647E-01 AU
 BOTTOM OF VIRTUAL BANDS - BAND    100; K   17; EIG -8.9548311E-02 AU
 DIRECT ENERGY BAND GAP:   4.2117 eV
 BOTTOM OF VIRTUAL BANDS - BAND    100; K    1; EIG -8.5276925E-02 AU
 TTTTTTTTTTTTTTTTTTTTTTTTTTTTTT PDIG        TELAPSE       90.51 TCPU     2500.98
 CHARGE NORMALIZATION FACTOR   1.00000000
 TOTAL ATOMIC CHARGES:
   4.4758569   4.5030130   4.5036966   4.5048853   4.5032186   4.4754741
   0.8724516   0.8726140   0.8804764   0.8807755   0.8673230   0.8671273
   0.8686679   0.8683668   0.8716747   0.8725675   0.8808345   0.8805800
   5.9233514   6.1670501   6.1664141   6.1673142   6.1674998   5.9229097
   5.9427778   6.1713289   6.1722687   6.1740455   6.1739176   5.9419233
   5.9239650   6.1653582   6.1666883   6.1681868   6.1674055   5.9233628
   8.4894765   8.4885290   8.4947578   8.4875918   8.4924382   8.4918350
 TTTTTTTTTTTTTTTTTTTTTTTTTTTTTT MOQGAD      TELAPSE       90.56 TCPU     2501.03
 TTTTTTTTTTTTTTTTTTTTTTTTTTTTTT SHELLXN     TELAPSE       98.72 TCPU     2761.36
 TTTTTTTTTTTTTTTTTTTTTTTTTTTTTT MONMO3      TELAPSE       98.87 TCPU     2766.21
 NUMERICALLY INTEGRATED DENSITY    197.9999498846
 TTTTTTTTTTTTTTTTTTTTTTTTTTTTTT NUMDFT      TELAPSE       99.48 TCPU     2785.78
 CYC   8 ETOT(AU) -1.289115587431E+03 DETOT -5.53E-09 tst  3.28E-09 PX  1.47E-04
 TTTTTTTTTTTTTTTTTTTTTTTTTTTTTT DIIS        TELAPSE       99.56 TCPU     2788.39
 DIIS TEST: 0.85514E-07 AT SCF   CYCLE   8 - DIIS ACTIVE - HISTORY:     8 CYCLES
 TTTTTTTTTTTTTTTTTTTTTTTTTTTTTT FDIK        TELAPSE      100.05 TCPU     2804.05
 INSULATING STATE
 TOP OF VALENCE BANDS -    BAND     99; K   17; EIG -2.4433015E-01 AU
 TOP OF VALENCE BANDS -    BAND     99; K    1; EIG -2.4922688E-01 AU
 BOTTOM OF VIRTUAL BANDS - BAND    100; K   17; EIG -8.9544146E-02 AU
 DIRECT ENERGY BAND GAP:   4.2119 eV
 BOTTOM OF VIRTUAL BANDS - BAND    100; K    1; EIG -8.5273956E-02 AU
 TTTTTTTTTTTTTTTTTTTTTTTTTTTTTT PDIG        TELAPSE      100.37 TCPU     2810.23
 CHARGE NORMALIZATION FACTOR   1.00000000
 TOTAL ATOMIC CHARGES:
   4.4758759   4.5029826   4.5036699   4.5048578   4.5031862   4.4754859
   0.8724493   0.8726036   0.8804739   0.8807735   0.8673452   0.8671230
   0.8686724   0.8683814   0.8716669   0.8725630   0.8808490   0.8805624
   5.9233651   6.1670341   6.1664963   6.1673478   6.1674435   5.9229117
   5.9427317   6.1711994   6.1723658   6.1740825   6.1738380   5.9420108
   5.9238016   6.1653753   6.1667410   6.1680499   6.1675147   5.9235396
   8.4894860   8.4884758   8.4948076   8.4876150   8.4924443   8.4918007
 TTTTTTTTTTTTTTTTTTTTTTTTTTTTTT MOQGAD      TELAPSE      100.42 TCPU     2810.28
 TTTTTTTTTTTTTTTTTTTTTTTTTTTTTT SHELLXN     TELAPSE      108.50 TCPU     3068.09
 +++ ENERGIES IN A.U. +++
 ::: EXT EL-POLE                                  -1.3953135510080E+03
 ::: EXT EL-SPHEROPOLE                             1.5482917483644E+01
 ::: BIELET ZONE E-E                               2.1582710944029E+03
 ::: TOTAL E-E                                     7.7844046087852E+02
 ::: TOTAL E-N + N-E                              -3.3841349725619E+03
 ::: TOTAL N-N                                     1.7038607968625E+02
 ::: KINETIC ENERGY                                1.2799041620143E+03
 ::: PSEUDO TOTAL   ENERGY                        -1.1554042699828E+03
 ::: VIRIAL COEFFICIENT                            1.0511228435773E+00
 TTTTTTTTTTTTTTTTTTTTTTTTTTTTTT MONMO3      TELAPSE      108.65 TCPU     3072.93
 NUMERICALLY INTEGRATED DENSITY    197.9999498844
 EXCHANGE ENERGY: -0.126019258318E+03  CORRELATION ENERGY: -0.769205916846E+01
 TTTTTTTTTTTTTTTTTTTTTTTTTTTTTT NUMDFT      TELAPSE      109.26 TCPU     3092.53
 CYC   9 ETOT(AU) -1.289115587470E+03 DETOT -3.83E-08 tst  1.09E-09 PX  1.47E-04

 == SCF ENDED - CONVERGENCE ON ENERGY      E(AU) -1.2891155874697E+03 CYCLES   9


 ENERGY EXPRESSION=HARTREE+FOCK EXCH*0.00000+(HSESOL     EXCH)*1.00000+PBESOL     CORR


 TOTAL ENERGY(DFT)(AU)(  9) -1.2891155874697E+03 DE-3.8E-08 tester 1.1E-09
 TTTTTTTTTTTTTTTTTTTTTTTTTTTTTT EDFT        TELAPSE      109.26 TCPU     3092.54
 
 INFORMATION **** DFTD3 ENERGY **** CALCULATE DFTD3 ENERGY

           DFT-D V3(BJ)
 DF                                         hsesol3c  
 parameters
 s6       :    1.0000
 s8       :    0.0000
 a1       :    0.5196
 a2       :    4.9385
 k1 k3    :   16.0000   -4.0000
 Cutoff   :   50.2022
 CN-Cutoff:   21.1671
 ABC-Cutoff:   21.1671
 
 Edisp /kcal,au:   -26.4363 -0.04212894

 E6    /kcal :   -28.0587
 E8    /kcal :     0.0000
 E6(ABC) "   :   1.622391
 
 INFORMATION **** DFTD3 ENERGY **** NORMAL TERMINATION OF DFTD3 MODULE

 GCP ENERGY CALCULATION
  level        hsesol3c            basis:hsesol3c
  Nbf            474
  Atoms           42

  Parameters: 
  sigma     1.0000
  eta       1.4281
  alpha     0.2936
  beta      1.9467

  dmp_scal      4.0000
  dmp_exp       6.0000
 cutoffs: 
   distance [bohr] 60.0
   noise    [a.u.] 2.2E-16
 SR-damping   T
 ** gCP correction **
  Egcp:        0.0831193902 / (a.u.) ||      52.1582 / (kcal/mol)
 INFORMATION **** GCP **** NORMAL TERMINATION OF GCP MODULE

 *******************************************************************************

 DFT-D3-GCP DISPERSION AND COUNTERPOISE CORRECTION

 D3 DISPERSION ENERGY (AU)      -4.2128943539408E-02
 GCP ENERGY (AU)                 8.3119390151422E-02
 TOTAL ENERGY + DISP + GCP (AU) -1.2890745970231E+03

 *******************************************************************************

 EIGENVECTORS IN FORTRAN UNIT 10
 TTTTTTTTTTTTTTTTTTTTTTTTTTTTTT END         TELAPSE      110.61 TCPU     3099.85
 EEEEEEEEEE TERMINATION  DATE 02 12 2025 TIME 08:03:48.1
