 Default number of threads is:           32

         
 *******************************************************************************
 *                                                                             *
 *                               CRYSTAL23                                     *
 *                      public : 1.0.1 - October 2022                          *
 *                       HTTP://WWW.CRYSTAL.UNITO.IT                           *
 *                                                                             *
 *                              MAIN AUTHORS                                   *
 *                                                                             *
 *  R. DOVESI(1,11), V.R. SAUNDERS(2), C. ROETTI(1,11), R. ORLANDO(1,11),      *
 *  C.M. ZICOVICH-WILSON(1,3), F. PASCALE(4), B. CIVALLERI(1,11),              *
 *  K. DOLL(5), N.M. HARRISON(6), I.J. BUSH(7), Ph. D'ARCO(8),                 *
 *  M. LLUNELL(9), M. CAUSA'(10), Y. NOEL(8), L. MASCHIO(1,11), A. ERBA(1,11)  *
 *  M. RE'RAT(14), S. CASASSA(1,11), B.G. SEARLE(2), J.K. DESMARAIS(1)         *
 *                                                                             *
 *        CONTRIBUTIONS TO THE CODE HAVE ALSO BEEN GIVEN BY                    *
 *                                                                             *
 *  M. FERRABONE(1,11), M. DE LA PIERRE(1,11), M. FERRERO(1,11),               *
 *  J. BAIMA(1,11), E. ALBANESE(1,11), M.F. PEINTINGER(12), R. BAST(13),       *
 *  B. KIRTMAN(15), V. LACIVITA(1,11), R. DEMICHELIS(1,16)                     *
 *  G. BRANDEBURG(17), S. SALUSTRO(1,11), G. SANSONE(1,11)                     *
 *  M.T. RUGGIERO(18), L.E. DAGA(1), L. DONA'(1), A. COSSARD(1)                *
 *                                                                             *
 * (1) THEORETICAL CHEMISTRY GROUP - UNIVERSITA' DI TORINO - TORINO (ITALY)    *
 * (2) SCIENTIFIC COMPUTING DEPARTMENT - STFC DARESBURY (UK)                   *
 * (3) UNIVERSIDAD AUTONOMA DEL ESTADO DE MORELOS - CUERNAVACA (MEXICO)        *
 * (4) UNIVERSITE' DE LORRAINE - NANCY (FRANCE)                                *
 * (5) UNIVERSITAET STUTTGART- STUTTGART (GERMANY)                             *
 * (6) IMPERIAL COLLEGE - LONDON (UK)                                          *
 * (7) SCIENTIFIC COMPUTING DEPARTMENT - STFC RAL (UK)                         *
 * (8) UPMC - SORBONNE UNIVERSITES - PARIS (FRANCE)                            *
 * (9) UNIVERSIDAD DE BARCELONA - BARCELONA (SPAIN)                            *
 *(10) UNIVERSITA' DI NAPOLI "FEDERICO II" - NAPOLI (ITALY)                    *
 *(11) NIS - NANOSTRUCTURED INTERFACES AND SURFACES - TORINO (ITALY)           *
 *(12) MPI FUER CHEMISCHE ENERGIEKONVERSION - MUELHEIM AN DER RUHR (GERMANY)   *
 *(13) UNIVERSITY OF TROMSO - TROMSO (NORWAY)                                  *
 *(14) UNIVERSITE' DE PAU ET DES PAYS DE L'ADOUR - PAU (FRANCE)                *
 *(15) UNIVERSITY OF CALIFORNIA SANTA BARBARA - SANTA BARBARA (USA)            *
 *(16) CURTIN UNIVERSITY - PERTH (AUSTRALIA)                                   *
 *(17) UNIVERSITY COLLEGE LONDON - LONDON (UK)                                 *
 *(18) UNIVERSITY OF VERMONT - BURLINGTON (USA)                                *
 *                                                                             *
 *******************************************************************************
 EEEEEEEEEE STARTING  DATE 19 02 2026 TIME 19:00:39.3
 cof-1_z39_L010_incl                                                             

 CRYSTAL CALCULATION
 (INPUT ACCORDING TO THE INTERNATIONAL TABLES FOR X-RAY CRYSTALLOGRAPHY)
 CRYSTAL FAMILY                       :  TRICLINIC   
 CRYSTAL CLASS  (GROTH - 1921)        :  TRICLINIC PEDIAL                     

 SPACE GROUP (NONCENTROSYMMETRIC)     :  P 1             

 LATTICE PARAMETERS  (ANGSTROMS AND DEGREES) - CONVENTIONAL CELL
        A           B           C        ALPHA        BETA       GAMMA
    15.02361    15.02392     4.02616    77.57845    89.99994   119.99596


 NUMBER OF IRREDUCIBLE ATOMS IN THE CONVENTIONAL CELL:   42

 INPUT COORDINATES

 ATOM AT. N.              COORDINATES
   1   5     5.944218700000E-01  1.887969600000E-01  5.012240400000E-01
   2   5     7.534775300000E-01  3.478566200000E-01  5.012240600000E-01
   3   5     5.945165500000E-01  3.480373300000E-01  4.986488800000E-01
   4   5     2.079965800000E-01  5.751119600000E-01  5.012240500000E-01
   5   5     3.671045500000E-01  5.750911900000E-01  5.012240500000E-01
   6   5     3.671837800000E-01  7.344283100000E-01  4.986488800000E-01
   7   1     8.839900900000E-01  2.708191100000E-01  4.958852000000E-01
   8   1     7.761236000000E-02  6.530052400000E-01  4.950688000000E-01
   9   1     8.839540800000E-01  5.560338900000E-01  4.949431500000E-01
  10   1     7.771764000000E-02  3.676439900000E-01  4.949744900000E-01
  11   1     6.716627100000E-01  5.826081000000E-02  5.041133100000E-01
  12   1     2.895286600000E-01  8.646312500000E-01  5.049297700000E-01
  13   1     3.864641000000E-01  5.823426000000E-02  5.050554900000E-01
  14   1     5.749075300000E-01  8.645340200000E-01  5.050239400000E-01
  15   1     6.720192000000E-01  5.559432600000E-01  4.958852500000E-01
  16   1     2.899396700000E-01  3.675611300000E-01  4.950687500000E-01
  17   1     3.868232400000E-01  2.707847200000E-01  4.949430500000E-01
  18   1     5.752723300000E-01  6.529169700000E-01  4.949745900000E-01
  19   6     8.727342100000E-01  4.076275900000E-01  4.985546500000E-01
  20   6     9.274307500000E-01  3.546650300000E-01  4.960108400000E-01
  21   6     3.433820000000E-02  5.690815900000E-01  4.957910900000E-01
  22   6     9.273768500000E-01  5.155378000000E-01  4.964505700000E-01
  23   6     3.441624000000E-02  4.082259100000E-01  4.947546600000E-01
  24   6     8.895943000000E-02  5.158788200000E-01  4.964819500000E-01
  25   6     5.347723000000E-01  6.963031000000E-02  5.014439000000E-01
  26   6     5.878129900000E-01  1.482229000000E-02  5.039876600000E-01
  27   6     3.734253700000E-01  9.079126100000E-01  5.042074900000E-01
  28   6     4.269396100000E-01  1.490300000000E-02  5.035480200000E-01
  29   6     5.343037300000E-01  9.077933700000E-01  5.052438200000E-01
  30   6     4.265811500000E-01  8.532946100000E-01  5.035165800000E-01
  31   6     5.348887700000E-01  4.075584500000E-01  4.985546500000E-01
  32   6     5.881518600000E-01  5.155051800000E-01  4.960108900000E-01
  33   6     3.737734500000E-01  4.080683200000E-01  4.957910400000E-01
  34   6     4.272120000000E-01  3.545356000000E-01  4.964505000000E-01
  35   6     5.347328600000E-01  5.690739400000E-01  4.947547300000E-01
  36   6     4.268835200000E-01  5.158014200000E-01  4.964819500000E-01
  37   8     5.415504100000E-01  2.419941900000E-01  4.993397700000E-01
  38   8     7.002866800000E-01  2.415843400000E-01  5.047727600000E-01
  39   8     7.005993400000E-01  4.011594100000E-01  4.965761800000E-01
  40   8     2.611382400000E-01  6.812746700000E-01  4.993397900000E-01
  41   8     2.609489500000E-01  5.219016200000E-01  5.047727500000E-01
  42   8     4.201837600000E-01  6.814713700000E-01  4.965761600000E-01

 *******************************************************************************

 << INFORMATION >>: FROM NOW ON, ALL COORDINATES REFER TO THE PRIMITIVE CELL

 *******************************************************************************

 LATTICE PARAMETERS  (ANGSTROMS AND DEGREES) - PRIMITIVE CELL
       A          B          C        ALPHA      BETA     GAMMA        VOLUME
   15.02361   15.02392    4.02616    77.57845  89.99994 119.99596    762.379115

 COORDINATES OF THE EQUIVALENT ATOMS (FRACTIONAL UNITS)

 N. ATOM EQUIV AT. N.          X                  Y                  Z

   1   1   1    5 B    -4.05578130000E-01  1.88796960000E-01 -4.98775960000E-01

   2   2   1    5 B    -2.46522470000E-01  3.47856620000E-01 -4.98775940000E-01

   3   3   1    5 B    -4.05483450000E-01  3.48037330000E-01  4.98648880000E-01

   4   4   1    5 B     2.07996580000E-01 -4.24888040000E-01 -4.98775950000E-01

   5   5   1    5 B     3.67104550000E-01 -4.24908810000E-01 -4.98775950000E-01

   6   6   1    5 B     3.67183780000E-01 -2.65571690000E-01  4.98648880000E-01

   7   7   1    1 H    -1.16009910000E-01  2.70819110000E-01  4.95885200000E-01

   8   8   1    1 H     7.76123600000E-02 -3.46994760000E-01  4.95068800000E-01

   9   9   1    1 H    -1.16045920000E-01 -4.43966110000E-01  4.94943150000E-01

  10  10   1    1 H     7.77176400000E-02  3.67643990000E-01  4.94974490000E-01

  11  11   1    1 H    -3.28337290000E-01  5.82608100000E-02 -4.95886690000E-01

  12  12   1    1 H     2.89528660000E-01 -1.35368750000E-01 -4.95070230000E-01

  13  13   1    1 H     3.86464100000E-01  5.82342600000E-02 -4.94944510000E-01

  14  14   1    1 H    -4.25092470000E-01 -1.35465980000E-01 -4.94976060000E-01

  15  15   1    1 H    -3.27980800000E-01 -4.44056740000E-01  4.95885250000E-01

  16  16   1    1 H     2.89939670000E-01  3.67561130000E-01  4.95068750000E-01

  17  17   1    1 H     3.86823240000E-01  2.70784720000E-01  4.94943050000E-01

  18  18   1    1 H    -4.24727670000E-01 -3.47083030000E-01  4.94974590000E-01

  19  19   1    6 C    -1.27265790000E-01  4.07627590000E-01  4.98554650000E-01

  20  20   1    6 C    -7.25692500000E-02  3.54665030000E-01  4.96010840000E-01

  21  21   1    6 C     3.43382000000E-02 -4.30918410000E-01  4.95791090000E-01

  22  22   1    6 C    -7.26231500000E-02 -4.84462200000E-01  4.96450570000E-01

  23  23   1    6 C     3.44162400000E-02  4.08225910000E-01  4.94754660000E-01

  24  24   1    6 C     8.89594300000E-02 -4.84121180000E-01  4.96481950000E-01

  25  25   1    6 C    -4.65227700000E-01  6.96303100000E-02 -4.98556100000E-01

  26  26   1    6 C    -4.12187010000E-01  1.48222900000E-02 -4.96012340000E-01

  27  27   1    6 C     3.73425370000E-01 -9.20873900000E-02 -4.95792510000E-01

  28  28   1    6 C     4.26939610000E-01  1.49030000000E-02 -4.96451980000E-01

  29  29   1    6 C    -4.65696270000E-01 -9.22066300000E-02 -4.94756180000E-01

  30  30   1    6 C     4.26581150000E-01 -1.46705390000E-01 -4.96483420000E-01

  31  31   1    6 C    -4.65111230000E-01  4.07558450000E-01  4.98554650000E-01

  32  32   1    6 C    -4.11848140000E-01 -4.84494820000E-01  4.96010890000E-01

  33  33   1    6 C     3.73773450000E-01  4.08068320000E-01  4.95791040000E-01

  34  34   1    6 C     4.27212000000E-01  3.54535600000E-01  4.96450500000E-01

  35  35   1    6 C    -4.65267140000E-01 -4.30926060000E-01  4.94754730000E-01

  36  36   1    6 C     4.26883520000E-01 -4.84198580000E-01  4.96481950000E-01

  37  37   1    8 O    -4.58449590000E-01  2.41994190000E-01  4.99339770000E-01

  38  38   1    8 O    -2.99713320000E-01  2.41584340000E-01 -4.95227240000E-01

  39  39   1    8 O    -2.99400660000E-01  4.01159410000E-01  4.96576180000E-01

  40  40   1    8 O     2.61138240000E-01 -3.18725330000E-01  4.99339790000E-01

  41  41   1    8 O     2.60948950000E-01 -4.78098380000E-01 -4.95227250000E-01

  42  42   1    8 O     4.20183760000E-01 -3.18528630000E-01  4.96576160000E-01

 NUMBER OF SYMMETRY OPERATORS         :    1
 *******************************************************************************
 * GEOMETRY EDITING - INPUT COORDINATES ARE GIVEN IN ANGSTROM         
 *******************************************************************************

 GCALCO - MAX INDICES DIRECT LATTICE VECTOR     9    10    33
 NO.OF VECTORS CREATED 6999 STARS 3500 RMAX   204.63544 BOHR

 GEOMETRY FOR WAVE FUNCTION - DIMENSIONALITY OF THE SYSTEM    3
 (NON PERIODIC DIRECTION: LATTICE PARAMETER FORMALLY SET TO 500)
 *******************************************************************************
 LATTICE PARAMETERS (ANGSTROMS AND DEGREES) - BOHR = 0.5291772083 ANGSTROM
 PRIMITIVE CELL - CENTRING CODE 1/0 VOLUME=   762.379115 - DENSITY  0.850 g/cm^3
         A              B              C           ALPHA      BETA       GAMMA 
    15.02361100    15.02391600     4.02616400    77.578450  89.999945 119.995964
 *******************************************************************************
 ATOMS IN THE ASYMMETRIC UNIT   42 - ATOMS IN THE UNIT CELL:   42
     ATOM                 X/A                 Y/B                 Z/C    
 *******************************************************************************
      1 T   5 B    -4.055781300000E-01  1.887969600000E-01 -4.987759600000E-01
      2 T   5 B    -2.465224700000E-01  3.478566200000E-01 -4.987759400000E-01
      3 T   5 B    -4.054834500000E-01  3.480373300000E-01  4.986488800000E-01
      4 T   5 B     2.079965800000E-01 -4.248880400000E-01 -4.987759500000E-01
      5 T   5 B     3.671045500000E-01 -4.249088100000E-01 -4.987759500000E-01
      6 T   5 B     3.671837800000E-01 -2.655716900000E-01  4.986488800000E-01
      7 T   1 H    -1.160099100000E-01  2.708191100000E-01  4.958852000000E-01
      8 T   1 H     7.761236000000E-02 -3.469947600000E-01  4.950688000000E-01
      9 T   1 H    -1.160459200000E-01 -4.439661100000E-01  4.949431500000E-01
     10 T   1 H     7.771764000000E-02  3.676439900000E-01  4.949744900000E-01
     11 T   1 H    -3.283372900000E-01  5.826081000000E-02 -4.958866900000E-01
     12 T   1 H     2.895286600000E-01 -1.353687500000E-01 -4.950702300000E-01
     13 T   1 H     3.864641000000E-01  5.823426000000E-02 -4.949445100000E-01
     14 T   1 H    -4.250924700000E-01 -1.354659800000E-01 -4.949760600000E-01
     15 T   1 H    -3.279808000000E-01 -4.440567400000E-01  4.958852500000E-01
     16 T   1 H     2.899396700000E-01  3.675611300000E-01  4.950687500000E-01
     17 T   1 H     3.868232400000E-01  2.707847200000E-01  4.949430500000E-01
     18 T   1 H    -4.247276700000E-01 -3.470830300000E-01  4.949745900000E-01
     19 T   6 C    -1.272657900000E-01  4.076275900000E-01  4.985546500000E-01
     20 T   6 C    -7.256925000000E-02  3.546650300000E-01  4.960108400000E-01
     21 T   6 C     3.433820000000E-02 -4.309184100000E-01  4.957910900000E-01
     22 T   6 C    -7.262315000000E-02 -4.844622000000E-01  4.964505700000E-01
     23 T   6 C     3.441624000000E-02  4.082259100000E-01  4.947546600000E-01
     24 T   6 C     8.895943000000E-02 -4.841211800000E-01  4.964819500000E-01
     25 T   6 C    -4.652277000000E-01  6.963031000000E-02 -4.985561000000E-01
     26 T   6 C    -4.121870100000E-01  1.482229000000E-02 -4.960123400000E-01
     27 T   6 C     3.734253700000E-01 -9.208739000000E-02 -4.957925100000E-01
     28 T   6 C     4.269396100000E-01  1.490300000000E-02 -4.964519800000E-01
     29 T   6 C    -4.656962700000E-01 -9.220663000000E-02 -4.947561800000E-01
     30 T   6 C     4.265811500000E-01 -1.467053900000E-01 -4.964834200000E-01
     31 T   6 C    -4.651112300000E-01  4.075584500000E-01  4.985546500000E-01
     32 T   6 C    -4.118481400000E-01 -4.844948200000E-01  4.960108900000E-01
     33 T   6 C     3.737734500000E-01  4.080683200000E-01  4.957910400000E-01
     34 T   6 C     4.272120000000E-01  3.545356000000E-01  4.964505000000E-01
     35 T   6 C    -4.652671400000E-01 -4.309260600000E-01  4.947547300000E-01
     36 T   6 C     4.268835200000E-01 -4.841985800000E-01  4.964819500000E-01
     37 T   8 O    -4.584495900000E-01  2.419941900000E-01  4.993397700000E-01
     38 T   8 O    -2.997133200000E-01  2.415843400000E-01 -4.952272400000E-01
     39 T   8 O    -2.994006600000E-01  4.011594100000E-01  4.965761800000E-01
     40 T   8 O     2.611382400000E-01 -3.187253300000E-01  4.993397900000E-01
     41 T   8 O     2.609489500000E-01 -4.780983800000E-01 -4.952272500000E-01
     42 T   8 O     4.201837600000E-01 -3.185286300000E-01  4.965761600000E-01

 T = ATOM BELONGING TO THE ASYMMETRIC UNIT

 ****    1 SYMMOPS - TRANSLATORS IN FRACTIONAL UNITS
 **** MATRICES AND TRANSLATORS IN THE CRYSTALLOGRAPHIC REFERENCE FRAME
   V INV                    ROTATION MATRICES                   TRANSLATORS
   1   1  1.00 -0.00  0.00  0.00  1.00  0.00 -0.00 -0.00  1.00  0.00  0.00  0.00

 DIRECT LATTICE VECTORS CARTESIAN COMPONENTS (ANGSTROM)
          X                    Y                    Z
   0.130113578931E+02  -0.751088897922E+01   0.000000000000E+00
   0.000000000000E+00   0.150239160000E+02   0.000000000000E+00
   0.499930728268E+00   0.866038571650E+00   0.390000551464E+01


 CARTESIAN COORDINATES - PRIMITIVE CELL
 *******************************************************************************
 *      ATOM          X(ANGSTROM)         Y(ANGSTROM)         Z(ANGSTROM)
 *******************************************************************************
    1     5 B    -5.526475631952E+00  5.450762754952E+00 -1.945228994571E+00
    2     5 B    -3.456945504777E+00  6.645812339325E+00 -1.945228916571E+00
    3     5 B     7.484826774855E+00  3.293463995674E-01 -1.955272132772E+00
    4     5 B     2.456964518985E+00  6.646235345887E+00 -1.945228955571E+00
    5     5 B     4.527175260293E+00  5.450881000773E+00 -1.945228955571E+00
    6     5 B     5.026849471834E+00 -6.315954205297E+00  1.944733381870E+00
    7     1 H    -1.761468937246E+00  4.503518252994E+00 -1.966050500013E+00
    8     1 H     1.257342298612E+00 -5.367409269634E+00  1.930771050128E+00
    9     1 H    -1.262477707718E+00 -5.369861663202E+00  1.930281014435E+00
   10     1 H     7.587342576353E-01  4.502352286571E+00 -1.969602274035E+00
   11     1 H    -4.520022983897E+00  2.911953447751E+00 -1.933960825638E+00
   12     1 H     4.019590923198E+00 -3.771097693792E+00  1.969228887507E+00
   13     1 H     4.780984748581E+00 -2.456423355477E+00 -1.930286318442E+00
   14     1 H    -5.278553278696E+00  1.594963055340E+00  1.969596151027E+00
   15     1 H    -4.019567296681E+00 -3.778588031267E+00  1.933955209630E+00
   16     1 H     3.520078166227E+00  2.907212931413E+00 -1.969234659515E+00
   17     1 H     4.780602128161E+00  7.254616775626E-01 -1.969724890209E+00
   18     1 H    -5.278830714201E+00 -1.595796825047E+00  1.930403630608E+00
   19     6 C    -1.906588680245E+00  6.645770876310E+00 -1.955639630292E+00
   20     6 C    -1.196184151579E+00  5.437043146659E+00 -1.965560503320E+00
   21     6 C     6.946478102961E-01 -6.302618195219E+00  1.933587985111E+00
   22     6 C    -6.967349009617E-01 -6.303109638466E+00  1.936159960747E+00
   23     6 C     1.952143451929E-01  5.437093270555E+00 -1.970459612247E+00
   24     6 C     9.057588362595E-01  6.646289602653E+00 -1.963723171722E+00
   25     6 C     6.708870272437E+00 -3.402264258698E+00 -1.944371539359E+00
   26     6 C    -5.611084516345E+00  2.889013892218E+00 -1.934450861331E+00
   27     6 C     5.110839953091E+00 -3.751606573657E+00  1.966411991524E+00
   28     6 C     5.306872464520E+00 -3.412741155044E+00 -1.936165459755E+00
   29     6 C    -5.806753927546E+00  2.550048954450E+00  1.970453684239E+00
   30     6 C     5.802123423616E+00 -4.972028334638E+00  1.963717438714E+00
   31     6 C     6.708941280434E+00  1.671362735516E+00 -1.955639630292E+00
   32     6 C    -5.110732461663E+00 -3.756099259580E+00  1.934445206323E+00
   33     6 C     4.611230576300E+00  2.886748868081E+00 -1.966417724532E+00
   34     6 C     5.306868359954E+00  1.681677881085E+00 -1.963845826896E+00
   35     6 C    -5.806414181936E+00 -2.551150413747E+00  1.929546175396E+00
   36     6 C     5.302610111935E+00  4.107016428161E+00 -1.963723171722E+00
   37     8 O     6.796010768243E+00 -8.654156935824E-01 -1.952577657962E+00
   38     8 O    -4.147256586588E+00  5.451770411616E+00 -1.931388967001E+00
   39     8 O    -3.647355449369E+00 -6.318111478344E+00  1.936649840440E+00
   40     8 O     3.647398405071E+00 -6.317435395360E+00  1.947427934680E+00
   41     8 O     3.147720860516E+00  5.452161606218E+00 -1.931389006001E+00
   42     8 O    -7.295942929537E+00 -5.578654063533E-04  1.936649762440E+00

 *******************************************************************************
 STARTING BASIS SET HANDLING 
 *******************************************************************************

 Loading internal basis set: SOLDEF2MSVP         

 Please cite in your publication:
 L. Dona', J. G. Brandenburg and B. Civalleri, J. Chem. Phys., 151, 121101 (2019
 )                                                                              
                                                                                
                    

 *******************************************************************************
 LOCAL ATOMIC FUNCTIONS BASIS SET
 *******************************************************************************
   ATOM   X(AU)   Y(AU)   Z(AU)  N. TYPE  EXPONENT  S COEF   P COEF   D/F/G COEF
 *******************************************************************************
   1 B  -10.444  10.300  -3.676
                                  1 S  
                                         2.410E+03 1.755E-03 0.000E+00 0.000E+00
                                         3.619E+02 1.344E-02 0.000E+00 0.000E+00
                                         8.231E+01 6.637E-02 0.000E+00 0.000E+00
                                         2.311E+01 2.303E-01 0.000E+00 0.000E+00
                                         7.252E+00 5.150E-01 0.000E+00 0.000E+00
                                  2 S  
                                         2.367E+00 1.000E+00 0.000E+00 0.000E+00
                                  3 S  
                                         5.533E-01 1.000E+00 0.000E+00 0.000E+00
                                  4 S  
                                         1.716E-01 1.000E+00 0.000E+00 0.000E+00
                           5-     7 P  
                                         6.002E+00 0.000E+00-3.555E-02 0.000E+00
                                         1.240E+00 0.000E+00-1.983E-01 0.000E+00
                                         3.367E-01 0.000E+00-5.048E-01 0.000E+00
                           8-    10 P  
                                         1.256E-01 0.000E+00 1.000E+00 0.000E+00
                          11-    15 D  
                                         8.880E-01 0.000E+00 0.000E+00 1.000E+00
   2 B   -6.533  12.559  -3.676
   3 B   14.144   0.622  -3.695
   4 B    4.643  12.560  -3.676
   5 B    8.555  10.301  -3.676
   6 B    9.499 -11.935   3.675
   7 H   -3.329   8.510  -3.715
                                 91 S  
                                         1.874E+01 1.968E-02 0.000E+00 0.000E+00
                                         2.826E+00 1.380E-01 0.000E+00 0.000E+00
                                         6.401E-01 4.783E-01 0.000E+00 0.000E+00
                                 92 S  
                                         1.756E-01 1.000E+00 0.000E+00 0.000E+00
   8 H    2.376 -10.143   3.649
   9 H   -2.386 -10.148   3.648
  10 H    1.434   8.508  -3.722
  11 H   -8.542   5.503  -3.655
  12 H    7.596  -7.126   3.721
  13 H    9.035  -4.642  -3.648
  14 H   -9.975   3.014   3.722
  15 H   -7.596  -7.140   3.655
  16 H    6.652   5.494  -3.721
  17 H    9.034   1.371  -3.722
  18 H   -9.976  -3.016   3.648
  19 C   -3.603  12.559  -3.696
                                115 S  
                                         3.624E+03 1.634E-03 0.000E+00 0.000E+00
                                         5.440E+02 1.252E-02 0.000E+00 0.000E+00
                                         1.237E+02 6.211E-02 0.000E+00 0.000E+00
                                         3.476E+01 2.182E-01 0.000E+00 0.000E+00
                                         1.093E+01 4.980E-01 0.000E+00 0.000E+00
                                116 S  
                                         3.574E+00 1.000E+00 0.000E+00 0.000E+00
                                117 S  
                                         7.742E-01 1.000E+00 0.000E+00 0.000E+00
                                118 S  
                                         2.330E-01 1.000E+00 0.000E+00 0.000E+00
                         119-   121 P  
                                         9.443E+00 0.000E+00 3.790E-02 0.000E+00
                                         2.002E+00 0.000E+00 2.082E-01 0.000E+00
                                         5.463E-01 0.000E+00 5.047E-01 0.000E+00
                         122-   124 P  
                                         1.820E-01 0.000E+00 1.000E+00 0.000E+00
                         125-   129 D  
                                         8.880E-01 0.000E+00 0.000E+00 1.000E+00
  20 C   -2.260  10.275  -3.714
  21 C    1.313 -11.910   3.654
  22 C   -1.317 -11.911   3.659
  23 C    0.369  10.275  -3.724
  24 C    1.712  12.560  -3.711
  25 C   12.678  -6.429  -3.674
  26 C  -10.603   5.459  -3.656
  27 C    9.658  -7.090   3.716
  28 C   10.029  -6.449  -3.659
  29 C  -10.973   4.819   3.724
  30 C   10.964  -9.396   3.711
  31 C   12.678   3.158  -3.696
  32 C   -9.658  -7.098   3.656
  33 C    8.714   5.455  -3.716
  34 C   10.029   3.178  -3.711
  35 C  -10.973  -4.821   3.646
  36 C   10.020   7.761  -3.711
  37 O   12.843  -1.635  -3.690
                                385 S  
                                         6.773E+03 1.727E-03 0.000E+00 0.000E+00
                                         1.017E+03 1.325E-02 0.000E+00 0.000E+00
                                         2.313E+02 6.603E-02 0.000E+00 0.000E+00
                                         6.501E+01 2.353E-01 0.000E+00 0.000E+00
                                         2.050E+01 5.498E-01 0.000E+00 0.000E+00
                                386 S  
                                         6.716E+00 1.000E+00 0.000E+00 0.000E+00
                                387 S  
                                         1.147E+00 1.000E+00 0.000E+00 0.000E+00
                                388 S  
                                         3.342E-01 1.000E+00 0.000E+00 0.000E+00
                         389-   391 P  
                                         1.769E+01 0.000E+00 4.359E-02 0.000E+00
                                         3.854E+00 0.000E+00 2.318E-01 0.000E+00
                                         1.047E+00 0.000E+00 5.146E-01 0.000E+00
                         392-   394 P  
                                         2.759E-01 0.000E+00 1.000E+00 0.000E+00
                         395-   399 D  
                                         8.000E-01 0.000E+00 0.000E+00 1.000E+00
  38 O   -7.837  10.302  -3.650
  39 O   -6.893 -11.940   3.660
  40 O    6.893 -11.938   3.680
  41 O    5.948  10.303  -3.650
  42 O  -13.787  -0.001   3.660

 *******************************************************************************
 FINISHED BASIS SET HANDLING 
 *******************************************************************************

 INFORMATION **** SET_MPP **** PCRYSTAL CALCULATION
 INFORMATION **** READM2 **** NEW DEFAULT: FOCK/KS MATRIX MIXING SET TO 30 %
 INFORMATION **** READM2 **** NEW DEFAULT: FULL DIRECT SCF MODE
 INFORMATION **** READM2 **** NEW DEFAULT: COULOMB BIPOLAR BUFFER SET TO 32 Mb
 INFORMATION **** READM2 **** NEW DEFAULT: EXCHANGE BIPOLAR BUFFER SET TO 32 Mb

 *******************************************************************************
 NEW DEFAULT: DFT INTEGRATION GRID INCREASED TO XLGRID
 NEW DEFAULT: DIIS ACCELERATOR ACTIVE
 USE KEYWORD NODIIS TO TURN IT OFF
 *******************************************************************************

 WARNING **** RDDFTP **** HSEsol-HJS ACTIVE
 RANGE SEPARATION - OMEGA:   0.110000000000000     
 WARNING **** RDDFTP **** HSEsol-3c has to be combined with sol-def2-mSVP basis set
 *******************************************************************************
 N. OF ATOMS PER CELL        42  COULOMB OVERLAP TOL         (T1) 10**   -6
 NUMBER OF SHELLS           234  COULOMB PENETRATION TOL     (T2) 10**   -6
 NUMBER OF AO               474  EXCHANGE OVERLAP TOL        (T3) 10**   -6
 N. OF ELECTRONS PER CELL   198  EXCHANGE PSEUDO OVP (F(G))  (T4) 10**   -6
 CORE ELECTRONS PER CELL     60  EXCHANGE PSEUDO OVP (P(G))  (T5) 10**  -12
 N. OF SYMMETRY OPERATORS     1  POLE ORDER IN MONO ZONE                  4
 *******************************************************************************
 TYPE OF CALCULATION :  RESTRICTED CLOSED SHELL
 KOHN-SHAM HAMILTONIAN

 (EXCHANGE)[CORRELATION] FUNCTIONAL:(HSEsol GGA)[PBEsol]

 RANGE-SEPARATED HYBRID FUNCTIONAL 
 OMEGA (SHORT-RANGE)[LONG-RANGE]:(    0.1100)[    0.0000]

 HYBRID EXCHANGE - PERCENTAGE OF FOCK EXCHANGE    25.0000

 CAPPA:IS1  2;IS2  2;IS3  8; K PTS MONK NET  20; SYMMOPS:K SPACE   2;G SPACE   1

 *******************************************************************************
 MAX NUMBER OF SCF CYCLES      50  CONVERGENCE ON DELTAP        10**-16
 WEIGHT OF F(I) IN F(I+1)      30% CONVERGENCE ON ENERGY        10**- 6
 SHRINK. FACT.(MONKH.)    2  2  8  NUMBER OF K POINTS IN THE IBZ     20
 SHRINKING FACTOR(GILAT NET)    8  NUMBER OF K POINTS(GILAT NET)   1028
 *******************************************************************************
 *** K POINTS COORDINATES (OBLIQUE COORDINATES IN UNITS OF IS =  2)
   1-R(  0  0  0)   2-R(  1  0  0)   3-R(  0  1  0)   4-R(  1  1  0)
   5-C(  0  0  1)   6-C(  1  0  1)   7-C(  0  1  1)   8-C(  1  1  1)
   9-C(  0  0  2)  10-C(  1  0  2)  11-C(  0  1  2)  12-C(  1  1  2)
  13-C(  0  0  3)  14-C(  1  0  3)  15-C(  0  1  3)  16-C(  1  1  3)
  17-R(  0  0  4)  18-R(  1  0  4)  19-R(  0  1  4)  20-R(  1  1  4)

 DIRECT LATTICE VECTORS COMPON. (A.U.)     RECIP. LATTICE VECTORS COMPON. (A.U.) 
        X            Y            Z              X            Y            Z
   24.5879030  -14.1935232    0.0000000      0.2555397    0.0000000   -0.0327569
    0.0000000   28.3910867    0.0000000      0.1277517    0.2213084   -0.0655201
    0.9447322    1.6365757    7.3699423      0.0000000    0.0000000    0.8525420

 DISK SPACE FOR EIGENVECTORS (FTN 10)     7189632 REALS

 SYMMETRY ADAPTION OF THE BLOCH FUNCTIONS DISABLED
 TTTTTTTTTTTTTTTTTTTTTTTTTTTTTT gordsh1     TELAPSE        0.04 TCPU        0.04

 MATRIX SIZE: P(G)  341442, F(G)   71865, P(G) IRR  173004, F(G) IRR   72561
 MAX G-VECTOR INDEX FOR 1- AND 2-ELECTRON INTEGRALS  97

 TTTTTTTTTTTTTTTTTTTTTTTTTTTTTT INPUT       TELAPSE       10.26 TCPU        0.29

 NEIGHBORS OF THE NON-EQUIVALENT ATOMS

 N = NUMBER OF NEIGHBORS AT DISTANCE R
    ATOM  N     R/ANG      R/AU   NEIGHBORS (ATOM LABELS AND CELL INDICES)
   1 B    1     1.3791     2.6061   37 O   -1 0 0
   1 B    1     1.3793     2.6065   38 O    0 0 0
   1 B    1     1.5503     2.9297   25 C   -1 0 0
   1 B    1     2.3895     4.5155    3 B   -1 0 0
   1 B    1     2.3898     4.5160    2 B    0 0 0
   1 B    1     2.5632     4.8437   26 C    0 0 0

   2 B    1     1.3793     2.6065   39 O    0 1-1
   2 B    1     1.3793     2.6065   38 O    0 0 0
   2 B    1     1.5504     2.9298   19 C    0 0 0
   2 B    1     2.3895     4.5156    3 B   -1 0 0
   2 B    1     2.3898     4.5160    1 B    0 0 0
   2 B    1     2.5634     4.8440   22 C    0 1-1

   3 B    1     1.3791     2.6061   37 O    0 0 0
   3 B    1     1.3793     2.6064   39 O    1 1-1
   3 B    1     1.5502     2.9294   31 C    0 0 0
   3 B    1     2.3895     4.5155    1 B    1 0 0
   3 B    1     2.3895     4.5156    2 B    1 0 0
   3 B    1     2.5629     4.8433   32 C    1 1-1

   4 B    1     1.3795     2.6068   40 O    0 1-1
   4 B    1     1.3795     2.6070   41 O    0 0 0
   4 B    1     1.5513     2.9316   24 C    0 0 0
   4 B    1     2.3905     4.5174    6 B    0 1-1
   4 B    1     2.3905     4.5175    5 B    0 0 0
   4 B    1     2.5648     4.8468   23 C    0 0 0

   5 B    1     1.3795     2.6069   41 O    0 0 0
   5 B    1     1.3797     2.6072   42 O    1 1-1
   5 B    1     1.5516     2.9322   36 C    0 0 0
   5 B    1     2.3905     4.5175    4 B    0 0 0
   5 B    1     2.3911     4.5185    6 B    0 1-1
   5 B    1     2.5651     4.8473   35 C    1 1-1

   6 B    1     1.3795     2.6068   40 O    0 0 0
   6 B    1     1.3796     2.6071   42 O    1 0 0
   6 B    1     1.5516     2.9322   30 C    0 0 0
   6 B    1     2.3905     4.5174    4 B    0-1 1
   6 B    1     2.3911     4.5185    5 B    0-1 1
   6 B    1     2.5651     4.8473   29 C    1 0 0

   7 H    1     1.0913     2.0623   20 C    0 0 0
   7 H    1     2.1472     4.0576   19 C    0 0 0
   7 H    1     2.1680     4.0969   23 C    0 0 0
   7 H    1     2.5202     4.7625   10 H    0 0 0
   7 H    1     2.5676     4.8520   38 O    0 0 0
   7 H    1     2.7321     5.1630    2 B    0 0 0

   8 H    1     1.0914     2.0625   21 C    0 0 0
   8 H    1     2.1493     4.0616   24 C    0-1 1
   8 H    1     2.1666     4.0942   22 C    0 0 0
   8 H    1     2.5198     4.7618    9 H    0 0 0
   8 H    1     2.5720     4.8604   40 O    0 0 0
   8 H    1     2.7362     5.1707    4 B    0-1 1

   9 H    1     1.0914     2.0624   22 C    0 0 0
   9 H    1     2.1471     4.0575   19 C    0-1 1
   9 H    1     2.1680     4.0970   21 C    0 0 0
   9 H    1     2.5198     4.7618    8 H    0 0 0
   9 H    1     2.5665     4.8500   39 O    0 0 0
   9 H    1     2.7315     5.1618    2 B    0-1 1

  10 H    1     1.0915     2.0626   23 C    0 0 0
  10 H    1     2.1490     4.0610   24 C    0 0 0
  10 H    1     2.1669     4.0948   20 C    0 0 0
  10 H    1     2.5202     4.7625    7 H    0 0 0
  10 H    1     2.5712     4.8588   41 O    0 0 0
  10 H    1     2.7351     5.1686    4 B    0 0 0

  11 H    1     1.0913     2.0623   26 C    0 0 0
  11 H    1     2.1469     4.0571   25 C   -1 0 0
  11 H    1     2.1680     4.0968   29 C    0 0-1
  11 H    1     2.5198     4.7617   14 H    0 0-1
  11 H    1     2.5670     4.8510   38 O    0 0 0
  11 H    1     2.7310     5.1609    1 B    0 0 0

  12 H    1     1.0914     2.0625   27 C    0 0 0
  12 H    1     2.1493     4.0617   30 C    0 0 0
  12 H    1     2.1664     4.0939   28 C    0 0 1
  12 H    1     2.5192     4.7606   13 H    0 0 1
  12 H    1     2.5735     4.8632   40 O    0 0 0
  12 H    1     2.7371     5.1723    6 B    0 0 0

  13 H    1     1.0914     2.0624   28 C    0 0 0
  13 H    1     2.1475     4.0581   25 C    0 0 0
  13 H    1     2.1679     4.0967   27 C    0 0-1
  13 H    1     2.5192     4.7606   12 H    0 0-1
  13 H    1     2.5675     4.8519   37 O    0 0 0
  13 H    1     2.7328     5.1643    1 B    1 0 0

  14 H    1     1.0914     2.0625   29 C    0 0 0
  14 H    1     2.1491     4.0612   30 C   -1 0 0
  14 H    1     2.1666     4.0942   26 C    0 0 1
  14 H    1     2.5198     4.7617   11 H    0 0 1
  14 H    1     2.5723     4.8609   42 O    0 0 0
  14 H    1     2.7355     5.1693    6 B   -1 0 0

  15 H    1     1.0914     2.0624   32 C    0 0 0
  15 H    1     2.1475     4.0582   31 C   -1-1 1
  15 H    1     2.1678     4.0966   35 C    0 0 0
  15 H    1     2.5200     4.7621   18 H    0 0 0
  15 H    1     2.5667     4.8503   39 O    0 0 0
  15 H    1     2.7315     5.1618    3 B   -1-1 1

  16 H    1     1.0913     2.0623   33 C    0 0 0
  16 H    1     2.1487     4.0605   36 C    0 0 0
  16 H    1     2.1667     4.0945   34 C    0 0 0
  16 H    1     2.5197     4.7616   17 H    0 0 0
  16 H    1     2.5723     4.8610   41 O    0 0 0
  16 H    1     2.7359     5.1701    5 B    0 0 0

  17 H    1     1.0915     2.0626   34 C    0 0 0
  17 H    1     2.1479     4.0589   31 C    0 0 0
  17 H    1     2.1679     4.0968   33 C    0 0 0
  17 H    1     2.5197     4.7616   16 H    0 0 0
  17 H    1     2.5677     4.8522   37 O    0 0 0
  17 H    1     2.7331     5.1648    3 B    0 0 0

  18 H    1     1.0914     2.0624   35 C    0 0 0
  18 H    1     2.1486     4.0602   36 C   -1-1 1
  18 H    1     2.1668     4.0947   32 C    0 0 0
  18 H    1     2.5200     4.7621   15 H    0 0 0
  18 H    1     2.5717     4.8598   42 O    0 0 0
  18 H    1     2.7349     5.1682    5 B   -1-1 1

  19 C    1     1.4020     2.6495   22 C    0 1-1
  19 C    1     1.4021     2.6495   20 C    0 0 0
  19 C    1     1.5504     2.9298    2 B    0 0 0
  19 C    1     2.1471     4.0575    9 H    0 1-1
  19 C    1     2.1472     4.0576    7 H    0 0 0
  19 C    1     2.4246     4.5817   21 C    0 1-1

  20 C    1     1.0913     2.0623    7 H    0 0 0
  20 C    1     1.3914     2.6294   23 C    0 0 0
  20 C    1     1.4021     2.6495   19 C    0 0 0
  20 C    1     2.1669     4.0948   10 H    0 0 0
  20 C    1     2.4177     4.5688   22 C    0 1-1
  20 C    1     2.4250     4.5825   24 C    0 0 0

  21 C    1     1.0914     2.0625    8 H    0 0 0
  21 C    1     1.3914     2.6293   22 C    0 0 0
  21 C    1     1.4026     2.6505   24 C    0-1 1
  21 C    1     2.1680     4.0970    9 H    0 0 0
  21 C    1     2.4182     4.5697   23 C    0-1 1
  21 C    1     2.4246     4.5817   19 C    0-1 1

  22 C    1     1.0914     2.0624    9 H    0 0 0
  22 C    1     1.3914     2.6293   21 C    0 0 0
  22 C    1     1.4020     2.6495   19 C    0-1 1
  22 C    1     2.1666     4.0942    8 H    0 0 0
  22 C    1     2.4177     4.5688   20 C    0-1 1
  22 C    1     2.4250     4.5826   24 C    0-1 1

  23 C    1     1.0915     2.0626   10 H    0 0 0
  23 C    1     1.3914     2.6294   20 C    0 0 0
  23 C    1     1.4025     2.6504   24 C    0 0 0
  23 C    1     2.1680     4.0969    7 H    0 0 0
  23 C    1     2.4182     4.5697   21 C    0 1-1
  23 C    1     2.4246     4.5818   19 C    0 0 0

  24 C    1     1.4025     2.6504   23 C    0 0 0
  24 C    1     1.4026     2.6505   21 C    0 1-1
  24 C    1     1.5513     2.9316    4 B    0 0 0
  24 C    1     2.1490     4.0610   10 H    0 0 0
  24 C    1     2.1493     4.0616    8 H    0 1-1
  24 C    1     2.4250     4.5825   20 C    0 0 0

  25 C    1     1.4020     2.6494   26 C    1 0 0
  25 C    1     1.4021     2.6495   28 C    0 0 0
  25 C    1     1.5503     2.9297    1 B    1 0 0
  25 C    1     2.1469     4.0571   11 H    1 0 0
  25 C    1     2.1475     4.0581   13 H    0 0 0
  25 C    1     2.4246     4.5818   27 C    0 0-1

  26 C    1     1.0913     2.0623   11 H    0 0 0
  26 C    1     1.3914     2.6293   29 C    0 0-1
  26 C    1     1.4020     2.6494   25 C   -1 0 0
  26 C    1     2.1666     4.0942   14 H    0 0-1
  26 C    1     2.4175     4.5684   28 C   -1 0 0
  26 C    1     2.4251     4.5828   30 C   -1 0-1

  27 C    1     1.0914     2.0625   12 H    0 0 0
  27 C    1     1.3915     2.6295   28 C    0 0 1
  27 C    1     1.4026     2.6505   30 C    0 0 0
  27 C    1     2.1679     4.0967   13 H    0 0 1
  27 C    1     2.4179     4.5691   29 C    1 0 0
  27 C    1     2.4246     4.5818   25 C    0 0 1

  28 C    1     1.0914     2.0624   13 H    0 0 0
  28 C    1     1.3915     2.6295   27 C    0 0-1
  28 C    1     1.4021     2.6495   25 C    0 0 0
  28 C    1     2.1664     4.0939   12 H    0 0-1
  28 C    1     2.4175     4.5684   26 C    1 0 0
  28 C    1     2.4253     4.5832   30 C    0 0-1

  29 C    1     1.0914     2.0625   14 H    0 0 0
  29 C    1     1.3914     2.6293   26 C    0 0 1
  29 C    1     1.4025     2.6504   30 C   -1 0 0
  29 C    1     2.1680     4.0968   11 H    0 0 1
  29 C    1     2.4179     4.5691   27 C   -1 0 0
  29 C    1     2.4247     4.5819   25 C   -1 0 1

  30 C    1     1.4025     2.6504   29 C    1 0 0
  30 C    1     1.4026     2.6505   27 C    0 0 0
  30 C    1     1.5516     2.9322    6 B    0 0 0
  30 C    1     2.1491     4.0612   14 H    1 0 0
  30 C    1     2.1493     4.0617   12 H    0 0 0
  30 C    1     2.4251     4.5828   26 C    1 0 1

  31 C    1     1.4021     2.6496   32 C    1 1-1
  31 C    1     1.4021     2.6497   34 C    0 0 0
  31 C    1     1.5502     2.9294    3 B    0 0 0
  31 C    1     2.1475     4.0582   15 H    1 1-1
  31 C    1     2.1479     4.0589   17 H    0 0 0
  31 C    1     2.4244     4.5814   33 C    0 0 0

  32 C    1     1.0914     2.0624   15 H    0 0 0
  32 C    1     1.3914     2.6293   35 C    0 0 0
  32 C    1     1.4021     2.6496   31 C   -1-1 1
  32 C    1     2.1668     4.0947   18 H    0 0 0
  32 C    1     2.4179     4.5692   34 C   -1-1 1
  32 C    1     2.4251     4.5827   36 C   -1-1 1

  33 C    1     1.0913     2.0623   16 H    0 0 0
  33 C    1     1.3914     2.6294   34 C    0 0 0
  33 C    1     1.4025     2.6504   36 C    0 0 0
  33 C    1     2.1679     4.0968   17 H    0 0 0
  33 C    1     2.4178     4.5690   35 C    1 1-1
  33 C    1     2.4244     4.5814   31 C    0 0 0

  34 C    1     1.0915     2.0626   17 H    0 0 0
  34 C    1     1.3914     2.6294   33 C    0 0 0
  34 C    1     1.4021     2.6497   31 C    0 0 0
  34 C    1     2.1667     4.0945   16 H    0 0 0
  34 C    1     2.4179     4.5692   32 C    1 1-1
  34 C    1     2.4253     4.5832   36 C    0 0 0

  35 C    1     1.0914     2.0624   18 H    0 0 0
  35 C    1     1.3914     2.6293   32 C    0 0 0
  35 C    1     1.4025     2.6503   36 C   -1-1 1
  35 C    1     2.1678     4.0966   15 H    0 0 0
  35 C    1     2.4178     4.5690   33 C   -1-1 1
  35 C    1     2.4245     4.5817   31 C   -1-1 1

  36 C    1     1.4025     2.6503   35 C    1 1-1
  36 C    1     1.4025     2.6504   33 C    0 0 0
  36 C    1     1.5516     2.9322    5 B    0 0 0
  36 C    1     2.1486     4.0602   18 H    1 1-1
  36 C    1     2.1487     4.0605   16 H    0 0 0
  36 C    1     2.4251     4.5827   32 C    1 1-1

  37 O    2     1.3791     2.6061    1 B    1 0 0    3 B    0 0 0
  37 O    1     2.3880     4.5126   38 O    1 0 0
  37 O    1     2.3882     4.5130   39 O    1 1-1
  37 O    1     2.5383     4.7966   31 C    0 0 0
  37 O    1     2.5384     4.7968   25 C    0 0 0
  37 O    1     2.5675     4.8519   13 H    0 0 0

  38 O    1     1.3793     2.6065    1 B    0 0 0
  38 O    1     1.3793     2.6065    2 B    0 0 0
  38 O    1     2.3880     4.5126   37 O   -1 0 0
  38 O    1     2.3882     4.5131   39 O    0 1-1
  38 O    1     2.5391     4.7981   19 C    0 0 0
  38 O    1     2.5395     4.7990   25 C   -1 0 0

  39 O    1     1.3793     2.6064    3 B   -1-1 1
  39 O    1     1.3793     2.6065    2 B    0-1 1
  39 O    1     2.3882     4.5130   37 O   -1-1 1
  39 O    1     2.3882     4.5131   38 O    0-1 1
  39 O    1     2.5390     4.7980   19 C    0-1 1
  39 O    1     2.5391     4.7982   31 C   -1-1 1

  40 O    1     1.3795     2.6068    6 B    0 0 0
  40 O    1     1.3795     2.6068    4 B    0-1 1
  40 O    1     2.3880     4.5126   42 O    1 0 0
  40 O    1     2.3884     4.5134   41 O    0-1 1
  40 O    1     2.5400     4.7998   24 C    0-1 1
  40 O    1     2.5403     4.8005   30 C    0 0 0

  41 O    1     1.3795     2.6069    5 B    0 0 0
  41 O    1     1.3795     2.6070    4 B    0 0 0
  41 O    1     2.3881     4.5128   42 O    1 1-1
  41 O    1     2.3884     4.5134   40 O    0 1-1
  41 O    1     2.5404     4.8006   24 C    0 0 0
  41 O    1     2.5405     4.8008   36 C    0 0 0

  42 O    1     1.3796     2.6071    6 B   -1 0 0
  42 O    1     1.3797     2.6072    5 B   -1-1 1
  42 O    1     2.3880     4.5126   40 O   -1 0 0
  42 O    1     2.3881     4.5128   41 O   -1-1 1
  42 O    1     2.5409     4.8016   36 C   -1-1 1
  42 O    1     2.5410     4.8019   30 C   -1 0 0


 SYMMETRY ALLOWED INTERNAL DEGREE(S) OF FREEDOM: 123
 TTTTTTTTTTTTTTTTTTTTTTTTTTTTTT SYMM        TELAPSE       10.27 TCPU        0.29
 TTTTTTTTTTTTTTTTTTTTTTTTTTTTTT INT_SCREEN  TELAPSE       10.29 TCPU        0.32

 DFT PARAMETERS

     ATOM       ELECTRONS   NET CHARGE   R(ANGSTROM)
   1   5  B       5.0000      0.0000     0.89000000
   7   1  H       1.0000      0.0000     1.11000000
  19   6  C       6.0000      0.0000     0.77000000
  37   8  O       8.0000      0.0000     0.74000000

 SIZE OF GRID=    1299050
 TTTTTTTTTTTTTTTTTTTTTTTTTTTTTT MAKE_GRID2  TELAPSE       20.29 TCPU       10.30
 BECKE WEIGHT FUNCTION
 RADSAFE =     2.00
 TOLERANCES - DENSITY:10**- 6; POTENTIAL:10**- 9; GRID WGT:10**-14

 RADIAL INTEGRATION  - INTERVALS (POINTS,UPPER LIMIT):            1( 75,  4.0*R)

 ANGULAR INTEGRATION - INTERVALS (ACCURACY LEVEL [N. POINTS] UPPER LIMIT):
  1(  4[  86]   0.2)  2(  8[ 194]   0.5)  3( 12[ 350]   0.9)  4( 16[ 974]   3.5)
  5( 12[ 350]9999.0)
 TTTTTTTTTTTTTTTTTTTTTTTTTTTTTT INT_CALC    TELAPSE       20.38 TCPU       10.40
 EEEEEEEEEE INT_CALC TERMINATION  DATE 19 02 2026 TIME 19:00:59.7

 *******************************************************************************
 cof-1_z39_L010_incl                                                             
 CRYSTAL - SCF - TYPE OF CALCULATION :  RESTRICTED CLOSED SHELL
 *******************************************************************************

 CAPPA:IS1  2;IS2  2;IS3  8; K PTS MONK NET  20; SYMMOPS:K SPACE   2;G SPACE   1

 TTTTTTTTTTTTTTTTTTTTTTTTTTTTTT SDIK        TELAPSE       20.97 TCPU       18.43

 AAAAAAAAAAAAAAAAAAAAAAAAAAAAAAAAAAAAAAAAAAAAAAAAAAAAAAAAAAAAAAAAAAAAAAAAAAAAAAA
         ATOMIC WAVEFUNCTION(S)


 NUCLEAR CHARGE  5.0  SYMMETRY SPECIES            S    P
 N. ELECTRONS    5.0  NUMBER OF PRIMITIVE GTOS    8    4
                      NUMBER OF CONTRACTED GTOS   4    2
                      NUMBER OF CLOSED SHELLS     2    0
                      OPEN SHELL OCCUPATION       0    1

  ZNUC  SCFIT    TOTAL HF ENERGY   KINETIC ENERGY   VIRIAL THEOREM ACCURACY
   5.0    11    -2.451164084E+01  2.462155050E+01 -1.995536038E+00  1.5E-06

 NUCLEAR CHARGE  1.0  SYMMETRY SPECIES            S
 N. ELECTRONS    1.0  NUMBER OF PRIMITIVE GTOS    4
                      NUMBER OF CONTRACTED GTOS   2
                      NUMBER OF CLOSED SHELLS     0
                      OPEN SHELL OCCUPATION       1

  ZNUC  SCFIT    TOTAL HF ENERGY   KINETIC ENERGY   VIRIAL THEOREM ACCURACY
   1.0     1    -4.977266687E-01  5.190767460E-01 -1.958869132E+00  0.0E+00

 NUCLEAR CHARGE  6.0  SYMMETRY SPECIES            S    P
 N. ELECTRONS    6.0  NUMBER OF PRIMITIVE GTOS    8    4
                      NUMBER OF CONTRACTED GTOS   4    2
                      NUMBER OF CLOSED SHELLS     2    0
                      OPEN SHELL OCCUPATION       0    2

  ZNUC  SCFIT    TOTAL HF ENERGY   KINETIC ENERGY   VIRIAL THEOREM ACCURACY
   6.0     9    -3.766704647E+01  3.775180683E+01 -1.997754800E+00  1.1E-06

 NUCLEAR CHARGE  8.0  SYMMETRY SPECIES            S    P
 N. ELECTRONS    8.0  NUMBER OF PRIMITIVE GTOS    8    4
                      NUMBER OF CONTRACTED GTOS   4    2
                      NUMBER OF CLOSED SHELLS     2    0
                      OPEN SHELL OCCUPATION       0    4

  ZNUC  SCFIT    TOTAL HF ENERGY   KINETIC ENERGY   VIRIAL THEOREM ACCURACY
   8.0    12    -7.477373220E+01  7.477365593E+01 -2.000001020E+00  3.8E-06

 AAAAAAAAAAAAAAAAAAAAAAAAAAAAAAAAAAAAAAAAAAAAAAAAAAAAAAAAAAAAAAAAAAAAAAAAAAAAAAA

 CHARGE NORMALIZATION FACTOR   1.00000000
 TOTAL ATOMIC CHARGES:
   5.0000000   5.0000000   5.0000000   5.0000000   5.0000000   5.0000000
   1.0000000   1.0000000   1.0000000   1.0000000   1.0000000   1.0000000
   1.0000000   1.0000000   1.0000000   1.0000000   1.0000000   1.0000000
   6.0000000   6.0000000   6.0000000   6.0000000   6.0000000   6.0000000
   6.0000000   6.0000000   6.0000000   6.0000000   6.0000000   6.0000000
   6.0000000   6.0000000   6.0000000   6.0000000   6.0000000   6.0000000
   8.0000000   8.0000000   8.0000000   8.0000000   8.0000000   8.0000000
 TTTTTTTTTTTTTTTTTTTTTTTTTTTTTT MOQGAD      TELAPSE       21.02 TCPU       20.01
 TTTTTTTTTTTTTTTTTTTTTTTTTTTTTT SHELLXN     TELAPSE       29.04 TCPU      276.47
 TTTTTTTTTTTTTTTTTTTTTTTTTTTTTT MONMO3      TELAPSE       29.21 TCPU      281.66
 NUMERICALLY INTEGRATED DENSITY    198.0000298043
 TTTTTTTTTTTTTTTTTTTTTTTTTTTTTT NUMDFT      TELAPSE       29.77 TCPU      299.61
 CYC   0 ETOT(AU) -1.295960001391E+03 DETOT -1.30E+03 tst  0.00E+00 PX  1.00E+00
 TTTTTTTTTTTTTTTTTTTTTTTTTTTTTT DIIS        TELAPSE       29.80 TCPU      300.69
 TTTTTTTTTTTTTTTTTTTTTTTTTTTTTT FDIK        TELAPSE       30.29 TCPU      316.14
 INSULATING STATE
 TOP OF VALENCE BANDS -    BAND     99; K    1; EIG -3.0609388E-01 AU
 BOTTOM OF VIRTUAL BANDS - BAND    100; K   17; EIG -1.6434354E-01 AU
 INDIRECT ENERGY BAND GAP:   3.8572 eV
 BOTTOM OF VIRTUAL BANDS - BAND    100; K    1; EIG -1.4745662E-01 AU
 TTTTTTTTTTTTTTTTTTTTTTTTTTTTTT PDIG        TELAPSE       30.57 TCPU      322.27
 CHARGE NORMALIZATION FACTOR   1.00000000
 TOTAL ATOMIC CHARGES:
   4.1477721   4.1472410   4.1475558   4.1472603   4.1470555   4.1475851
   0.7857298   0.7858406   0.7856572   0.7857853   0.7856250   0.7858034
   0.7856137   0.7857693   0.7856576   0.7858466   0.7856797   0.7858337
   6.0489811   6.2676990   6.2676991   6.2675570   6.2674777   6.0482005
   6.0483663   6.2674021   6.2674673   6.2673041   6.2674852   6.0470880
   6.0493185   6.2673316   6.2678511   6.2673289   6.2679618   6.0477416
   8.6978573   8.6979982   8.6967562   8.6982681   8.6971265   8.6984211
 TTTTTTTTTTTTTTTTTTTTTTTTTTTTTT MOQGAD      TELAPSE       30.62 TCPU      322.32
 TTTTTTTTTTTTTTTTTTTTTTTTTTTTTT SHELLXN     TELAPSE       38.95 TCPU      588.01
 TTTTTTTTTTTTTTTTTTTTTTTTTTTTTT MONMO3      TELAPSE       39.11 TCPU      593.18
 NUMERICALLY INTEGRATED DENSITY    198.0000346295
 TTTTTTTTTTTTTTTTTTTTTTTTTTTTTT NUMDFT      TELAPSE       39.68 TCPU      611.32
 CYC   1 ETOT(AU) -1.288811319713E+03 DETOT  7.15E+00 tst  0.00E+00 PX  1.00E+00
 TTTTTTTTTTTTTTTTTTTTTTTTTTTTTT DIIS        TELAPSE       39.72 TCPU      612.71
 DIIS TEST: 0.11116E+01 AT SCF   CYCLE   1 - MIX   30 %
 TTTTTTTTTTTTTTTTTTTTTTTTTTTTTT FDIK        TELAPSE       40.21 TCPU      628.35
 INSULATING STATE
 TOP OF VALENCE BANDS -    BAND     99; K    1; EIG -2.1029776E-01 AU
 BOTTOM OF VIRTUAL BANDS - BAND    100; K   17; EIG -8.6838073E-02 AU
 INDIRECT ENERGY BAND GAP:   3.3595 eV
 BOTTOM OF VIRTUAL BANDS - BAND    100; K    1; EIG -6.6604473E-02 AU
 TTTTTTTTTTTTTTTTTTTTTTTTTTTTTT PDIG        TELAPSE       40.49 TCPU      634.48
 CHARGE NORMALIZATION FACTOR   1.00000000
 TOTAL ATOMIC CHARGES:
   4.7056625   4.7047431   4.7039697   4.7042865   4.7046182   4.7051448
   0.9184333   0.9185304   0.9192109   0.9192477   0.9179059   0.9179036
   0.9178601   0.9178407   0.9191590   0.9192756   0.9183497   0.9183890
   5.8646618   6.1207844   6.1211158   6.1280995   6.1295963   5.8675461
   5.8653220   6.1245482   6.1261724   6.1252540   6.1258323   5.8686369
   5.8645493   6.1283032   6.1295801   6.1209592   6.1210997   5.8678922
   8.3406348   8.3409116   8.3434498   8.3403367   8.3436557   8.3405274
 TTTTTTTTTTTTTTTTTTTTTTTTTTTTTT MOQGAD      TELAPSE       40.54 TCPU      634.53
 TTTTTTTTTTTTTTTTTTTTTTTTTTTTTT SHELLXN     TELAPSE       48.88 TCPU      900.31
 TTTTTTTTTTTTTTTTTTTTTTTTTTTTTT MONMO3      TELAPSE       49.04 TCPU      905.49
 NUMERICALLY INTEGRATED DENSITY    198.0000429877
 TTTTTTTTTTTTTTTTTTTTTTTTTTTTTT NUMDFT      TELAPSE       49.61 TCPU      923.67
 CYC   2 ETOT(AU) -1.289005861183E+03 DETOT -1.95E-01 tst  4.64E-03 PX  1.57E-01
 TTTTTTTTTTTTTTTTTTTTTTTTTTTTTT DIIS        TELAPSE       49.66 TCPU      925.19
 DIIS TEST: 0.47889E+00 AT SCF   CYCLE   2 - DIIS ACTIVE - HISTORY:     2 CYCLES
 TTTTTTTTTTTTTTTTTTTTTTTTTTTTTT FDIK        TELAPSE       50.15 TCPU      940.81
 INSULATING STATE
 TOP OF VALENCE BANDS -    BAND     99; K    1; EIG -2.2634817E-01 AU
 BOTTOM OF VIRTUAL BANDS - BAND    100; K   17; EIG -8.2511266E-02 AU
 INDIRECT ENERGY BAND GAP:   3.9140 eV
 BOTTOM OF VIRTUAL BANDS - BAND    100; K    1; EIG -6.0930398E-02 AU
 TTTTTTTTTTTTTTTTTTTTTTTTTTTTTT PDIG        TELAPSE       50.43 TCPU      946.95
 CHARGE NORMALIZATION FACTOR   1.00000000
 TOTAL ATOMIC CHARGES:
   4.4926179   4.4912021   4.4909159   4.4903483   4.4903831   4.4916141
   0.8914149   0.8915361   0.8919788   0.8920884   0.8910654   0.8913888
   0.8911708   0.8912337   0.8919449   0.8921349   0.8913764   0.8914266
   5.8923512   6.1616455   6.1613392   6.1612060   6.1599661   5.8911905
   5.8943346   6.1605014   6.1597206   6.1604085   6.1598352   5.8931930
   5.8929264   6.1612695   6.1600806   6.1616244   6.1613612   5.8907229
   8.5122363   8.5123685   8.5104192   8.5125274   8.5102647   8.5126661
 TTTTTTTTTTTTTTTTTTTTTTTTTTTTTT MOQGAD      TELAPSE       50.48 TCPU      947.00
 TTTTTTTTTTTTTTTTTTTTTTTTTTTTTT SHELLXN     TELAPSE       58.81 TCPU     1212.60
 TTTTTTTTTTTTTTTTTTTTTTTTTTTTTT MONMO3      TELAPSE       58.97 TCPU     1217.77
 NUMERICALLY INTEGRATED DENSITY    198.0000415018
 TTTTTTTTTTTTTTTTTTTTTTTTTTTTTT NUMDFT      TELAPSE       59.54 TCPU     1236.00
 CYC   3 ETOT(AU) -1.289106470919E+03 DETOT -1.01E-01 tst  7.46E-04 PX  6.02E-02
 TTTTTTTTTTTTTTTTTTTTTTTTTTTTTT DIIS        TELAPSE       59.59 TCPU     1237.75
 DIIS TEST: 0.10457E-01 AT SCF   CYCLE   3 - DIIS ACTIVE - HISTORY:     3 CYCLES
 TTTTTTTTTTTTTTTTTTTTTTTTTTTTTT FDIK        TELAPSE       60.08 TCPU     1253.33
 INSULATING STATE
 TOP OF VALENCE BANDS -    BAND     99; K    1; EIG -2.3593140E-01 AU
 BOTTOM OF VIRTUAL BANDS - BAND    100; K   17; EIG -9.2088100E-02 AU
 INDIRECT ENERGY BAND GAP:   3.9142 eV
 BOTTOM OF VIRTUAL BANDS - BAND    100; K    1; EIG -7.1174300E-02 AU
 TTTTTTTTTTTTTTTTTTTTTTTTTTTTTT PDIG        TELAPSE       60.36 TCPU     1259.47
 CHARGE NORMALIZATION FACTOR   1.00000000
 TOTAL ATOMIC CHARGES:
   4.4996369   4.4975362   4.4970389   4.4974605   4.4976189   4.4995343
   0.8752003   0.8753466   0.8754502   0.8753738   0.8744719   0.8744825
   0.8744486   0.8744291   0.8754414   0.8753881   0.8751821   0.8751910
   5.9430436   6.1581070   6.1585768   6.1627935   6.1655529   5.9474909
   5.9441313   6.1604024   6.1624245   6.1608951   6.1620997   5.9483583
   5.9428686   6.1627713   6.1657579   6.1579242   6.1588353   5.9477841
   8.4826187   8.4828268   8.4848774   8.4824815   8.4855025   8.4826447
 TTTTTTTTTTTTTTTTTTTTTTTTTTTTTT MOQGAD      TELAPSE       60.41 TCPU     1259.52
 TTTTTTTTTTTTTTTTTTTTTTTTTTTTTT SHELLXN     TELAPSE       68.74 TCPU     1525.14
 TTTTTTTTTTTTTTTTTTTTTTTTTTTTTT MONMO3      TELAPSE       68.90 TCPU     1530.32
 NUMERICALLY INTEGRATED DENSITY    198.0000411308
 TTTTTTTTTTTTTTTTTTTTTTTTTTTTTT NUMDFT      TELAPSE       69.47 TCPU     1548.53
 CYC   4 ETOT(AU) -1.289108593015E+03 DETOT -2.12E-03 tst  2.80E-05 PX  1.22E-02
 TTTTTTTTTTTTTTTTTTTTTTTTTTTTTT DIIS        TELAPSE       69.53 TCPU     1550.38
 DIIS TEST: 0.38081E-02 AT SCF   CYCLE   4 - DIIS ACTIVE - HISTORY:     4 CYCLES
 TTTTTTTTTTTTTTTTTTTTTTTTTTTTTT FDIK        TELAPSE       70.02 TCPU     1566.07
 INSULATING STATE
 TOP OF VALENCE BANDS -    BAND     99; K    1; EIG -2.3416121E-01 AU
 BOTTOM OF VIRTUAL BANDS - BAND    100; K   17; EIG -9.1015867E-02 AU
 INDIRECT ENERGY BAND GAP:   3.8952 eV
 BOTTOM OF VIRTUAL BANDS - BAND    100; K    1; EIG -6.9939195E-02 AU
 TTTTTTTTTTTTTTTTTTTTTTTTTTTTTT PDIG        TELAPSE       70.30 TCPU     1572.21
 CHARGE NORMALIZATION FACTOR   1.00000000
 TOTAL ATOMIC CHARGES:
   4.5008626   4.4994775   4.4990487   4.4985525   4.4986525   4.4998081
   0.8784015   0.8785260   0.8787935   0.8789843   0.8778703   0.8781695
   0.8779290   0.8780406   0.8787511   0.8790317   0.8783361   0.8784188
   5.9226880   6.1634098   6.1628312   6.1665352   6.1647178   5.9200232
   5.9236377   6.1645106   6.1636526   6.1645926   6.1636875   5.9213477
   5.9231511   6.1666508   6.1647850   6.1634651   6.1628380   5.9196833
   8.4933891   8.4935342   8.4931706   8.4935140   8.4928805   8.4936502
 TTTTTTTTTTTTTTTTTTTTTTTTTTTTTT MOQGAD      TELAPSE       70.35 TCPU     1572.26
 TTTTTTTTTTTTTTTTTTTTTTTTTTTTTT SHELLXN     TELAPSE       78.68 TCPU     1837.94
 TTTTTTTTTTTTTTTTTTTTTTTTTTTTTT MONMO3      TELAPSE       80.71 TCPU     1849.12
 NUMERICALLY INTEGRATED DENSITY    198.0000411811
 TTTTTTTTTTTTTTTTTTTTTTTTTTTTTT NUMDFT      TELAPSE       81.28 TCPU     1867.30
 CYC   5 ETOT(AU) -1.289109446994E+03 DETOT -8.54E-04 tst  5.76E-06 PX  7.25E-03
 TTTTTTTTTTTTTTTTTTTTTTTTTTTTTT DIIS        TELAPSE       81.35 TCPU     1869.44
 DIIS TEST: 0.12329E-03 AT SCF   CYCLE   5 - DIIS ACTIVE - HISTORY:     5 CYCLES
 TTTTTTTTTTTTTTTTTTTTTTTTTTTTTT FDIK        TELAPSE       81.84 TCPU     1885.12
 INSULATING STATE
 TOP OF VALENCE BANDS -    BAND     99; K    1; EIG -2.3393595E-01 AU
 BOTTOM OF VIRTUAL BANDS - BAND    100; K   17; EIG -9.0441358E-02 AU
 INDIRECT ENERGY BAND GAP:   3.9047 eV
 BOTTOM OF VIRTUAL BANDS - BAND    100; K    1; EIG -6.9354253E-02 AU
 TTTTTTTTTTTTTTTTTTTTTTTTTTTTTT PDIG        TELAPSE       82.12 TCPU     1891.26
 CHARGE NORMALIZATION FACTOR   1.00000000
 TOTAL ATOMIC CHARGES:
   4.5000993   4.4983776   4.4979373   4.4985053   4.4986371   4.5001549
   0.8794074   0.8795196   0.8799252   0.8797699   0.8789578   0.8789712
   0.8789681   0.8788931   0.8799144   0.8797868   0.8793872   0.8793710
   5.9188288   6.1613478   6.1624794   6.1631005   6.1669541   5.9258643
   5.9205147   6.1619727   6.1644391   6.1622854   6.1642339   5.9268100
   5.9188253   6.1630631   6.1671780   6.1611562   6.1627219   5.9259842
   8.4922176   8.4924143   8.4927789   8.4922433   8.4935924   8.4924107
 TTTTTTTTTTTTTTTTTTTTTTTTTTTTTT MOQGAD      TELAPSE       82.17 TCPU     1891.31
 TTTTTTTTTTTTTTTTTTTTTTTTTTTTTT SHELLXN     TELAPSE       90.51 TCPU     2157.05
 TTTTTTTTTTTTTTTTTTTTTTTTTTTTTT MONMO3      TELAPSE       90.67 TCPU     2162.24
 NUMERICALLY INTEGRATED DENSITY    198.0000412070
 TTTTTTTTTTTTTTTTTTTTTTTTTTTTTT NUMDFT      TELAPSE       91.24 TCPU     2180.45
 CYC   6 ETOT(AU) -1.289109445380E+03 DETOT  1.61E-06 tst  1.58E-06 PX  1.45E-03
 TTTTTTTTTTTTTTTTTTTTTTTTTTTTTT DIIS        TELAPSE       91.31 TCPU     2182.64
 DIIS TEST: 0.12490E-03 AT SCF   CYCLE   6 - DIIS ACTIVE - HISTORY:     6 CYCLES
 TTTTTTTTTTTTTTTTTTTTTTTTTTTTTT FDIK        TELAPSE       91.80 TCPU     2198.34
 INSULATING STATE
 TOP OF VALENCE BANDS -    BAND     99; K    1; EIG -2.3394349E-01 AU
 BOTTOM OF VIRTUAL BANDS - BAND    100; K   17; EIG -9.0476209E-02 AU
 INDIRECT ENERGY BAND GAP:   3.9039 eV
 BOTTOM OF VIRTUAL BANDS - BAND    100; K    1; EIG -6.9387359E-02 AU
 TTTTTTTTTTTTTTTTTTTTTTTTTTTTTT PDIG        TELAPSE       92.08 TCPU     2204.47
 CHARGE NORMALIZATION FACTOR   1.00000000
 TOTAL ATOMIC CHARGES:
   4.5005327   4.4989080   4.4984772   4.4982769   4.4983919   4.4998094
   0.8793829   0.8795294   0.8797940   0.8798761   0.8788573   0.8790544
   0.8788894   0.8789537   0.8797675   0.8799076   0.8793418   0.8793998
   5.9226461   6.1619607   6.1616916   6.1648589   6.1647536   5.9226579
   5.9238462   6.1629754   6.1631301   6.1631989   6.1630195   5.9239862
   5.9228688   6.1648979   6.1648996   6.1618977   6.1618118   5.9225528
   8.4922940   8.4924614   8.4927602   8.4923460   8.4928406   8.4924938
 TTTTTTTTTTTTTTTTTTTTTTTTTTTTTT MOQGAD      TELAPSE       92.13 TCPU     2204.52
 TTTTTTTTTTTTTTTTTTTTTTTTTTTTTT SHELLXN     TELAPSE      100.46 TCPU     2470.13
 TTTTTTTTTTTTTTTTTTTTTTTTTTTTTT MONMO3      TELAPSE      100.62 TCPU     2475.31
 NUMERICALLY INTEGRATED DENSITY    198.0000412135
 TTTTTTTTTTTTTTTTTTTTTTTTTTTTTT NUMDFT      TELAPSE      101.19 TCPU     2493.52
 CYC   7 ETOT(AU) -1.289109477867E+03 DETOT -3.25E-05 tst  7.89E-07 PX  9.84E-04
 TTTTTTTTTTTTTTTTTTTTTTTTTTTTTT DIIS        TELAPSE      101.27 TCPU     2496.04
 DIIS TEST: 0.29874E-05 AT SCF   CYCLE   7 - DIIS ACTIVE - HISTORY:     7 CYCLES
 TTTTTTTTTTTTTTTTTTTTTTTTTTTTTT FDIK        TELAPSE      101.76 TCPU     2511.76
 INSULATING STATE
 TOP OF VALENCE BANDS -    BAND     99; K    1; EIG -2.3395685E-01 AU
 BOTTOM OF VIRTUAL BANDS - BAND    100; K   17; EIG -9.0544868E-02 AU
 INDIRECT ENERGY BAND GAP:   3.9024 eV
 BOTTOM OF VIRTUAL BANDS - BAND    100; K    1; EIG -6.9455171E-02 AU
 TTTTTTTTTTTTTTTTTTTTTTTTTTTTTT PDIG        TELAPSE      102.04 TCPU     2517.90
 CHARGE NORMALIZATION FACTOR   1.00000000
 TOTAL ATOMIC CHARGES:
   4.5006067   4.4990554   4.4986248   4.4985225   4.4986329   4.4999675
   0.8793256   0.8794405   0.8797343   0.8797948   0.8787929   0.8789848
   0.8788357   0.8788730   0.8797018   0.8798321   0.8792767   0.8793180
   5.9221067   6.1618259   6.1619231   6.1646202   6.1648742   5.9230414
   5.9233240   6.1628561   6.1632445   6.1630208   6.1631957   5.9242469
   5.9224030   6.1646890   6.1649899   6.1617986   6.1620101   5.9228639
   8.4924555   8.4926202   8.4926171   8.4925441   8.4927180   8.4926912
 TTTTTTTTTTTTTTTTTTTTTTTTTTTTTT MOQGAD      TELAPSE      102.09 TCPU     2517.95
 TTTTTTTTTTTTTTTTTTTTTTTTTTTTTT SHELLXN     TELAPSE      110.42 TCPU     2783.59
 TTTTTTTTTTTTTTTTTTTTTTTTTTTTTT MONMO3      TELAPSE      110.58 TCPU     2788.76
 NUMERICALLY INTEGRATED DENSITY    198.0000412116
 TTTTTTTTTTTTTTTTTTTTTTTTTTTTTT NUMDFT      TELAPSE      111.15 TCPU     2806.96
 CYC   8 ETOT(AU) -1.289109478348E+03 DETOT -4.81E-07 tst  1.09E-08 PX  1.44E-04
 TTTTTTTTTTTTTTTTTTTTTTTTTTTTTT DIIS        TELAPSE      111.24 TCPU     2809.52
 DIIS TEST: 0.14552E-06 AT SCF   CYCLE   8 - DIIS ACTIVE - HISTORY:     8 CYCLES
 TTTTTTTTTTTTTTTTTTTTTTTTTTTTTT FDIK        TELAPSE      111.73 TCPU     2825.25
 INSULATING STATE
 TOP OF VALENCE BANDS -    BAND     99; K    1; EIG -2.3396273E-01 AU
 BOTTOM OF VIRTUAL BANDS - BAND    100; K   17; EIG -9.0537851E-02 AU
 INDIRECT ENERGY BAND GAP:   3.9028 eV
 BOTTOM OF VIRTUAL BANDS - BAND    100; K    1; EIG -6.9447893E-02 AU
 TTTTTTTTTTTTTTTTTTTTTTTTTTTTTT PDIG        TELAPSE      112.01 TCPU     2831.39
 CHARGE NORMALIZATION FACTOR   1.00000000
 TOTAL ATOMIC CHARGES:
   4.5006271   4.4990257   4.4985899   4.4984790   4.4985964   4.4999864
   0.8792979   0.8794391   0.8797237   0.8797790   0.8787841   0.8789637
   0.8788153   0.8788638   0.8796984   0.8798094   0.8792573   0.8793088
   5.9221127   6.1619469   6.1618324   6.1646666   6.1650180   5.9229173
   5.9233546   6.1629087   6.1633008   6.1631310   6.1631920   5.9241527
   5.9223220   6.1646997   6.1651697   6.1618750   6.1619620   5.9228270
   8.4923779   8.4925482   8.4927341   8.4924278   8.4928996   8.4925786
 TTTTTTTTTTTTTTTTTTTTTTTTTTTTTT MOQGAD      TELAPSE      112.06 TCPU     2831.44
 TTTTTTTTTTTTTTTTTTTTTTTTTTTTTT SHELLXN     TELAPSE      120.38 TCPU     3096.99
 +++ ENERGIES IN A.U. +++
 ::: EXT EL-POLE                                  -1.2801853303227E+03
 ::: EXT EL-SPHEROPOLE                             1.4675474187835E+01
 ::: BIELET ZONE E-E                               2.1965809314012E+03
 ::: TOTAL E-E                                     9.3107107526637E+02
 ::: TOTAL E-N + N-E                              -3.6906685848460E+03
 ::: TOTAL N-N                                     3.2427777318881E+02
 ::: KINETIC ENERGY                                1.2799220156789E+03
 ::: PSEUDO TOTAL   ENERGY                        -1.1553977207119E+03
 ::: VIRIAL COEFFICIENT                            1.0511326266963E+00
 TTTTTTTTTTTTTTTTTTTTTTTTTTTTTT MONMO3      TELAPSE      120.54 TCPU     3102.17
 NUMERICALLY INTEGRATED DENSITY    198.0000412116
 EXCHANGE ENERGY: -0.126020034738E+03  CORRELATION ENERGY: -0.769172299460E+01
 TTTTTTTTTTTTTTTTTTTTTTTTTTTTTT NUMDFT      TELAPSE      121.11 TCPU     3120.30
 CYC   9 ETOT(AU) -1.289109478444E+03 DETOT -9.63E-08 tst  4.57E-10 PX  1.44E-04

 == SCF ENDED - CONVERGENCE ON ENERGY      E(AU) -1.2891094784441E+03 CYCLES   9


 ENERGY EXPRESSION=HARTREE+FOCK EXCH*0.00000+(HSESOL     EXCH)*1.00000+PBESOL     CORR


 TOTAL ENERGY(DFT)(AU)(  9) -1.2891094784441E+03 DE-9.6E-08 tester 4.6E-10
 TTTTTTTTTTTTTTTTTTTTTTTTTTTTTT EDFT        TELAPSE      121.11 TCPU     3120.31
 
 INFORMATION **** DFTD3 ENERGY **** CALCULATE DFTD3 ENERGY

           DFT-D V3(BJ)
 DF                                         hsesol3c  
 parameters
 s6       :    1.0000
 s8       :    0.0000
 a1       :    0.5196
 a2       :    4.9385
 k1 k3    :   16.0000   -4.0000
 Cutoff   :   50.2022
 CN-Cutoff:   21.1671
 ABC-Cutoff:   21.1671
 
 Edisp /kcal,au:   -26.8405 -0.04277300

 E6    /kcal :   -28.6508
 E8    /kcal :     0.0000
 E6(ABC) "   :   1.810350
 
 INFORMATION **** DFTD3 ENERGY **** NORMAL TERMINATION OF DFTD3 MODULE

 GCP ENERGY CALCULATION
  level        hsesol3c            basis:hsesol3c
  Nbf            474
  Atoms           42

  Parameters: 
  sigma     1.0000
  eta       1.4281
  alpha     0.2936
  beta      1.9467

  dmp_scal      4.0000
  dmp_exp       6.0000
 cutoffs: 
   distance [bohr] 60.0
   noise    [a.u.] 2.2E-16
 SR-damping   T
 ** gCP correction **
  Egcp:        0.0830193663 / (a.u.) ||      52.0954 / (kcal/mol)
 INFORMATION **** GCP **** NORMAL TERMINATION OF GCP MODULE

 *******************************************************************************

 DFT-D3-GCP DISPERSION AND COUNTERPOISE CORRECTION

 D3 DISPERSION ENERGY (AU)      -4.2773002211085E-02
 GCP ENERGY (AU)                 8.3019366309864E-02
 TOTAL ENERGY + DISP + GCP (AU) -1.2890692320800E+03

 *******************************************************************************

 EIGENVECTORS IN FORTRAN UNIT 10
 TTTTTTTTTTTTTTTTTTTTTTTTTTTTTT END         TELAPSE      122.26 TCPU     3127.44
 EEEEEEEEEE TERMINATION  DATE 19 02 2026 TIME 19:02:41.6
