 Default number of threads is:           32

         
 *******************************************************************************
 *                                                                             *
 *                               CRYSTAL23                                     *
 *                      public : 1.0.1 - October 2022                          *
 *                       HTTP://WWW.CRYSTAL.UNITO.IT                           *
 *                                                                             *
 *                              MAIN AUTHORS                                   *
 *                                                                             *
 *  R. DOVESI(1,11), V.R. SAUNDERS(2), C. ROETTI(1,11), R. ORLANDO(1,11),      *
 *  C.M. ZICOVICH-WILSON(1,3), F. PASCALE(4), B. CIVALLERI(1,11),              *
 *  K. DOLL(5), N.M. HARRISON(6), I.J. BUSH(7), Ph. D'ARCO(8),                 *
 *  M. LLUNELL(9), M. CAUSA'(10), Y. NOEL(8), L. MASCHIO(1,11), A. ERBA(1,11)  *
 *  M. RE'RAT(14), S. CASASSA(1,11), B.G. SEARLE(2), J.K. DESMARAIS(1)         *
 *                                                                             *
 *        CONTRIBUTIONS TO THE CODE HAVE ALSO BEEN GIVEN BY                    *
 *                                                                             *
 *  M. FERRABONE(1,11), M. DE LA PIERRE(1,11), M. FERRERO(1,11),               *
 *  J. BAIMA(1,11), E. ALBANESE(1,11), M.F. PEINTINGER(12), R. BAST(13),       *
 *  B. KIRTMAN(15), V. LACIVITA(1,11), R. DEMICHELIS(1,16)                     *
 *  G. BRANDEBURG(17), S. SALUSTRO(1,11), G. SANSONE(1,11)                     *
 *  M.T. RUGGIERO(18), L.E. DAGA(1), L. DONA'(1), A. COSSARD(1)                *
 *                                                                             *
 * (1) THEORETICAL CHEMISTRY GROUP - UNIVERSITA' DI TORINO - TORINO (ITALY)    *
 * (2) SCIENTIFIC COMPUTING DEPARTMENT - STFC DARESBURY (UK)                   *
 * (3) UNIVERSIDAD AUTONOMA DEL ESTADO DE MORELOS - CUERNAVACA (MEXICO)        *
 * (4) UNIVERSITE' DE LORRAINE - NANCY (FRANCE)                                *
 * (5) UNIVERSITAET STUTTGART- STUTTGART (GERMANY)                             *
 * (6) IMPERIAL COLLEGE - LONDON (UK)                                          *
 * (7) SCIENTIFIC COMPUTING DEPARTMENT - STFC RAL (UK)                         *
 * (8) UPMC - SORBONNE UNIVERSITES - PARIS (FRANCE)                            *
 * (9) UNIVERSIDAD DE BARCELONA - BARCELONA (SPAIN)                            *
 *(10) UNIVERSITA' DI NAPOLI "FEDERICO II" - NAPOLI (ITALY)                    *
 *(11) NIS - NANOSTRUCTURED INTERFACES AND SURFACES - TORINO (ITALY)           *
 *(12) MPI FUER CHEMISCHE ENERGIEKONVERSION - MUELHEIM AN DER RUHR (GERMANY)   *
 *(13) UNIVERSITY OF TROMSO - TROMSO (NORWAY)                                  *
 *(14) UNIVERSITE' DE PAU ET DES PAYS DE L'ADOUR - PAU (FRANCE)                *
 *(15) UNIVERSITY OF CALIFORNIA SANTA BARBARA - SANTA BARBARA (USA)            *
 *(16) CURTIN UNIVERSITY - PERTH (AUSTRALIA)                                   *
 *(17) UNIVERSITY COLLEGE LONDON - LONDON (UK)                                 *
 *(18) UNIVERSITY OF VERMONT - BURLINGTON (USA)                                *
 *                                                                             *
 *******************************************************************************
 EEEEEEEEEE STARTING  DATE 02 12 2025 TIME 07:58:02.5
 COF-5_z33_inc_L070                                                              

 CRYSTAL CALCULATION
 (INPUT ACCORDING TO THE INTERNATIONAL TABLES FOR X-RAY CRYSTALLOGRAPHY)
 CRYSTAL FAMILY                       :  TRICLINIC   
 CRYSTAL CLASS  (GROTH - 1921)        :  TRICLINIC PEDIAL                     

 SPACE GROUP (NONCENTROSYMMETRIC)     :  P 1             

 LATTICE PARAMETERS  (ANGSTROMS AND DEGREES) - CONVENTIONAL CELL
        A           B           C        ALPHA        BETA       GAMMA
    15.02070    15.04439     7.73886    38.47331    89.99970   120.05310


 NUMBER OF IRREDUCIBLE ATOMS IN THE CONVENTIONAL CELL:   42

 INPUT COORDINATES

 ATOM AT. N.              COORDINATES
   1   5     4.806352500000E-01 -4.103037000000E-02  5.006070100000E-01
   2   5     6.394119500000E-01  1.179909800000E-01  5.006170000000E-01
   3   5     4.805657800000E-01  1.184469900000E-01  4.991871600000E-01
   4   5     9.251599000000E-02  3.426762100000E-01  5.054015600000E-01
   5   5     2.500003000000E-01  3.400017600000E-01  5.094450800000E-01
   6   5     2.518812500000E-01  5.025468500000E-01  5.034800000000E-01
   7   1     7.683892000000E-01  3.834774000000E-02  5.045050500000E-01
   8   1    -3.403801000000E-02  4.264690200000E-01  4.929157900000E-01
   9   1     7.716169900000E-01  3.292438800000E-01  4.927775000000E-01
  10   1    -3.705511000000E-02  1.357933900000E-01  5.040736600000E-01
  11   1     4.584514400000E-01  6.321945400000E-01  5.041957200000E-01
  12   1     2.749131900000E-01 -1.672122900000E-01  4.945478600000E-01
  13   1     1.762205700000E-01  6.383734200000E-01  4.958545900000E-01
  14   1     5.570548500000E-01 -1.731149600000E-01  5.023345600000E-01
  15   1     4.597864100000E-01  4.229943300000E-01  4.977518900000E-01
  16   1     2.702429300000E-01  3.692891000000E-02  5.060342500000E-01
  17   1     1.729772600000E-01  1.330465100000E-01  5.056694100000E-01
  18   1     5.573261500000E-01  3.266333500000E-01  4.986852500000E-01
  19   6     7.587718600000E-01  1.775544400000E-01  5.003670300000E-01
  20   6     8.128199200000E-01  1.234286800000E-01  5.021329600000E-01
  21   6    -7.843941000000E-02  3.412012200000E-01  4.957406500000E-01
  22   6     8.144912000000E-01  2.874950900000E-01  4.960777800000E-01
  23   6    -7.997589000000E-02  1.773396200000E-01  5.014893100000E-01
  24   6    -2.488596000000E-02  2.861852500000E-01  4.993062400000E-01
  25   6     3.112842700000E-01  6.228000300000E-01  5.018483500000E-01
  26   6     4.190523300000E-01  6.770723400000E-01  5.022384900000E-01
  27   6     3.140154100000E-01 -2.125464900000E-01  4.969626200000E-01
  28   6     2.595955000000E-01  6.798970000000E-01  4.980811900000E-01
  29   6     4.735231700000E-01 -2.152885100000E-01  5.008012200000E-01
  30   6     4.212816000000E-01 -1.594222200000E-01  4.991771200000E-01
  31   6     3.113972400000E-01  2.847679500000E-01  4.999482600000E-01
  32   6     4.193951100000E-01  3.383193600000E-01  4.993968300000E-01
  33   6     3.113379500000E-01  1.218584900000E-01  5.039199400000E-01
  34   6     2.576004000000E-01  1.752308600000E-01  5.033120600000E-01
  35   6     4.729557600000E-01  2.847504600000E-01  5.003351000000E-01
  36   6     4.198663400000E-01  1.763596400000E-01  5.015768400000E-01
  37   8     4.277962500000E-01  1.233877000000E-02  4.995769900000E-01
  38   8     5.861495500000E-01  1.102881000000E-02  5.025667500000E-01
  39   8     5.869765400000E-01  1.722019800000E-01  4.980474600000E-01
  40   8     1.460794400000E-01  4.499829200000E-01  5.027134100000E-01
  41   8     1.438208900000E-01  2.868965600000E-01  5.102004600000E-01
  42   8     3.042215300000E-01  4.483646900000E-01  5.051849100000E-01

 *******************************************************************************

 << INFORMATION >>: FROM NOW ON, ALL COORDINATES REFER TO THE PRIMITIVE CELL

 *******************************************************************************

 LATTICE PARAMETERS  (ANGSTROMS AND DEGREES) - PRIMITIVE CELL
       A          B          C        ALPHA      BETA     GAMMA        VOLUME
   15.02070   15.04439    7.73886    38.47331  89.99970 120.05310    645.552214

 COORDINATES OF THE EQUIVALENT ATOMS (FRACTIONAL UNITS)

 N. ATOM EQUIV AT. N.          X                  Y                  Z

   1   1   1    5 B     4.80635250000E-01 -4.10303700000E-02 -4.99392990000E-01

   2   2   1    5 B    -3.60588050000E-01  1.17990980000E-01 -4.99383000000E-01

   3   3   1    5 B     4.80565780000E-01  1.18446990000E-01  4.99187160000E-01

   4   4   1    5 B     9.25159900000E-02  3.42676210000E-01 -4.94598440000E-01

   5   5   1    5 B     2.50000300000E-01  3.40001760000E-01 -4.90554920000E-01

   6   6   1    5 B     2.51881250000E-01 -4.97453150000E-01 -4.96520000000E-01

   7   7   1    1 H    -2.31610800000E-01  3.83477400000E-02 -4.95494950000E-01

   8   8   1    1 H    -3.40380100000E-02  4.26469020000E-01  4.92915790000E-01

   9   9   1    1 H    -2.28383010000E-01  3.29243880000E-01  4.92777500000E-01

  10  10   1    1 H    -3.70551100000E-02  1.35793390000E-01 -4.95926340000E-01

  11  11   1    1 H     4.58451440000E-01 -3.67805460000E-01 -4.95804280000E-01

  12  12   1    1 H     2.74913190000E-01 -1.67212290000E-01  4.94547860000E-01

  13  13   1    1 H     1.76220570000E-01 -3.61626580000E-01  4.95854590000E-01

  14  14   1    1 H    -4.42945150000E-01 -1.73114960000E-01 -4.97665440000E-01

  15  15   1    1 H     4.59786410000E-01  4.22994330000E-01  4.97751890000E-01

  16  16   1    1 H     2.70242930000E-01  3.69289100000E-02 -4.93965750000E-01

  17  17   1    1 H     1.72977260000E-01  1.33046510000E-01 -4.94330590000E-01

  18  18   1    1 H    -4.42673850000E-01  3.26633350000E-01  4.98685250000E-01

  19  19   1    6 C    -2.41228140000E-01  1.77554440000E-01 -4.99632970000E-01

  20  20   1    6 C    -1.87180080000E-01  1.23428680000E-01 -4.97867040000E-01

  21  21   1    6 C    -7.84394100000E-02  3.41201220000E-01  4.95740650000E-01

  22  22   1    6 C    -1.85508800000E-01  2.87495090000E-01  4.96077780000E-01

  23  23   1    6 C    -7.99758900000E-02  1.77339620000E-01 -4.98510690000E-01

  24  24   1    6 C    -2.48859600000E-02  2.86185250000E-01  4.99306240000E-01

  25  25   1    6 C     3.11284270000E-01 -3.77199970000E-01 -4.98151650000E-01

  26  26   1    6 C     4.19052330000E-01 -3.22927660000E-01 -4.97761510000E-01

  27  27   1    6 C     3.14015410000E-01 -2.12546490000E-01  4.96962620000E-01

  28  28   1    6 C     2.59595500000E-01 -3.20103000000E-01  4.98081190000E-01

  29  29   1    6 C     4.73523170000E-01 -2.15288510000E-01 -4.99198780000E-01

  30  30   1    6 C     4.21281600000E-01 -1.59422220000E-01  4.99177120000E-01

  31  31   1    6 C     3.11397240000E-01  2.84767950000E-01  4.99948260000E-01

  32  32   1    6 C     4.19395110000E-01  3.38319360000E-01  4.99396830000E-01

  33  33   1    6 C     3.11337950000E-01  1.21858490000E-01 -4.96080060000E-01

  34  34   1    6 C     2.57600400000E-01  1.75230860000E-01 -4.96687940000E-01

  35  35   1    6 C     4.72955760000E-01  2.84750460000E-01 -4.99664900000E-01

  36  36   1    6 C     4.19866340000E-01  1.76359640000E-01 -4.98423160000E-01

  37  37   1    8 O     4.27796250000E-01  1.23387700000E-02  4.99576990000E-01

  38  38   1    8 O    -4.13850450000E-01  1.10288100000E-02 -4.97433250000E-01

  39  39   1    8 O    -4.13023460000E-01  1.72201980000E-01  4.98047460000E-01

  40  40   1    8 O     1.46079440000E-01  4.49982920000E-01 -4.97286590000E-01

  41  41   1    8 O     1.43820890000E-01  2.86896560000E-01 -4.89799540000E-01

  42  42   1    8 O     3.04221530000E-01  4.48364690000E-01 -4.94815090000E-01

 NUMBER OF SYMMETRY OPERATORS         :    1
 *******************************************************************************
 * GEOMETRY EDITING - INPUT COORDINATES ARE GIVEN IN ANGSTROM         
 *******************************************************************************

 GCALCO - MAX INDICES DIRECT LATTICE VECTOR     9    14    24
 NO.OF VECTORS CREATED 6999 STARS 3500 RMAX   207.03407 BOHR

 GEOMETRY FOR WAVE FUNCTION - DIMENSIONALITY OF THE SYSTEM    3
 (NON PERIODIC DIRECTION: LATTICE PARAMETER FORMALLY SET TO 500)
 *******************************************************************************
 LATTICE PARAMETERS (ANGSTROMS AND DEGREES) - BOHR = 0.5291772083 ANGSTROM
 PRIMITIVE CELL - CENTRING CODE 1/0 VOLUME=   645.552214 - DENSITY  1.003 g/cm^3
         A              B              C           ALPHA      BETA       GAMMA 
    15.02070100    15.04438700     7.73886300    38.473308  89.999696 120.053104
 *******************************************************************************
 ATOMS IN THE ASYMMETRIC UNIT   42 - ATOMS IN THE UNIT CELL:   42
     ATOM                 X/A                 Y/B                 Z/C    
 *******************************************************************************
      1 T   5 B     4.806352500000E-01 -4.103037000000E-02 -4.993929900000E-01
      2 T   5 B    -3.605880500000E-01  1.179909800000E-01 -4.993830000000E-01
      3 T   5 B     4.805657800000E-01  1.184469900000E-01  4.991871600000E-01
      4 T   5 B     9.251599000000E-02  3.426762100000E-01 -4.945984400000E-01
      5 T   5 B     2.500003000000E-01  3.400017600000E-01 -4.905549200000E-01
      6 T   5 B     2.518812500000E-01 -4.974531500000E-01 -4.965200000000E-01
      7 T   1 H    -2.316108000000E-01  3.834774000000E-02 -4.954949500000E-01
      8 T   1 H    -3.403801000000E-02  4.264690200000E-01  4.929157900000E-01
      9 T   1 H    -2.283830100000E-01  3.292438800000E-01  4.927775000000E-01
     10 T   1 H    -3.705511000000E-02  1.357933900000E-01 -4.959263400000E-01
     11 T   1 H     4.584514400000E-01 -3.678054600000E-01 -4.958042800000E-01
     12 T   1 H     2.749131900000E-01 -1.672122900000E-01  4.945478600000E-01
     13 T   1 H     1.762205700000E-01 -3.616265800000E-01  4.958545900000E-01
     14 T   1 H    -4.429451500000E-01 -1.731149600000E-01 -4.976654400000E-01
     15 T   1 H     4.597864100000E-01  4.229943300000E-01  4.977518900000E-01
     16 T   1 H     2.702429300000E-01  3.692891000000E-02 -4.939657500000E-01
     17 T   1 H     1.729772600000E-01  1.330465100000E-01 -4.943305900000E-01
     18 T   1 H    -4.426738500000E-01  3.266333500000E-01  4.986852500000E-01
     19 T   6 C    -2.412281400000E-01  1.775544400000E-01 -4.996329700000E-01
     20 T   6 C    -1.871800800000E-01  1.234286800000E-01 -4.978670400000E-01
     21 T   6 C    -7.843941000000E-02  3.412012200000E-01  4.957406500000E-01
     22 T   6 C    -1.855088000000E-01  2.874950900000E-01  4.960777800000E-01
     23 T   6 C    -7.997589000000E-02  1.773396200000E-01 -4.985106900000E-01
     24 T   6 C    -2.488596000000E-02  2.861852500000E-01  4.993062400000E-01
     25 T   6 C     3.112842700000E-01 -3.771999700000E-01 -4.981516500000E-01
     26 T   6 C     4.190523300000E-01 -3.229276600000E-01 -4.977615100000E-01
     27 T   6 C     3.140154100000E-01 -2.125464900000E-01  4.969626200000E-01
     28 T   6 C     2.595955000000E-01 -3.201030000000E-01  4.980811900000E-01
     29 T   6 C     4.735231700000E-01 -2.152885100000E-01 -4.991987800000E-01
     30 T   6 C     4.212816000000E-01 -1.594222200000E-01  4.991771200000E-01
     31 T   6 C     3.113972400000E-01  2.847679500000E-01  4.999482600000E-01
     32 T   6 C     4.193951100000E-01  3.383193600000E-01  4.993968300000E-01
     33 T   6 C     3.113379500000E-01  1.218584900000E-01 -4.960800600000E-01
     34 T   6 C     2.576004000000E-01  1.752308600000E-01 -4.966879400000E-01
     35 T   6 C     4.729557600000E-01  2.847504600000E-01 -4.996649000000E-01
     36 T   6 C     4.198663400000E-01  1.763596400000E-01 -4.984231600000E-01
     37 T   8 O     4.277962500000E-01  1.233877000000E-02  4.995769900000E-01
     38 T   8 O    -4.138504500000E-01  1.102881000000E-02 -4.974332500000E-01
     39 T   8 O    -4.130234600000E-01  1.722019800000E-01  4.980474600000E-01
     40 T   8 O     1.460794400000E-01  4.499829200000E-01 -4.972865900000E-01
     41 T   8 O     1.438208900000E-01  2.868965600000E-01 -4.897995400000E-01
     42 T   8 O     3.042215300000E-01  4.483646900000E-01 -4.948150900000E-01

 T = ATOM BELONGING TO THE ASYMMETRIC UNIT

 ****    1 SYMMOPS - TRANSLATORS IN FRACTIONAL UNITS
 **** MATRICES AND TRANSLATORS IN THE CRYSTALLOGRAPHIC REFERENCE FRAME
   V INV                    ROTATION MATRICES                   TRANSLATORS
   1   1  1.00 -0.00  0.00  0.00  1.00  0.00 -0.00 -0.00  1.00  0.00  0.00  0.00

 DIRECT LATTICE VECTORS CARTESIAN COMPONENTS (ANGSTROM)
          X                    Y                    Z
   0.130013421718E+02  -0.752240388864E+01   0.000000000000E+00
   0.000000000000E+00   0.150443870000E+02   0.000000000000E+00
   0.350555448969E+01   0.605874097349E+01   0.330041604480E+01


 CARTESIAN COORDINATES - PRIMITIVE CELL
 *******************************************************************************
 *      ATOM          X(ANGSTROM)         Y(ANGSTROM)         Z(ANGSTROM)
 *******************************************************************************
    1     5 B     9.926995171656E-01  1.727144017478E+00 -4.948620681663E+00
    2     5 B     3.057044743260E+00  2.925200809457E+00 -4.948587710507E+00
    3     5 B    -1.497859750329E+00 -2.718439738170E-01  4.947941357029E+00
    4     5 B    -5.310097395840E-01  1.462767042145E+00 -1.632380627111E+00
    5     5 B     1.530672441102E+00  2.623696356903E-01 -1.619035328826E+00
    6     5 B     1.534216402684E+00  2.657470734400E+00 -1.638722574566E+00
    7     1 H    -4.748235808068E+00 -6.828873320135E-01 -1.635339483100E+00
    8     1 H    -2.220151143871E+00  3.599720759042E+00 -1.673588862751E+00
    9     1 H     2.263727208000E+00  6.712267941734E-01  4.926786812323E+00
   10     1 H    -2.220262972064E+00 -6.830174212290E-01 -1.636763249577E+00
   11     1 H     4.222415120822E+00  3.058372717972E+00 -1.636360400795E+00
   12     1 H     5.307904921712E+00 -1.587277068679E+00  1.632213692068E+00
   13     1 H     5.237947227942E-01  5.223848027805E+00 -1.663889600079E+00
   14     1 H     1.992312906054E+00 -8.243799894584E-01 -4.942919047925E+00
   15     1 H     4.217182325394E+00 -1.379998821160E-01 -1.657627720717E+00
   16     1 H     1.781896949768E+00 -4.470114183006E+00 -1.630292486884E+00
   17     1 H     5.160337260315E-01 -2.294622627912E+00 -1.631496610674E+00
   18     1 H    -5.016313875806E-01  2.279728745681E+00  4.946284845212E+00
   19     6 C    -4.887780190780E+00  1.458666460271E+00 -1.648996670701E+00
   20     6 C    -4.178892305159E+00  2.485055558913E-01 -1.643168366995E+00
   21     6 C    -2.787526237521E+00  2.668039336251E+00 -1.664265649483E+00
   22     6 C    -4.178390185449E+00  2.667525311293E+00 -1.663152980221E+00
   23     6 C    -2.787350298869E+00  2.492296764228E-01 -1.645292679783E+00
   24     6 C    -2.078760139560E+00  1.459110098088E+00 -1.652497719037E+00
   25     6 C     2.300815553758E+00  4.009866858946E+00 -1.644107698406E+00
   26     6 C     1.977581443475E-01 -2.040691595928E+00 -4.943236118895E+00
   27     6 C     5.824751336368E+00 -2.548814604244E+00  1.640183404716E+00
   28     6 C     1.615586183899E+00  5.234855329955E+00 -1.656540893713E+00
   29     6 C     9.009137452701E-01 -8.397862722498E-01 -4.947979707863E+00
   30     6 C    -2.268668855649E+00 -4.006317188034E+00  4.947908220852E+00
   31     6 C     2.295623446353E+00 -1.087980530093E+00 -1.650378785928E+00
   32     6 C     3.697807640133E+00 -1.098076962445E+00 -1.652198734348E+00
   33     6 C     2.308775537431E+00 -3.514344108618E+00 -1.637270589532E+00
   34     6 C     1.607984305945E+00 -2.310836951607E+00 -1.639276846437E+00
   35     6 C     4.397457134337E+00 -2.301208332154E+00 -1.649102052986E+00
   36     6 C     3.711576406448E+00 -3.524998335012E+00 -1.645003794366E+00
   37     8 O    -2.182567895796E+00 -1.468861502711E+00  4.949227958216E+00
   38     8 O     2.371397010836E+00  1.728494844708E+00 -4.942152724324E+00
   39     8 O    -1.183723292620E-01 -2.705029629807E-01  4.944179872863E+00
   40     8 O     1.559635454652E-01  2.657918005965E+00 -1.641252640502E+00
   41     8 O     1.528456258452E-01  2.667355136121E-01 -1.616542260554E+00
   42     8 O     2.220686947236E+00  1.458938233132E+00 -1.633095662247E+00

 *******************************************************************************
 STARTING BASIS SET HANDLING 
 *******************************************************************************

 Loading internal basis set: SOLDEF2MSVP         

 Please cite in your publication:
 L. Dona', J. G. Brandenburg and B. Civalleri, J. Chem. Phys., 151, 121101 (2019
 )                                                                              
                                                                                
                    

 *******************************************************************************
 LOCAL ATOMIC FUNCTIONS BASIS SET
 *******************************************************************************
   ATOM   X(AU)   Y(AU)   Z(AU)  N. TYPE  EXPONENT  S COEF   P COEF   D/F/G COEF
 *******************************************************************************
   1 B    1.876   3.264  -9.352
                                  1 S  
                                         2.410E+03 1.755E-03 0.000E+00 0.000E+00
                                         3.619E+02 1.344E-02 0.000E+00 0.000E+00
                                         8.231E+01 6.637E-02 0.000E+00 0.000E+00
                                         2.311E+01 2.303E-01 0.000E+00 0.000E+00
                                         7.252E+00 5.150E-01 0.000E+00 0.000E+00
                                  2 S  
                                         2.367E+00 1.000E+00 0.000E+00 0.000E+00
                                  3 S  
                                         5.533E-01 1.000E+00 0.000E+00 0.000E+00
                                  4 S  
                                         1.716E-01 1.000E+00 0.000E+00 0.000E+00
                           5-     7 P  
                                         6.002E+00 0.000E+00-3.555E-02 0.000E+00
                                         1.240E+00 0.000E+00-1.983E-01 0.000E+00
                                         3.367E-01 0.000E+00-5.048E-01 0.000E+00
                           8-    10 P  
                                         1.256E-01 0.000E+00 1.000E+00 0.000E+00
                          11-    15 D  
                                         8.880E-01 0.000E+00 0.000E+00 1.000E+00
   2 B    5.777   5.528  -9.351
   3 B   -2.831  -0.514   9.350
   4 B   -1.003   2.764  -3.085
   5 B    2.893   0.496  -3.060
   6 B    2.899   5.022  -3.097
   7 H   -8.973  -1.290  -3.090
                                 91 S  
                                         1.874E+01 1.968E-02 0.000E+00 0.000E+00
                                         2.826E+00 1.380E-01 0.000E+00 0.000E+00
                                         6.401E-01 4.783E-01 0.000E+00 0.000E+00
                                 92 S  
                                         1.756E-01 1.000E+00 0.000E+00 0.000E+00
   8 H   -4.195   6.802  -3.163
   9 H    4.278   1.268   9.310
  10 H   -4.196  -1.291  -3.093
  11 H    7.979   5.779  -3.092
  12 H   10.030  -3.000   3.084
  13 H    0.990   9.872  -3.144
  14 H    3.765  -1.558  -9.341
  15 H    7.969  -0.261  -3.132
  16 H    3.367  -8.447  -3.081
  17 H    0.975  -4.336  -3.083
  18 H   -0.948   4.308   9.347
  19 C   -9.237   2.756  -3.116
                                115 S  
                                         3.624E+03 1.634E-03 0.000E+00 0.000E+00
                                         5.440E+02 1.252E-02 0.000E+00 0.000E+00
                                         1.237E+02 6.211E-02 0.000E+00 0.000E+00
                                         3.476E+01 2.182E-01 0.000E+00 0.000E+00
                                         1.093E+01 4.980E-01 0.000E+00 0.000E+00
                                116 S  
                                         3.574E+00 1.000E+00 0.000E+00 0.000E+00
                                117 S  
                                         7.742E-01 1.000E+00 0.000E+00 0.000E+00
                                118 S  
                                         2.330E-01 1.000E+00 0.000E+00 0.000E+00
                         119-   121 P  
                                         9.443E+00 0.000E+00 3.790E-02 0.000E+00
                                         2.002E+00 0.000E+00 2.082E-01 0.000E+00
                                         5.463E-01 0.000E+00 5.047E-01 0.000E+00
                         122-   124 P  
                                         1.820E-01 0.000E+00 1.000E+00 0.000E+00
                         125-   129 D  
                                         8.880E-01 0.000E+00 0.000E+00 1.000E+00
  20 C   -7.897   0.470  -3.105
  21 C   -5.268   5.042  -3.145
  22 C   -7.896   5.041  -3.143
  23 C   -5.267   0.471  -3.109
  24 C   -3.928   2.757  -3.123
  25 C    4.348   7.578  -3.107
  26 C    0.374  -3.856  -9.341
  27 C   11.007  -4.817   3.099
  28 C    3.053   9.892  -3.130
  29 C    1.702  -1.587  -9.350
  30 C   -4.287  -7.571   9.350
  31 C    4.338  -2.056  -3.119
  32 C    6.988  -2.075  -3.122
  33 C    4.363  -6.641  -3.094
  34 C    3.039  -4.367  -3.098
  35 C    8.310  -4.349  -3.116
  36 C    7.014  -6.661  -3.109
  37 O   -4.124  -2.776   9.353
                                385 S  
                                         6.773E+03 1.727E-03 0.000E+00 0.000E+00
                                         1.017E+03 1.325E-02 0.000E+00 0.000E+00
                                         2.313E+02 6.603E-02 0.000E+00 0.000E+00
                                         6.501E+01 2.353E-01 0.000E+00 0.000E+00
                                         2.050E+01 5.498E-01 0.000E+00 0.000E+00
                                386 S  
                                         6.716E+00 1.000E+00 0.000E+00 0.000E+00
                                387 S  
                                         1.147E+00 1.000E+00 0.000E+00 0.000E+00
                                388 S  
                                         3.342E-01 1.000E+00 0.000E+00 0.000E+00
                         389-   391 P  
                                         1.769E+01 0.000E+00 4.359E-02 0.000E+00
                                         3.854E+00 0.000E+00 2.318E-01 0.000E+00
                                         1.047E+00 0.000E+00 5.146E-01 0.000E+00
                         392-   394 P  
                                         2.759E-01 0.000E+00 1.000E+00 0.000E+00
                         395-   399 D  
                                         8.000E-01 0.000E+00 0.000E+00 1.000E+00
  38 O    4.481   3.266  -9.339
  39 O   -0.224  -0.511   9.343
  40 O    0.295   5.023  -3.102
  41 O    0.289   0.504  -3.055
  42 O    4.196   2.757  -3.086

 *******************************************************************************
 FINISHED BASIS SET HANDLING 
 *******************************************************************************

 INFORMATION **** SET_MPP **** PCRYSTAL CALCULATION
 INFORMATION **** READM2 **** NEW DEFAULT: FOCK/KS MATRIX MIXING SET TO 30 %
 INFORMATION **** READM2 **** NEW DEFAULT: FULL DIRECT SCF MODE
 INFORMATION **** READM2 **** NEW DEFAULT: COULOMB BIPOLAR BUFFER SET TO 32 Mb
 INFORMATION **** READM2 **** NEW DEFAULT: EXCHANGE BIPOLAR BUFFER SET TO 32 Mb

 *******************************************************************************
 NEW DEFAULT: DFT INTEGRATION GRID INCREASED TO XLGRID
 NEW DEFAULT: DIIS ACCELERATOR ACTIVE
 USE KEYWORD NODIIS TO TURN IT OFF
 *******************************************************************************

 WARNING **** RDDFTP **** HSEsol-HJS ACTIVE
 RANGE SEPARATION - OMEGA:   0.110000000000000     
 WARNING **** RDDFTP **** HSEsol-3c has to be combined with sol-def2-mSVP basis set
 *******************************************************************************
 N. OF ATOMS PER CELL        42  COULOMB OVERLAP TOL         (T1) 10**   -6
 NUMBER OF SHELLS           234  COULOMB PENETRATION TOL     (T2) 10**   -6
 NUMBER OF AO               474  EXCHANGE OVERLAP TOL        (T3) 10**   -6
 N. OF ELECTRONS PER CELL   198  EXCHANGE PSEUDO OVP (F(G))  (T4) 10**   -6
 CORE ELECTRONS PER CELL     60  EXCHANGE PSEUDO OVP (P(G))  (T5) 10**  -12
 N. OF SYMMETRY OPERATORS     1  POLE ORDER IN MONO ZONE                  4
 *******************************************************************************
 TYPE OF CALCULATION :  RESTRICTED CLOSED SHELL
 KOHN-SHAM HAMILTONIAN

 (EXCHANGE)[CORRELATION] FUNCTIONAL:(HSEsol GGA)[PBEsol]

 RANGE-SEPARATED HYBRID FUNCTIONAL 
 OMEGA (SHORT-RANGE)[LONG-RANGE]:(    0.1100)[    0.0000]

 HYBRID EXCHANGE - PERCENTAGE OF FOCK EXCHANGE    25.0000

 CAPPA:IS1  2;IS2  2;IS3  8; K PTS MONK NET  20; SYMMOPS:K SPACE   2;G SPACE   1

 *******************************************************************************
 MAX NUMBER OF SCF CYCLES      50  CONVERGENCE ON DELTAP        10**-16
 WEIGHT OF F(I) IN F(I+1)      30% CONVERGENCE ON ENERGY        10**- 6
 SHRINK. FACT.(MONKH.)    2  2  8  NUMBER OF K POINTS IN THE IBZ     20
 SHRINKING FACTOR(GILAT NET)    8  NUMBER OF K POINTS(GILAT NET)   1028
 *******************************************************************************
 *** K POINTS COORDINATES (OBLIQUE COORDINATES IN UNITS OF IS =  2)
   1-R(  0  0  0)   2-R(  1  0  0)   3-R(  0  1  0)   4-R(  1  1  0)
   5-C(  0  0  1)   6-C(  1  0  1)   7-C(  0  1  1)   8-C(  1  1  1)
   9-C(  0  0  2)  10-C(  1  0  2)  11-C(  0  1  2)  12-C(  1  1  2)
  13-C(  0  0  3)  14-C(  1  0  3)  15-C(  0  1  3)  16-C(  1  1  3)
  17-R(  0  0  4)  18-R(  1  0  4)  19-R(  0  1  4)  20-R(  1  1  4)

 DIRECT LATTICE VECTORS COMPON. (A.U.)     RECIP. LATTICE VECTORS COMPON. (A.U.) 
        X            Y            Z              X            Y            Z
   24.5689761  -14.2152832    0.0000000      0.2557366    0.0000000   -0.2716319
    0.0000000   28.4297713    0.0000000      0.1278719    0.2210072   -0.5415340
    6.6245379   11.4493612    6.2368825      0.0000000    0.0000000    1.0074240

 DISK SPACE FOR EIGENVECTORS (FTN 10)     7189632 REALS

 SYMMETRY ADAPTION OF THE BLOCH FUNCTIONS DISABLED
 TTTTTTTTTTTTTTTTTTTTTTTTTTTTTT gordsh1     TELAPSE        0.04 TCPU        0.04

 MATRIX SIZE: P(G)  356342, F(G)   67593, P(G) IRR  179356, F(G) IRR   68109
 MAX G-VECTOR INDEX FOR 1- AND 2-ELECTRON INTEGRALS  79

 TTTTTTTTTTTTTTTTTTTTTTTTTTTTTT INPUT       TELAPSE        0.43 TCPU        0.43

 NEIGHBORS OF THE NON-EQUIVALENT ATOMS

 N = NUMBER OF NEIGHBORS AT DISTANCE R
    ATOM  N     R/ANG      R/AU   NEIGHBORS (ATOM LABELS AND CELL INDICES)
   1 B    1     1.3787     2.6054   38 O    0 0 0
   1 B    1     1.3795     2.6068   37 O    1 2-3
   1 B    1     1.5517     2.9323   30 C    1 2-3
   1 B    1     2.3868     4.5104    2 B    0 0 0
   1 B    1     2.3912     4.5187    3 B    1 2-3
   1 B    1     2.5629     4.8432   27 C    0 1-2

   2 B    1     1.3792     2.6064   38 O    0 0 0
   2 B    1     1.3798     2.6075   39 O    1 2-3
   2 B    1     1.5510     2.9309   19 C    1 1-1
   2 B    1     2.3868     4.5104    1 B    0 0 0
   2 B    1     2.3894     4.5154    3 B    1 2-3
   2 B    1     2.5618     4.8411   22 C    1 1-1

   3 B    1     1.3790     2.6060   37 O    0 0 0
   3 B    1     1.3795     2.6069   39 O    0 0 0
   3 B    1     1.5529     2.9346   36 C   -1-1 2
   3 B    1     2.3894     4.5154    2 B   -1-2 3
   3 B    1     2.3912     4.5187    1 B   -1-2 3
   3 B    1     2.5679     4.8526   35 C   -1-1 2

   4 B    1     1.3778     2.6037   41 O    0 0 0
   4 B    1     1.3785     2.6051   40 O    0 0 0
   4 B    1     1.5479     2.9251   24 C    0 0 0
   4 B    1     2.3857     4.5084    5 B    0 0 0
   4 B    1     2.3859     4.5087    6 B    0 0 0
   4 B    1     2.5584     4.8347   21 C    0 0 0

   5 B    1     1.3778     2.6037   41 O    0 0 0
   5 B    1     1.3813     2.6104   42 O    0 0 0
   5 B    1     1.5523     2.9334   31 C    0 0 0
   5 B    1     2.3857     4.5084    4 B    0 0 0
   5 B    1     2.3952     4.5262    6 B    0 0 0
   5 B    1     2.5590     4.8358   32 C    0 0 0

   6 B    1     1.3783     2.6045   40 O    0 0 0
   6 B    1     1.3812     2.6101   42 O    0 0 0
   6 B    1     1.5546     2.9377   25 C    0 0 0
   6 B    1     2.3859     4.5087    4 B    0 0 0
   6 B    1     2.3952     4.5262    5 B    0 0 0
   6 B    1     2.5605     4.8386   26 C    0 0 1

   7 H    1     1.0917     2.0629   20 C    0 0 0
   7 H    1     2.1461     4.0556   19 C    0 0 0
   7 H    1     2.1712     4.1029   23 C    0 0 0
   7 H    1     2.5280     4.7772   10 H    0 0 0
   7 H    1     2.5583     4.8346   38 O   -1-1 1
   7 H    1     2.7310     5.1608    2 B   -1-1 1

   8 H    1     1.0909     2.0615   21 C    0 0 0
   8 H    1     2.1454     4.0542   24 C    0 0 0
   8 H    1     2.1688     4.0985   22 C    0 0 0
   8 H    1     2.5272     4.7758    9 H    0 1-2
   8 H    1     2.5562     4.8304   40 O    0 0 0
   8 H    1     2.7242     5.1481    4 B    0 0 0

   9 H    1     1.0908     2.0614   22 C    0-1 2
   9 H    1     2.1442     4.0520   19 C    0-1 2
   9 H    1     2.1694     4.0995   21 C    0-1 2
   9 H    1     2.5272     4.7758    8 H    0-1 2
   9 H    1     2.5616     4.8406   39 O    0 0 0
   9 H    1     2.7248     5.1492    2 B   -1-2 3

  10 H    1     1.0912     2.0621   23 C    0 0 0
  10 H    1     2.1469     4.0570   24 C    0 0 0
  10 H    1     2.1689     4.0986   20 C    0 0 0
  10 H    1     2.5280     4.7772    7 H    0 0 0
  10 H    1     2.5562     4.8305   41 O    0 0 0
  10 H    1     2.7309     5.1607    4 B    0 0 0

  11 H    1     1.0911     2.0619   26 C    0 0 1
  11 H    1     2.1443     4.0521   25 C    0 0 0
  11 H    1     2.1684     4.0978   29 C    0 0 1
  11 H    1     2.5222     4.7664   14 H    0 0 1
  11 H    1     2.5622     4.8419   42 O    0 0 0
  11 H    1     2.7179     5.1361    6 B    0 0 0

  12 H    1     1.0917     2.0630   27 C    0 0 0
  12 H    1     2.1441     4.0518   30 C    1 1-1
  12 H    1     2.1716     4.1037   28 C    0-1 1
  12 H    1     2.5226     4.7669   13 H    0-1 1
  12 H    1     2.5541     4.8265   37 O    1 1-1
  12 H    1     2.7237     5.1470    1 B    0-1 2

  13 H    1     1.0919     2.0633   28 C    0 0 0
  13 H    1     2.1522     4.0671   25 C    0 0 0
  13 H    1     2.1668     4.0946   27 C    0 1-1
  13 H    1     2.5226     4.7669   12 H    0 1-1
  13 H    1     2.5923     4.8987   40 O    0 0 0
  13 H    1     2.7582     5.2123    6 B    0 0 0

  14 H    1     1.0915     2.0627   29 C    0 0 0
  14 H    1     2.1483     4.0597   30 C    1 2-3
  14 H    1     2.1679     4.0968   26 C    0 0 0
  14 H    1     2.5222     4.7664   11 H    0 0-1
  14 H    1     2.5809     4.8771   38 O    0 0 0
  14 H    1     2.7404     5.1785    1 B    0 0 0

  15 H    1     1.0916     2.0628   32 C    0 0 0
  15 H    1     2.1436     4.0508   31 C    0 0 0
  15 H    1     2.1707     4.1021   35 C    0 0 0
  15 H    1     2.5217     4.7654   18 H    1 1-2
  15 H    1     2.5567     4.8315   42 O    0 0 0
  15 H    1     2.7165     5.1334    5 B    0 0 0

  16 H    1     1.0914     2.0624   33 C    0 0 0
  16 H    1     2.1487     4.0605   36 C    0 0 0
  16 H    1     2.1663     4.0937   34 C    0 0 0
  16 H    1     2.5170     4.7564   17 H    0 0 0
  16 H    1     2.5779     4.8716   37 O    1 1-2
  16 H    1     2.7395     5.1769    3 B    1 1-2

  17 H    1     1.0921     2.0638   34 C    0 0 0
  17 H    1     2.1502     4.0633   31 C    0 0 0
  17 H    1     2.1683     4.0976   33 C    0 0 0
  17 H    1     2.5170     4.7564   16 H    0 0 0
  17 H    1     2.5870     4.8888   41 O    0 0 0
  17 H    1     2.7510     5.1986    5 B    0 0 0

  18 H    1     1.0913     2.0622   35 C   -1-1 2
  18 H    1     2.1495     4.0619   36 C   -1-1 2
  18 H    1     2.1656     4.0923   32 C   -1-1 2
  18 H    1     2.5217     4.7654   15 H   -1-1 2
  18 H    1     2.5789     4.8734   39 O    0 0 0
  18 H    1     2.7392     5.1763    3 B    0 0 0

  19 C    1     1.4017     2.6488   22 C    0 0 0
  19 C    1     1.4025     2.6504   20 C    0 0 0
  19 C    1     1.5510     2.9309    2 B   -1-1 1
  19 C    1     2.1442     4.0520    9 H    0 1-2
  19 C    1     2.1461     4.0556    7 H    0 0 0
  19 C    1     2.4236     4.5800   21 C    0 0 0

  20 C    1     1.0917     2.0629    7 H    0 0 0
  20 C    1     1.3915     2.6296   23 C    0 0 0
  20 C    1     1.4025     2.6504   19 C    0 0 0
  20 C    1     2.1689     4.0986   10 H    0 0 0
  20 C    1     2.4191     4.5714   22 C    0 0 0
  20 C    1     2.4241     4.5809   24 C    0 0 0

  21 C    1     1.0909     2.0615    8 H    0 0 0
  21 C    1     1.3909     2.6284   22 C    0 0 0
  21 C    1     1.4014     2.6483   24 C    0 0 0
  21 C    1     2.1694     4.0995    9 H    0 1-2
  21 C    1     2.4189     4.5710   23 C    0 0 0
  21 C    1     2.4236     4.5800   19 C    0 0 0

  22 C    1     1.0908     2.0614    9 H    0 1-2
  22 C    1     1.3909     2.6284   21 C    0 0 0
  22 C    1     1.4017     2.6488   19 C    0 0 0
  22 C    1     2.1688     4.0985    8 H    0 0 0
  22 C    1     2.4191     4.5714   20 C    0 0 0
  22 C    1     2.4226     4.5780   24 C    0 0 0

  23 C    1     1.0912     2.0621   10 H    0 0 0
  23 C    1     1.3915     2.6296   20 C    0 0 0
  23 C    1     1.4021     2.6496   24 C    0 0 0
  23 C    1     2.1712     4.1029    7 H    0 0 0
  23 C    1     2.4189     4.5710   21 C    0 0 0
  23 C    1     2.4237     4.5802   19 C    0 0 0

  24 C    1     1.4014     2.6483   21 C    0 0 0
  24 C    1     1.4021     2.6496   23 C    0 0 0
  24 C    1     1.5479     2.9251    4 B    0 0 0
  24 C    1     2.1454     4.0542    8 H    0 0 0
  24 C    1     2.1469     4.0570   10 H    0 0 0
  24 C    1     2.4226     4.5780   22 C    0 0 0

  25 C    1     1.4025     2.6504   26 C    0 0 1
  25 C    1     1.4037     2.6526   28 C    0 0 0
  25 C    1     1.5546     2.9377    6 B    0 0 0
  25 C    1     2.1443     4.0521   11 H    0 0 0
  25 C    1     2.1522     4.0671   13 H    0 0 0
  25 C    1     2.4271     4.5865   27 C    0 1-1

  26 C    1     1.0911     2.0619   11 H    0 0-1
  26 C    1     1.3916     2.6298   29 C    0 0 0
  26 C    1     1.4025     2.6504   25 C    0 0-1
  26 C    1     2.1679     4.0968   14 H    0 0 0
  26 C    1     2.4165     4.5665   28 C    0 0-1
  26 C    1     2.4246     4.5819   30 C    1 2-3

  27 C    1     1.0917     2.0630   12 H    0 0 0
  27 C    1     1.3928     2.6320   28 C    0-1 1
  27 C    1     1.4024     2.6501   30 C    1 1-1
  27 C    1     2.1668     4.0946   13 H    0-1 1
  27 C    1     2.4166     4.5668   29 C    0-1 2
  27 C    1     2.4271     4.5865   25 C    0-1 1

  28 C    1     1.0919     2.0633   13 H    0 0 0
  28 C    1     1.3928     2.6320   27 C    0 1-1
  28 C    1     1.4037     2.6526   25 C    0 0 0
  28 C    1     2.1716     4.1037   12 H    0 1-1
  28 C    1     2.4165     4.5665   26 C    0 0 1
  28 C    1     2.4277     4.5877   30 C    1 2-2

  29 C    1     1.0915     2.0627   14 H    0 0 0
  29 C    1     1.3916     2.6298   26 C    0 0 0
  29 C    1     1.4023     2.6499   30 C    1 2-3
  29 C    1     2.1684     4.0978   11 H    0 0-1
  29 C    1     2.4166     4.5668   27 C    0 1-2
  29 C    1     2.4281     4.5884   25 C    0 0-1

  30 C    1     1.4023     2.6499   29 C   -1-2 3
  30 C    1     1.4024     2.6501   27 C   -1-1 1
  30 C    1     1.5517     2.9323    1 B   -1-2 3
  30 C    1     2.1441     4.0518   12 H   -1-1 1
  30 C    1     2.1483     4.0597   14 H   -1-2 3
  30 C    1     2.4246     4.5819   26 C   -1-2 3

  31 C    1     1.4022     2.6498   32 C    0 0 0
  31 C    1     1.4030     2.6512   34 C    0 0 0
  31 C    1     1.5523     2.9334    5 B    0 0 0
  31 C    1     2.1436     4.0508   15 H    0 0 0
  31 C    1     2.1502     4.0633   17 H    0 0 0
  31 C    1     2.4264     4.5853   33 C    0 0 0

  32 C    1     1.0916     2.0628   15 H    0 0 0
  32 C    1     1.3918     2.6301   35 C    0 0 0
  32 C    1     1.4022     2.6498   31 C    0 0 0
  32 C    1     2.1656     4.0923   18 H    1 1-2
  32 C    1     2.4163     4.5661   34 C    0 0 0
  32 C    1     2.4270     4.5863   36 C    0 0 0

  33 C    1     1.0914     2.0624   16 H    0 0 0
  33 C    1     1.3927     2.6318   34 C    0 0 0
  33 C    1     1.4029     2.6510   36 C    0 0 0
  33 C    1     2.1683     4.0976   17 H    0 0 0
  33 C    1     2.4155     4.5646   35 C    0 0 0
  33 C    1     2.4264     4.5853   31 C    0 0 0

  34 C    1     1.0921     2.0638   17 H    0 0 0
  34 C    1     1.3927     2.6318   33 C    0 0 0
  34 C    1     1.4030     2.6512   31 C    0 0 0
  34 C    1     2.1663     4.0937   16 H    0 0 0
  34 C    1     2.4163     4.5661   32 C    0 0 0
  34 C    1     2.4289     4.5899   36 C    0 0 0

  35 C    1     1.0913     2.0622   18 H    1 1-2
  35 C    1     1.3918     2.6301   32 C    0 0 0
  35 C    1     1.4029     2.6511   36 C    0 0 0
  35 C    1     2.1707     4.1021   15 H    0 0 0
  35 C    1     2.4155     4.5646   33 C    0 0 0
  35 C    1     2.4269     4.5861   31 C    0 0 0

  36 C    1     1.4029     2.6510   33 C    0 0 0
  36 C    1     1.4029     2.6511   35 C    0 0 0
  36 C    1     1.5529     2.9346    3 B    1 1-2
  36 C    1     2.1487     4.0605   16 H    0 0 0
  36 C    1     2.1495     4.0619   18 H    1 1-2
  36 C    1     2.4270     4.5863   32 C    0 0 0

  37 O    1     1.3790     2.6060    3 B    0 0 0
  37 O    1     1.3795     2.6068    1 B   -1-2 3
  37 O    1     2.3868     4.5105   39 O    0 0 0
  37 O    1     2.3885     4.5136   38 O   -1-2 3
  37 O    1     2.5389     4.7979   30 C    0 0 0
  37 O    1     2.5412     4.8021   36 C   -1-1 2

  38 O    1     1.3787     2.6054    1 B    0 0 0
  38 O    1     1.3792     2.6064    2 B    0 0 0
  38 O    1     2.3885     4.5136   37 O    1 2-3
  38 O    1     2.3912     4.5187   39 O    1 2-3
  38 O    1     2.5351     4.7906   19 C    1 1-1
  38 O    1     2.5405     4.8008   30 C    1 2-3

  39 O    1     1.3795     2.6069    3 B    0 0 0
  39 O    1     1.3798     2.6075    2 B   -1-2 3
  39 O    1     2.3868     4.5105   37 O    0 0 0
  39 O    1     2.3912     4.5187   38 O   -1-2 3
  39 O    1     2.5416     4.8030   19 C    0-1 2
  39 O    1     2.5427     4.8050   36 C   -1-1 2

  40 O    1     1.3783     2.6045    6 B    0 0 0
  40 O    1     1.3785     2.6051    4 B    0 0 0
  40 O    1     2.3876     4.5119   42 O    0 0 0
  40 O    1     2.3913     4.5189   41 O    0 0 0
  40 O    1     2.5354     4.7912   25 C    0 0 0
  40 O    1     2.5360     4.7923   24 C    0 0 0

  41 O    1     1.3778     2.6037    4 B    0 0 0
  41 O    1     1.3778     2.6037    5 B    0 0 0
  41 O    1     2.3870     4.5107   42 O    0 0 0
  41 O    1     2.3913     4.5189   40 O    0 0 0
  41 O    1     2.5304     4.7818   24 C    0 0 0
  41 O    1     2.5353     4.7911   31 C    0 0 0

  42 O    1     1.3812     2.6101    6 B    0 0 0
  42 O    1     1.3813     2.6104    5 B    0 0 0
  42 O    1     2.3870     4.5107   41 O    0 0 0
  42 O    1     2.3876     4.5119   40 O    0 0 0
  42 O    1     2.5481     4.8152   31 C    0 0 0
  42 O    1     2.5522     4.8230   25 C    0 0 0


 SYMMETRY ALLOWED INTERNAL DEGREE(S) OF FREEDOM: 123
 TTTTTTTTTTTTTTTTTTTTTTTTTTTTTT SYMM        TELAPSE        0.43 TCPU        0.43
 TTTTTTTTTTTTTTTTTTTTTTTTTTTTTT INT_SCREEN  TELAPSE        0.47 TCPU        0.46

 DFT PARAMETERS

     ATOM       ELECTRONS   NET CHARGE   R(ANGSTROM)
   1   5  B       5.0000      0.0000     0.89000000
   7   1  H       1.0000      0.0000     1.11000000
  19   6  C       6.0000      0.0000     0.77000000
  37   8  O       8.0000      0.0000     0.74000000

 SIZE OF GRID=    1275938
 TTTTTTTTTTTTTTTTTTTTTTTTTTTTTT MAKE_GRID2  TELAPSE       10.23 TCPU       10.22
 BECKE WEIGHT FUNCTION
 RADSAFE =     2.00
 TOLERANCES - DENSITY:10**- 6; POTENTIAL:10**- 9; GRID WGT:10**-14

 RADIAL INTEGRATION  - INTERVALS (POINTS,UPPER LIMIT):            1( 75,  4.0*R)

 ANGULAR INTEGRATION - INTERVALS (ACCURACY LEVEL [N. POINTS] UPPER LIMIT):
  1(  4[  86]   0.2)  2(  8[ 194]   0.5)  3( 12[ 350]   0.9)  4( 16[ 974]   3.5)
  5( 12[ 350]9999.0)
 TTTTTTTTTTTTTTTTTTTTTTTTTTTTTT INT_CALC    TELAPSE       10.32 TCPU       10.30
 EEEEEEEEEE INT_CALC TERMINATION  DATE 02 12 2025 TIME 07:58:12.9

 *******************************************************************************
 COF-5_z33_inc_L070                                                              
 CRYSTAL - SCF - TYPE OF CALCULATION :  RESTRICTED CLOSED SHELL
 *******************************************************************************

 CAPPA:IS1  2;IS2  2;IS3  8; K PTS MONK NET  20; SYMMOPS:K SPACE   2;G SPACE   1

 TTTTTTTTTTTTTTTTTTTTTTTTTTTTTT SDIK        TELAPSE       10.92 TCPU       17.92

 AAAAAAAAAAAAAAAAAAAAAAAAAAAAAAAAAAAAAAAAAAAAAAAAAAAAAAAAAAAAAAAAAAAAAAAAAAAAAAA
         ATOMIC WAVEFUNCTION(S)


 NUCLEAR CHARGE  5.0  SYMMETRY SPECIES            S    P
 N. ELECTRONS    5.0  NUMBER OF PRIMITIVE GTOS    8    4
                      NUMBER OF CONTRACTED GTOS   4    2
                      NUMBER OF CLOSED SHELLS     2    0
                      OPEN SHELL OCCUPATION       0    1

  ZNUC  SCFIT    TOTAL HF ENERGY   KINETIC ENERGY   VIRIAL THEOREM ACCURACY
   5.0    11    -2.451164084E+01  2.462155050E+01 -1.995536038E+00  1.5E-06

 NUCLEAR CHARGE  1.0  SYMMETRY SPECIES            S
 N. ELECTRONS    1.0  NUMBER OF PRIMITIVE GTOS    4
                      NUMBER OF CONTRACTED GTOS   2
                      NUMBER OF CLOSED SHELLS     0
                      OPEN SHELL OCCUPATION       1

  ZNUC  SCFIT    TOTAL HF ENERGY   KINETIC ENERGY   VIRIAL THEOREM ACCURACY
   1.0     1    -4.977266687E-01  5.190767460E-01 -1.958869132E+00  0.0E+00

 NUCLEAR CHARGE  6.0  SYMMETRY SPECIES            S    P
 N. ELECTRONS    6.0  NUMBER OF PRIMITIVE GTOS    8    4
                      NUMBER OF CONTRACTED GTOS   4    2
                      NUMBER OF CLOSED SHELLS     2    0
                      OPEN SHELL OCCUPATION       0    2

  ZNUC  SCFIT    TOTAL HF ENERGY   KINETIC ENERGY   VIRIAL THEOREM ACCURACY
   6.0     9    -3.766704647E+01  3.775180683E+01 -1.997754800E+00  1.1E-06

 NUCLEAR CHARGE  8.0  SYMMETRY SPECIES            S    P
 N. ELECTRONS    8.0  NUMBER OF PRIMITIVE GTOS    8    4
                      NUMBER OF CONTRACTED GTOS   4    2
                      NUMBER OF CLOSED SHELLS     2    0
                      OPEN SHELL OCCUPATION       0    4

  ZNUC  SCFIT    TOTAL HF ENERGY   KINETIC ENERGY   VIRIAL THEOREM ACCURACY
   8.0    12    -7.477373220E+01  7.477365593E+01 -2.000001020E+00  3.8E-06

 AAAAAAAAAAAAAAAAAAAAAAAAAAAAAAAAAAAAAAAAAAAAAAAAAAAAAAAAAAAAAAAAAAAAAAAAAAAAAAA

 CHARGE NORMALIZATION FACTOR   1.00000000
 TOTAL ATOMIC CHARGES:
   5.0000000   5.0000000   5.0000000   5.0000000   5.0000000   5.0000000
   1.0000000   1.0000000   1.0000000   1.0000000   1.0000000   1.0000000
   1.0000000   1.0000000   1.0000000   1.0000000   1.0000000   1.0000000
   6.0000000   6.0000000   6.0000000   6.0000000   6.0000000   6.0000000
   6.0000000   6.0000000   6.0000000   6.0000000   6.0000000   6.0000000
   6.0000000   6.0000000   6.0000000   6.0000000   6.0000000   6.0000000
   8.0000000   8.0000000   8.0000000   8.0000000   8.0000000   8.0000000
 TTTTTTTTTTTTTTTTTTTTTTTTTTTTTT MOQGAD      TELAPSE       10.97 TCPU       19.24
 TTTTTTTTTTTTTTTTTTTTTTTTTTTTTT SHELLXN     TELAPSE       19.36 TCPU      286.28
 TTTTTTTTTTTTTTTTTTTTTTTTTTTTTT MONMO3      TELAPSE       19.50 TCPU      290.98
 NUMERICALLY INTEGRATED DENSITY    197.9999767320
 TTTTTTTTTTTTTTTTTTTTTTTTTTTTTT NUMDFT      TELAPSE       20.19 TCPU      312.94
 CYC   0 ETOT(AU) -1.295969424466E+03 DETOT -1.30E+03 tst  0.00E+00 PX  1.00E+00
 TTTTTTTTTTTTTTTTTTTTTTTTTTTTTT DIIS        TELAPSE       20.23 TCPU      314.18
 TTTTTTTTTTTTTTTTTTTTTTTTTTTTTT FDIK        TELAPSE       20.72 TCPU      329.74
 INSULATING STATE
 TOP OF VALENCE BANDS -    BAND     99; K    1; EIG -3.0342981E-01 AU
 BOTTOM OF VIRTUAL BANDS - BAND    100; K   17; EIG -1.6173310E-01 AU
 INDIRECT ENERGY BAND GAP:   3.8558 eV
 BOTTOM OF VIRTUAL BANDS - BAND    100; K    1; EIG -1.5903705E-01 AU
 TTTTTTTTTTTTTTTTTTTTTTTTTTTTTT PDIG        TELAPSE       21.06 TCPU      335.93
 CHARGE NORMALIZATION FACTOR   1.00000000
 TOTAL ATOMIC CHARGES:
   4.1348410   4.1559406   4.1569637   4.1588479   4.1563337   4.1331763
   0.7855649   0.7855294   0.7853988   0.7854336   0.7860150   0.7859275
   0.7868829   0.7864865   0.7852875   0.7858819   0.7856155   0.7858356
   6.0446715   6.2682548   6.2682057   6.2673224   6.2660228   6.0470153
   6.0447859   6.2669005   6.2650315   6.2677967   6.2675493   6.0480879
   6.0438827   6.2681180   6.2691675   6.2667703   6.2684049   6.0413836
   8.6987738   8.6980334   8.7008400   8.6976731   8.6993123   8.7000339
 TTTTTTTTTTTTTTTTTTTTTTTTTTTTTT MOQGAD      TELAPSE       21.11 TCPU      335.98
 TTTTTTTTTTTTTTTTTTTTTTTTTTTTTT SHELLXN     TELAPSE       29.81 TCPU      613.48
 TTTTTTTTTTTTTTTTTTTTTTTTTTTTTT MONMO3      TELAPSE       29.95 TCPU      618.17
 NUMERICALLY INTEGRATED DENSITY    197.9999807213
 TTTTTTTTTTTTTTTTTTTTTTTTTTTTTT NUMDFT      TELAPSE       30.65 TCPU      640.50
 CYC   1 ETOT(AU) -1.288819617351E+03 DETOT  7.15E+00 tst  0.00E+00 PX  1.00E+00
 TTTTTTTTTTTTTTTTTTTTTTTTTTTTTT DIIS        TELAPSE       30.70 TCPU      641.97
 DIIS TEST: 0.11107E+01 AT SCF   CYCLE   1 - MIX   30 %
 TTTTTTTTTTTTTTTTTTTTTTTTTTTTTT FDIK        TELAPSE       31.19 TCPU      657.73
 INSULATING STATE
 TOP OF VALENCE BANDS -    BAND     99; K    1; EIG -2.1354243E-01 AU
 BOTTOM OF VIRTUAL BANDS - BAND    100; K   17; EIG -8.7191535E-02 AU
 INDIRECT ENERGY BAND GAP:   3.4382 eV
 BOTTOM OF VIRTUAL BANDS - BAND    100; K    1; EIG -8.6671859E-02 AU
 TTTTTTTTTTTTTTTTTTTTTTTTTTTTTT PDIG        TELAPSE       31.53 TCPU      663.93
 CHARGE NORMALIZATION FACTOR   1.00000000
 TOTAL ATOMIC CHARGES:
   4.7027422   4.6960752   4.6959238   4.6968705   4.6959004   4.7028273
   0.9068574   0.9073206   0.9088438   0.9088265   0.9010893   0.9008270
   0.9013839   0.9017774   0.9065497   0.9068475   0.9087481   0.9087082
   5.8698316   6.1532465   6.1517620   6.1299890   6.1311747   5.8652531
   5.9091635   6.1226138   6.1233141   6.1282620   6.1244189   5.9024960
   5.8700753   6.1484490   6.1511492   6.1318085   6.1293410   5.8723494
   8.3423447   8.3413973   8.3298763   8.3405640   8.3267050   8.3462964
 TTTTTTTTTTTTTTTTTTTTTTTTTTTTTT MOQGAD      TELAPSE       31.58 TCPU      663.97
 TTTTTTTTTTTTTTTTTTTTTTTTTTTTTT SHELLXN     TELAPSE       40.28 TCPU      941.47
 TTTTTTTTTTTTTTTTTTTTTTTTTTTTTT MONMO3      TELAPSE       40.43 TCPU      946.16
 NUMERICALLY INTEGRATED DENSITY    197.9999783905
 TTTTTTTTTTTTTTTTTTTTTTTTTTTTTT NUMDFT      TELAPSE       41.14 TCPU      968.65
 CYC   2 ETOT(AU) -1.289011415519E+03 DETOT -1.92E-01 tst  3.18E-03 PX  1.60E-01
 TTTTTTTTTTTTTTTTTTTTTTTTTTTTTT DIIS        TELAPSE       41.18 TCPU      970.21
 DIIS TEST: 0.46685E+00 AT SCF   CYCLE   2 - DIIS ACTIVE - HISTORY:     2 CYCLES
 TTTTTTTTTTTTTTTTTTTTTTTTTTTTTT FDIK        TELAPSE       41.68 TCPU      985.99
 INSULATING STATE
 TOP OF VALENCE BANDS -    BAND     99; K    1; EIG -2.2681385E-01 AU
 BOTTOM OF VIRTUAL BANDS - BAND    100; K   17; EIG -8.2192713E-02 AU
 INDIRECT ENERGY BAND GAP:   3.9353 eV
 BOTTOM OF VIRTUAL BANDS - BAND    100; K    1; EIG -7.9779626E-02 AU
 TTTTTTTTTTTTTTTTTTTTTTTTTTTTTT PDIG        TELAPSE       42.02 TCPU      992.19
 CHARGE NORMALIZATION FACTOR   1.00000000
 TOTAL ATOMIC CHARGES:
   4.4836027   4.4914886   4.4915458   4.4937540   4.4918461   4.4823947
   0.8862132   0.8859862   0.8874754   0.8874466   0.8796557   0.8794035
   0.8807678   0.8802711   0.8849512   0.8860312   0.8875826   0.8872602
   5.8938664   6.1650268   6.1657238   6.1633723   6.1635452   5.8959327
   5.8919250   6.1665355   6.1677170   6.1695087   6.1699924   5.8950893
   5.8955094   6.1647457   6.1653855   6.1645224   6.1647123   5.8941893
   8.5139661   8.5132609   8.5206344   8.5125598   8.5187264   8.5158761
 TTTTTTTTTTTTTTTTTTTTTTTTTTTTTT MOQGAD      TELAPSE       42.07 TCPU      992.24
 TTTTTTTTTTTTTTTTTTTTTTTTTTTTTT SHELLXN     TELAPSE       50.78 TCPU     1269.85
 TTTTTTTTTTTTTTTTTTTTTTTTTTTTTT MONMO3      TELAPSE       50.93 TCPU     1274.54
 NUMERICALLY INTEGRATED DENSITY    197.9999773343
 TTTTTTTTTTTTTTTTTTTTTTTTTTTTTT NUMDFT      TELAPSE       51.62 TCPU     1296.87
 CYC   3 ETOT(AU) -1.289107148784E+03 DETOT -9.57E-02 tst  7.46E-04 PX  6.71E-02
 TTTTTTTTTTTTTTTTTTTTTTTTTTTTTT DIIS        TELAPSE       51.68 TCPU     1298.75
 DIIS TEST: 0.13963E-01 AT SCF   CYCLE   3 - DIIS ACTIVE - HISTORY:     3 CYCLES
 TTTTTTTTTTTTTTTTTTTTTTTTTTTTTT FDIK        TELAPSE       52.17 TCPU     1314.43
 INSULATING STATE
 TOP OF VALENCE BANDS -    BAND     99; K    1; EIG -2.3604214E-01 AU
 BOTTOM OF VIRTUAL BANDS - BAND    100; K   17; EIG -8.9965750E-02 AU
 INDIRECT ENERGY BAND GAP:   3.9749 eV
 BOTTOM OF VIRTUAL BANDS - BAND    100; K    1; EIG -8.8705797E-02 AU
 TTTTTTTTTTTTTTTTTTTTTTTTTTTTTT PDIG        TELAPSE       52.52 TCPU     1320.63
 CHARGE NORMALIZATION FACTOR   1.00000000
 TOTAL ATOMIC CHARGES:
   4.4904318   4.4963864   4.4963981   4.4979062   4.4959100   4.4894947
   0.8685285   0.8689198   0.8710185   0.8712132   0.8639221   0.8640330
   0.8649313   0.8650866   0.8680383   0.8686187   0.8713875   0.8711901
   5.9416225   6.1797844   6.1781993   6.1648389   6.1645006   5.9383109
   5.9647643   6.1634162   6.1617443   6.1662635   6.1629735   5.9601109
   5.9403948   6.1769867   6.1790393   6.1653291   6.1645425   5.9414064
   8.4872499   8.4863501   8.4776764   8.4858287   8.4750354   8.4902166
 TTTTTTTTTTTTTTTTTTTTTTTTTTTTTT MOQGAD      TELAPSE       52.56 TCPU     1320.67
 TTTTTTTTTTTTTTTTTTTTTTTTTTTTTT SHELLXN     TELAPSE       61.27 TCPU     1598.16
 TTTTTTTTTTTTTTTTTTTTTTTTTTTTTT MONMO3      TELAPSE       61.42 TCPU     1602.84
 NUMERICALLY INTEGRATED DENSITY    197.9999780058
 TTTTTTTTTTTTTTTTTTTTTTTTTTTTTT NUMDFT      TELAPSE       62.12 TCPU     1625.24
 CYC   4 ETOT(AU) -1.289110078324E+03 DETOT -2.93E-03 tst  4.33E-05 PX  1.56E-02
 TTTTTTTTTTTTTTTTTTTTTTTTTTTTTT DIIS        TELAPSE       62.17 TCPU     1627.15
 DIIS TEST: 0.39219E-02 AT SCF   CYCLE   4 - DIIS ACTIVE - HISTORY:     4 CYCLES
 TTTTTTTTTTTTTTTTTTTTTTTTTTTTTT FDIK        TELAPSE       62.67 TCPU     1642.93
 INSULATING STATE
 TOP OF VALENCE BANDS -    BAND     99; K    1; EIG -2.3459895E-01 AU
 BOTTOM OF VIRTUAL BANDS - BAND    100; K   17; EIG -8.9874896E-02 AU
 INDIRECT ENERGY BAND GAP:   3.9381 eV
 BOTTOM OF VIRTUAL BANDS - BAND    100; K    1; EIG -8.8420675E-02 AU
 TTTTTTTTTTTTTTTTTTTTTTTTTTTTTT PDIG        TELAPSE       63.01 TCPU     1649.13
 CHARGE NORMALIZATION FACTOR   1.00000000
 TOTAL ATOMIC CHARGES:
   4.4950660   4.4982011   4.4982417   4.5001202   4.4982897   4.4941128
   0.8719328   0.8718417   0.8736834   0.8736534   0.8660808   0.8657861
   0.8670513   0.8667214   0.8709764   0.8718991   0.8738581   0.8736487
   5.9225188   6.1760815   6.1763823   6.1670161   6.1673394   5.9234611
   5.9352468   6.1666359   6.1677055   6.1698134   6.1693773   5.9365619
   5.9240259   6.1749194   6.1758697   6.1680428   6.1676447   5.9231516
   8.4932239   8.4924057   8.4931185   8.4916965   8.4910979   8.4954983
 TTTTTTTTTTTTTTTTTTTTTTTTTTTTTT MOQGAD      TELAPSE       63.06 TCPU     1649.18
 TTTTTTTTTTTTTTTTTTTTTTTTTTTTTT SHELLXN     TELAPSE       71.76 TCPU     1926.66
 TTTTTTTTTTTTTTTTTTTTTTTTTTTTTT MONMO3      TELAPSE       71.91 TCPU     1931.35
 NUMERICALLY INTEGRATED DENSITY    197.9999778728
 TTTTTTTTTTTTTTTTTTTTTTTTTTTTTT NUMDFT      TELAPSE       72.61 TCPU     1953.69
 CYC   5 ETOT(AU) -1.289110972719E+03 DETOT -8.94E-04 tst  6.91E-06 PX  7.47E-03
 TTTTTTTTTTTTTTTTTTTTTTTTTTTTTT DIIS        TELAPSE       72.68 TCPU     1955.95
 DIIS TEST: 0.85578E-04 AT SCF   CYCLE   5 - DIIS ACTIVE - HISTORY:     5 CYCLES
 TTTTTTTTTTTTTTTTTTTTTTTTTTTTTT FDIK        TELAPSE       73.17 TCPU     1971.71
 INSULATING STATE
 TOP OF VALENCE BANDS -    BAND     99; K    1; EIG -2.3436842E-01 AU
 BOTTOM OF VIRTUAL BANDS - BAND    100; K   17; EIG -8.9471426E-02 AU
 INDIRECT ENERGY BAND GAP:   3.9428 eV
 BOTTOM OF VIRTUAL BANDS - BAND    100; K    1; EIG -8.7827673E-02 AU
 TTTTTTTTTTTTTTTTTTTTTTTTTTTTTT PDIG        TELAPSE       73.52 TCPU     1977.91
 CHARGE NORMALIZATION FACTOR   1.00000000
 TOTAL ATOMIC CHARGES:
   4.4932347   4.4986832   4.4987098   4.5003490   4.4984801   4.4922582
   0.8725865   0.8728742   0.8744398   0.8746052   0.8669905   0.8670865
   0.8679822   0.8680137   0.8719532   0.8726037   0.8747466   0.8744885
   5.9243847   6.1769450   6.1756751   6.1663338   6.1659151   5.9218633
   5.9375141   6.1671083   6.1656068   6.1699925   6.1674211   5.9342252
   5.9233082   6.1745941   6.1764390   6.1669183   6.1665130   5.9241557
   8.4943063   8.4935204   8.4898529   8.4929701   8.4872660   8.4970851
 TTTTTTTTTTTTTTTTTTTTTTTTTTTTTT MOQGAD      TELAPSE       73.56 TCPU     1977.95
 TTTTTTTTTTTTTTTTTTTTTTTTTTTTTT SHELLXN     TELAPSE       82.27 TCPU     2255.40
 TTTTTTTTTTTTTTTTTTTTTTTTTTTTTT MONMO3      TELAPSE       82.41 TCPU     2260.08
 NUMERICALLY INTEGRATED DENSITY    197.9999778585
 TTTTTTTTTTTTTTTTTTTTTTTTTTTTTT NUMDFT      TELAPSE       83.11 TCPU     2282.42
 CYC   6 ETOT(AU) -1.289110990118E+03 DETOT -1.74E-05 tst  1.88E-07 PX  1.81E-03
 TTTTTTTTTTTTTTTTTTTTTTTTTTTTTT DIIS        TELAPSE       83.18 TCPU     2284.71
 DIIS TEST: 0.28237E-04 AT SCF   CYCLE   6 - DIIS ACTIVE - HISTORY:     6 CYCLES
 TTTTTTTTTTTTTTTTTTTTTTTTTTTTTT FDIK        TELAPSE       83.68 TCPU     2300.50
 INSULATING STATE
 TOP OF VALENCE BANDS -    BAND     99; K    1; EIG -2.3440830E-01 AU
 BOTTOM OF VIRTUAL BANDS - BAND    100; K   17; EIG -8.9488145E-02 AU
 INDIRECT ENERGY BAND GAP:   3.9435 eV
 BOTTOM OF VIRTUAL BANDS - BAND    100; K    1; EIG -8.7921687E-02 AU
 TTTTTTTTTTTTTTTTTTTTTTTTTTTTTT PDIG        TELAPSE       84.02 TCPU     2306.71
 CHARGE NORMALIZATION FACTOR   1.00000000
 TOTAL ATOMIC CHARGES:
   4.4940171   4.4983910   4.4984362   4.5002513   4.4983831   4.4930292
   0.8727178   0.8727304   0.8745290   0.8745440   0.8670032   0.8668039
   0.8679711   0.8677574   0.8718471   0.8726986   0.8747356   0.8745201
   5.9232174   6.1759138   6.1757947   6.1661600   6.1663693   5.9232857
   5.9365219   6.1660070   6.1664797   6.1691608   6.1680621   5.9365431
   5.9241134   6.1744330   6.1756426   6.1671169   6.1666454   5.9236295
   8.4934862   8.4926372   8.4913507   8.4919755   8.4892102   8.4958775
 TTTTTTTTTTTTTTTTTTTTTTTTTTTTTT MOQGAD      TELAPSE       84.07 TCPU     2306.75
 TTTTTTTTTTTTTTTTTTTTTTTTTTTTTT SHELLXN     TELAPSE       92.77 TCPU     2584.09
 TTTTTTTTTTTTTTTTTTTTTTTTTTTTTT MONMO3      TELAPSE       92.92 TCPU     2588.78
 NUMERICALLY INTEGRATED DENSITY    197.9999778578
 TTTTTTTTTTTTTTTTTTTTTTTTTTTTTT NUMDFT      TELAPSE       93.61 TCPU     2611.07
 CYC   7 ETOT(AU) -1.289110996243E+03 DETOT -6.12E-06 tst  7.29E-08 PX  7.24E-04
 TTTTTTTTTTTTTTTTTTTTTTTTTTTTTT DIIS        TELAPSE       93.70 TCPU     2613.76
 DIIS TEST: 0.15908E-05 AT SCF   CYCLE   7 - DIIS ACTIVE - HISTORY:     7 CYCLES
 TTTTTTTTTTTTTTTTTTTTTTTTTTTTTT FDIK        TELAPSE       94.19 TCPU     2629.65
 INSULATING STATE
 TOP OF VALENCE BANDS -    BAND     99; K    1; EIG -2.3441034E-01 AU
 BOTTOM OF VIRTUAL BANDS - BAND    100; K   17; EIG -8.9508424E-02 AU
 INDIRECT ENERGY BAND GAP:   3.9430 eV
 BOTTOM OF VIRTUAL BANDS - BAND    100; K    1; EIG -8.7951760E-02 AU
 TTTTTTTTTTTTTTTTTTTTTTTTTTTTTT PDIG        TELAPSE       94.54 TCPU     2635.85
 CHARGE NORMALIZATION FACTOR   1.00000000
 TOTAL ATOMIC CHARGES:
   4.4941363   4.4984773   4.4985116   4.5002759   4.4984119   4.4931644
   0.8726402   0.8727346   0.8744694   0.8745410   0.8669199   0.8668226
   0.8679087   0.8677548   0.8718402   0.8726321   0.8747151   0.8744779
   5.9235694   6.1761710   6.1757030   6.1662601   6.1661954   5.9227754
   5.9368477   6.1663666   6.1661562   6.1693663   6.1679031   5.9358872
   5.9238023   6.1744284   6.1758107   6.1670444   6.1666525   5.9237755
   8.4935517   8.4927559   8.4913193   8.4921226   8.4890114   8.4960903
 TTTTTTTTTTTTTTTTTTTTTTTTTTTTTT MOQGAD      TELAPSE       94.58 TCPU     2635.90
 TTTTTTTTTTTTTTTTTTTTTTTTTTTTTT SHELLXN     TELAPSE      103.29 TCPU     2913.40
 TTTTTTTTTTTTTTTTTTTTTTTTTTTTTT MONMO3      TELAPSE      103.44 TCPU     2918.09
 NUMERICALLY INTEGRATED DENSITY    197.9999778558
 TTTTTTTTTTTTTTTTTTTTTTTTTTTTTT NUMDFT      TELAPSE      104.13 TCPU     2940.32
 CYC   8 ETOT(AU) -1.289110996428E+03 DETOT -1.85E-07 tst  6.78E-09 PX  1.52E-04
 TTTTTTTTTTTTTTTTTTTTTTTTTTTTTT DIIS        TELAPSE      104.22 TCPU     2943.03
 DIIS TEST: 0.13886E-06 AT SCF   CYCLE   8 - DIIS ACTIVE - HISTORY:     8 CYCLES
 TTTTTTTTTTTTTTTTTTTTTTTTTTTTTT FDIK        TELAPSE      104.71 TCPU     2958.82
 INSULATING STATE
 TOP OF VALENCE BANDS -    BAND     99; K    1; EIG -2.3441237E-01 AU
 BOTTOM OF VIRTUAL BANDS - BAND    100; K   17; EIG -8.9508406E-02 AU
 INDIRECT ENERGY BAND GAP:   3.9430 eV
 BOTTOM OF VIRTUAL BANDS - BAND    100; K    1; EIG -8.7945167E-02 AU
 TTTTTTTTTTTTTTTTTTTTTTTTTTTTTT PDIG        TELAPSE      105.06 TCPU     2965.03
 CHARGE NORMALIZATION FACTOR   1.00000000
 TOTAL ATOMIC CHARGES:
   4.4940763   4.4984839   4.4985206   4.5002979   4.4984316   4.4930990
   0.8726463   0.8727166   0.8744725   0.8745183   0.8669369   0.8667999
   0.8679113   0.8677470   0.8718254   0.8726348   0.8747002   0.8744744
   5.9234092   6.1761319   6.1757713   6.1662072   6.1662812   5.9229417
   5.9366412   6.1662692   6.1663227   6.1693656   6.1679647   5.9359832
   5.9238879   6.1744670   6.1758075   6.1670846   6.1666369   5.9236950
   8.4936318   8.4928005   8.4911887   8.4921624   8.4889509   8.4961046
 TTTTTTTTTTTTTTTTTTTTTTTTTTTTTT MOQGAD      TELAPSE      105.10 TCPU     2965.07
 TTTTTTTTTTTTTTTTTTTTTTTTTTTTTT SHELLXN     TELAPSE      113.80 TCPU     3242.49
 +++ ENERGIES IN A.U. +++
 ::: EXT EL-POLE                                  -1.5711786533363E+03
 ::: EXT EL-SPHEROPOLE                             1.7341551699663E+01
 ::: BIELET ZONE E-E                               2.1963269984618E+03
 ::: TOTAL E-E                                     6.4248989682519E+02
 ::: TOTAL E-N + N-E                              -3.1087336487972E+03
 ::: TOTAL N-N                                     3.0909440537246E+01
 ::: KINETIC ENERGY                                1.2799441539289E+03
 ::: PSEUDO TOTAL   ENERGY                        -1.1553901575058E+03
 ::: VIRIAL COEFFICIENT                            1.0511445167254E+00
 TTTTTTTTTTTTTTTTTTTTTTTTTTTTTT MONMO3      TELAPSE      113.95 TCPU     3247.18
 NUMERICALLY INTEGRATED DENSITY    197.9999778554
 EXCHANGE ENERGY: -0.126021824966E+03  CORRELATION ENERGY: -0.769901399469E+01
 TTTTTTTTTTTTTTTTTTTTTTTTTTTTTT NUMDFT      TELAPSE      114.65 TCPU     3269.47
 CYC   9 ETOT(AU) -1.289110996466E+03 DETOT -3.81E-08 tst  7.17E-10 PX  1.52E-04

 == SCF ENDED - CONVERGENCE ON ENERGY      E(AU) -1.2891109964662E+03 CYCLES   9


 ENERGY EXPRESSION=HARTREE+FOCK EXCH*0.00000+(HSESOL     EXCH)*1.00000+PBESOL     CORR


 TOTAL ENERGY(DFT)(AU)(  9) -1.2891109964662E+03 DE-3.8E-08 tester 7.2E-10
 TTTTTTTTTTTTTTTTTTTTTTTTTTTTTT EDFT        TELAPSE      114.65 TCPU     3269.48
 
 INFORMATION **** DFTD3 ENERGY **** CALCULATE DFTD3 ENERGY

           DFT-D V3(BJ)
 DF                                         hsesol3c  
 parameters
 s6       :    1.0000
 s8       :    0.0000
 a1       :    0.5196
 a2       :    4.9385
 k1 k3    :   16.0000   -4.0000
 Cutoff   :   50.2022
 CN-Cutoff:   21.1671
 ABC-Cutoff:   21.1671
 
 Edisp /kcal,au:   -27.5312 -0.04387381

 E6    /kcal :   -29.2706
 E8    /kcal :     0.0000
 E6(ABC) "   :   1.739316
 
 INFORMATION **** DFTD3 ENERGY **** NORMAL TERMINATION OF DFTD3 MODULE

 GCP ENERGY CALCULATION
  level        hsesol3c            basis:hsesol3c
  Nbf            474
  Atoms           42

  Parameters: 
  sigma     1.0000
  eta       1.4281
  alpha     0.2936
  beta      1.9467

  dmp_scal      4.0000
  dmp_exp       6.0000
 cutoffs: 
   distance [bohr] 60.0
   noise    [a.u.] 2.2E-16
 SR-damping   T
 ** gCP correction **
  Egcp:        0.0838131264 / (a.u.) ||      52.5935 / (kcal/mol)
 INFORMATION **** GCP **** NORMAL TERMINATION OF GCP MODULE

 *******************************************************************************

 DFT-D3-GCP DISPERSION AND COUNTERPOISE CORRECTION

 D3 DISPERSION ENERGY (AU)      -4.3873810893066E-02
 GCP ENERGY (AU)                 8.3813126427593E-02
 TOTAL ENERGY + DISP + GCP (AU) -1.2890710571506E+03

 *******************************************************************************

 EIGENVECTORS IN FORTRAN UNIT 10
 TTTTTTTTTTTTTTTTTTTTTTTTTTTTTT END         TELAPSE      116.67 TCPU     3277.48
 EEEEEEEEEE TERMINATION  DATE 02 12 2025 TIME 07:59:59.2
