 Default number of threads is:           32

         
 *******************************************************************************
 *                                                                             *
 *                               CRYSTAL23                                     *
 *                      public : 1.0.1 - October 2022                          *
 *                       HTTP://WWW.CRYSTAL.UNITO.IT                           *
 *                                                                             *
 *                              MAIN AUTHORS                                   *
 *                                                                             *
 *  R. DOVESI(1,11), V.R. SAUNDERS(2), C. ROETTI(1,11), R. ORLANDO(1,11),      *
 *  C.M. ZICOVICH-WILSON(1,3), F. PASCALE(4), B. CIVALLERI(1,11),              *
 *  K. DOLL(5), N.M. HARRISON(6), I.J. BUSH(7), Ph. D'ARCO(8),                 *
 *  M. LLUNELL(9), M. CAUSA'(10), Y. NOEL(8), L. MASCHIO(1,11), A. ERBA(1,11)  *
 *  M. RE'RAT(14), S. CASASSA(1,11), B.G. SEARLE(2), J.K. DESMARAIS(1)         *
 *                                                                             *
 *        CONTRIBUTIONS TO THE CODE HAVE ALSO BEEN GIVEN BY                    *
 *                                                                             *
 *  M. FERRABONE(1,11), M. DE LA PIERRE(1,11), M. FERRERO(1,11),               *
 *  J. BAIMA(1,11), E. ALBANESE(1,11), M.F. PEINTINGER(12), R. BAST(13),       *
 *  B. KIRTMAN(15), V. LACIVITA(1,11), R. DEMICHELIS(1,16)                     *
 *  G. BRANDEBURG(17), S. SALUSTRO(1,11), G. SANSONE(1,11)                     *
 *  M.T. RUGGIERO(18), L.E. DAGA(1), L. DONA'(1), A. COSSARD(1)                *
 *                                                                             *
 * (1) THEORETICAL CHEMISTRY GROUP - UNIVERSITA' DI TORINO - TORINO (ITALY)    *
 * (2) SCIENTIFIC COMPUTING DEPARTMENT - STFC DARESBURY (UK)                   *
 * (3) UNIVERSIDAD AUTONOMA DEL ESTADO DE MORELOS - CUERNAVACA (MEXICO)        *
 * (4) UNIVERSITE' DE LORRAINE - NANCY (FRANCE)                                *
 * (5) UNIVERSITAET STUTTGART- STUTTGART (GERMANY)                             *
 * (6) IMPERIAL COLLEGE - LONDON (UK)                                          *
 * (7) SCIENTIFIC COMPUTING DEPARTMENT - STFC RAL (UK)                         *
 * (8) UPMC - SORBONNE UNIVERSITES - PARIS (FRANCE)                            *
 * (9) UNIVERSIDAD DE BARCELONA - BARCELONA (SPAIN)                            *
 *(10) UNIVERSITA' DI NAPOLI "FEDERICO II" - NAPOLI (ITALY)                    *
 *(11) NIS - NANOSTRUCTURED INTERFACES AND SURFACES - TORINO (ITALY)           *
 *(12) MPI FUER CHEMISCHE ENERGIEKONVERSION - MUELHEIM AN DER RUHR (GERMANY)   *
 *(13) UNIVERSITY OF TROMSO - TROMSO (NORWAY)                                  *
 *(14) UNIVERSITE' DE PAU ET DES PAYS DE L'ADOUR - PAU (FRANCE)                *
 *(15) UNIVERSITY OF CALIFORNIA SANTA BARBARA - SANTA BARBARA (USA)            *
 *(16) CURTIN UNIVERSITY - PERTH (AUSTRALIA)                                   *
 *(17) UNIVERSITY COLLEGE LONDON - LONDON (UK)                                 *
 *(18) UNIVERSITY OF VERMONT - BURLINGTON (USA)                                *
 *                                                                             *
 *******************************************************************************
 EEEEEEEEEE STARTING  DATE 19 02 2026 TIME 19:06:39.3
 cof-1_z40_L030_incl                                                             

 CRYSTAL CALCULATION
 (INPUT ACCORDING TO THE INTERNATIONAL TABLES FOR X-RAY CRYSTALLOGRAPHY)
 CRYSTAL FAMILY                       :  TRICLINIC   
 CRYSTAL CLASS  (GROTH - 1921)        :  TRICLINIC PEDIAL                     

 SPACE GROUP (NONCENTROSYMMETRIC)     :  P 1             

 LATTICE PARAMETERS  (ANGSTROMS AND DEGREES) - CONVENTIONAL CELL
        A           B           C        ALPHA        BETA       GAMMA
    15.02361    15.02392     5.00000    58.69244    89.99995   119.99596


 NUMBER OF IRREDUCIBLE ATOMS IN THE CONVENTIONAL CELL:   42

 INPUT COORDINATES

 ATOM AT. N.              COORDINATES
   1   5     5.559082300000E-01  1.117618500000E-01  5.011919500000E-01
   2   5     7.149638900000E-01  2.708215100000E-01  5.011919700000E-01
   3   5     5.561933700000E-01  2.713831900000E-01  4.986811800000E-01
   4   5     1.694829400000E-01  4.980768500000E-01  5.011919600000E-01
   5   5     3.285909100000E-01  4.980560800000E-01  5.011919600000E-01
   6   5     3.288606000000E-01  6.577741700000E-01  4.986811800000E-01
   7   1     8.458713300000E-01  1.945738400000E-01  4.959865900000E-01
   8   1     3.955399000000E-02  5.768807600000E-01  4.951906100000E-01
   9   1     8.459050000000E-01  4.799279900000E-01  4.950681100000E-01
  10   1     3.966624000000E-02  2.915334600000E-01  4.950986600000E-01
  11   1     6.329353700000E-01 -1.920176000000E-02  5.040089900000E-01
  12   1     2.507409300000E-01  7.870479000000E-01  5.048050300000E-01
  13   1     3.476670700000E-01 -1.936770000000E-02  5.049276100000E-01
  14   1     5.361128300000E-01  7.869367400000E-01  5.048968500000E-01
  15   1     6.339004400000E-01  4.796979900000E-01  4.959866400000E-01
  16   1     2.518813000000E-01  2.914366600000E-01  4.951905600000E-01
  17   1     3.487741600000E-01  1.946788400000E-01  4.950680100000E-01
  18   1     5.372209300000E-01  5.768064300000E-01  4.950987600000E-01
  19   6     8.344180000000E-01  3.309873900000E-01  4.985893100000E-01
  20   6     8.893027000000E-01  2.784011800000E-01  4.961090900000E-01
  21   6    -3.773590000000E-03  4.928502500000E-01  4.958948300000E-01
  22   6     8.892162800000E-01  4.392088900000E-01  4.965378400000E-01
  23   6    -3.618890000000E-03  3.321479100000E-01  4.948843200000E-01
  24   6     5.079653000000E-02  4.395452700000E-01  4.965684300000E-01
  25   6     4.962424000000E-01 -7.437330000000E-03  5.014063100000E-01
  26   6     5.490949400000E-01 -6.262169000000E-02  5.038864800000E-01
  27   6     3.346910500000E-01  8.304361100000E-01  5.041008200000E-01
  28   6     3.882540800000E-01 -6.247594000000E-02  5.034578300000E-01
  29   6     4.954927600000E-01  8.301635500000E-01  5.051112300000E-01
  30   6     3.878979400000E-01  7.759203300000E-01  5.034271800000E-01
  31   6     4.965725600000E-01  3.309182500000E-01  4.985893000000E-01
  32   6     5.500238000000E-01  4.392413200000E-01  4.961091400000E-01
  33   6     3.356616600000E-01  3.318369900000E-01  4.958947800000E-01
  34   6     3.890514300000E-01  2.782067000000E-01  4.965377700000E-01
  35   6     4.966977200000E-01  4.929959200000E-01  4.948843900000E-01
  36   6     3.887206200000E-01  4.394678700000E-01  4.965684300000E-01
  37   8     5.031761400000E-01  1.652378400000E-01  4.993547900000E-01
  38   8     6.615105500000E-01  1.640242100000E-01  5.046519500000E-01
  39   8     6.624294700000E-01  3.248119200000E-01  4.966603100000E-01
  40   8     2.227639600000E-01  6.045183100000E-01  4.993548200000E-01
  41   8     2.221728300000E-01  4.443415000000E-01  5.046519400000E-01
  42   8     3.820138900000E-01  6.051238800000E-01  4.966602900000E-01

 *******************************************************************************

 << INFORMATION >>: FROM NOW ON, ALL COORDINATES REFER TO THE PRIMITIVE CELL

 *******************************************************************************

 LATTICE PARAMETERS  (ANGSTROMS AND DEGREES) - PRIMITIVE CELL
       A          B          C        ALPHA      BETA     GAMMA        VOLUME
   15.02361   15.02392    5.00000    58.69244  89.99995 119.99596    781.929675

 COORDINATES OF THE EQUIVALENT ATOMS (FRACTIONAL UNITS)

 N. ATOM EQUIV AT. N.          X                  Y                  Z

   1   1   1    5 B    -4.44091770000E-01  1.11761850000E-01 -4.98808050000E-01

   2   2   1    5 B    -2.85036110000E-01  2.70821510000E-01 -4.98808030000E-01

   3   3   1    5 B    -4.43806630000E-01  2.71383190000E-01  4.98681180000E-01

   4   4   1    5 B     1.69482940000E-01  4.98076850000E-01 -4.98808040000E-01

   5   5   1    5 B     3.28590910000E-01  4.98056080000E-01 -4.98808040000E-01

   6   6   1    5 B     3.28860600000E-01 -3.42225830000E-01  4.98681180000E-01

   7   7   1    1 H    -1.54128670000E-01  1.94573840000E-01  4.95986590000E-01

   8   8   1    1 H     3.95539900000E-02 -4.23119240000E-01  4.95190610000E-01

   9   9   1    1 H    -1.54095000000E-01  4.79927990000E-01  4.95068110000E-01

  10  10   1    1 H     3.96662400000E-02  2.91533460000E-01  4.95098660000E-01

  11  11   1    1 H    -3.67064630000E-01 -1.92017600000E-02 -4.95991010000E-01

  12  12   1    1 H     2.50740930000E-01 -2.12952100000E-01 -4.95194970000E-01

  13  13   1    1 H     3.47667070000E-01 -1.93677000000E-02 -4.95072390000E-01

  14  14   1    1 H    -4.63887170000E-01 -2.13063260000E-01 -4.95103150000E-01

  15  15   1    1 H    -3.66099560000E-01  4.79697990000E-01  4.95986640000E-01

  16  16   1    1 H     2.51881300000E-01  2.91436660000E-01  4.95190560000E-01

  17  17   1    1 H     3.48774160000E-01  1.94678840000E-01  4.95068010000E-01

  18  18   1    1 H    -4.62779070000E-01 -4.23193570000E-01  4.95098760000E-01

  19  19   1    6 C    -1.65582000000E-01  3.30987390000E-01  4.98589310000E-01

  20  20   1    6 C    -1.10697300000E-01  2.78401180000E-01  4.96109090000E-01

  21  21   1    6 C    -3.77359000000E-03  4.92850250000E-01  4.95894830000E-01

  22  22   1    6 C    -1.10783720000E-01  4.39208890000E-01  4.96537840000E-01

  23  23   1    6 C    -3.61889000000E-03  3.32147910000E-01  4.94884320000E-01

  24  24   1    6 C     5.07965300000E-02  4.39545270000E-01  4.96568430000E-01

  25  25   1    6 C     4.96242400000E-01 -7.43733000000E-03 -4.98593690000E-01

  26  26   1    6 C    -4.50905060000E-01 -6.26216900000E-02 -4.96113520000E-01

  27  27   1    6 C     3.34691050000E-01 -1.69563890000E-01 -4.95899180000E-01

  28  28   1    6 C     3.88254080000E-01 -6.24759400000E-02 -4.96542170000E-01

  29  29   1    6 C     4.95492760000E-01 -1.69836450000E-01 -4.94888770000E-01

  30  30   1    6 C     3.87897940000E-01 -2.24079670000E-01 -4.96572820000E-01

  31  31   1    6 C     4.96572560000E-01  3.30918250000E-01  4.98589300000E-01

  32  32   1    6 C    -4.49976200000E-01  4.39241320000E-01  4.96109140000E-01

  33  33   1    6 C     3.35661660000E-01  3.31836990000E-01  4.95894780000E-01

  34  34   1    6 C     3.89051430000E-01  2.78206700000E-01  4.96537770000E-01

  35  35   1    6 C     4.96697720000E-01  4.92995920000E-01  4.94884390000E-01

  36  36   1    6 C     3.88720620000E-01  4.39467870000E-01  4.96568430000E-01

  37  37   1    8 O    -4.96823860000E-01  1.65237840000E-01  4.99354790000E-01

  38  38   1    8 O    -3.38489450000E-01  1.64024210000E-01 -4.95348050000E-01

  39  39   1    8 O    -3.37570530000E-01  3.24811920000E-01  4.96660310000E-01

  40  40   1    8 O     2.22763960000E-01 -3.95481690000E-01  4.99354820000E-01

  41  41   1    8 O     2.22172830000E-01  4.44341500000E-01 -4.95348060000E-01

  42  42   1    8 O     3.82013890000E-01 -3.94876120000E-01  4.96660290000E-01

 NUMBER OF SYMMETRY OPERATORS         :    1
 *******************************************************************************
 * GEOMETRY EDITING - INPUT COORDINATES ARE GIVEN IN ANGSTROM         
 *******************************************************************************

 GCALCO - MAX INDICES DIRECT LATTICE VECTOR     9    11    30
 NO.OF VECTORS CREATED 6999 STARS 3500 RMAX   206.63235 BOHR

 GEOMETRY FOR WAVE FUNCTION - DIMENSIONALITY OF THE SYSTEM    3
 (NON PERIODIC DIRECTION: LATTICE PARAMETER FORMALLY SET TO 500)
 *******************************************************************************
 LATTICE PARAMETERS (ANGSTROMS AND DEGREES) - BOHR = 0.5291772083 ANGSTROM
 PRIMITIVE CELL - CENTRING CODE 1/0 VOLUME=   781.929675 - DENSITY  0.828 g/cm^3
         A              B              C           ALPHA      BETA       GAMMA 
    15.02361100    15.02391600     5.00000000    58.692439  89.999955 119.995964
 *******************************************************************************
 ATOMS IN THE ASYMMETRIC UNIT   42 - ATOMS IN THE UNIT CELL:   42
     ATOM                 X/A                 Y/B                 Z/C    
 *******************************************************************************
      1 T   5 B    -4.440917700000E-01  1.117618500000E-01 -4.988080500000E-01
      2 T   5 B    -2.850361100000E-01  2.708215100000E-01 -4.988080300000E-01
      3 T   5 B    -4.438066300000E-01  2.713831900000E-01  4.986811800000E-01
      4 T   5 B     1.694829400000E-01  4.980768500000E-01 -4.988080400000E-01
      5 T   5 B     3.285909100000E-01  4.980560800000E-01 -4.988080400000E-01
      6 T   5 B     3.288606000000E-01 -3.422258300000E-01  4.986811800000E-01
      7 T   1 H    -1.541286700000E-01  1.945738400000E-01  4.959865900000E-01
      8 T   1 H     3.955399000000E-02 -4.231192400000E-01  4.951906100000E-01
      9 T   1 H    -1.540950000000E-01  4.799279900000E-01  4.950681100000E-01
     10 T   1 H     3.966624000000E-02  2.915334600000E-01  4.950986600000E-01
     11 T   1 H    -3.670646300000E-01 -1.920176000000E-02 -4.959910100000E-01
     12 T   1 H     2.507409300000E-01 -2.129521000000E-01 -4.951949700000E-01
     13 T   1 H     3.476670700000E-01 -1.936770000000E-02 -4.950723900000E-01
     14 T   1 H    -4.638871700000E-01 -2.130632600000E-01 -4.951031500000E-01
     15 T   1 H    -3.660995600000E-01  4.796979900000E-01  4.959866400000E-01
     16 T   1 H     2.518813000000E-01  2.914366600000E-01  4.951905600000E-01
     17 T   1 H     3.487741600000E-01  1.946788400000E-01  4.950680100000E-01
     18 T   1 H    -4.627790700000E-01 -4.231935700000E-01  4.950987600000E-01
     19 T   6 C    -1.655820000000E-01  3.309873900000E-01  4.985893100000E-01
     20 T   6 C    -1.106973000000E-01  2.784011800000E-01  4.961090900000E-01
     21 T   6 C    -3.773590000000E-03  4.928502500000E-01  4.958948300000E-01
     22 T   6 C    -1.107837200000E-01  4.392088900000E-01  4.965378400000E-01
     23 T   6 C    -3.618890000000E-03  3.321479100000E-01  4.948843200000E-01
     24 T   6 C     5.079653000000E-02  4.395452700000E-01  4.965684300000E-01
     25 T   6 C     4.962424000000E-01 -7.437330000000E-03 -4.985936900000E-01
     26 T   6 C    -4.509050600000E-01 -6.262169000000E-02 -4.961135200000E-01
     27 T   6 C     3.346910500000E-01 -1.695638900000E-01 -4.958991800000E-01
     28 T   6 C     3.882540800000E-01 -6.247594000000E-02 -4.965421700000E-01
     29 T   6 C     4.954927600000E-01 -1.698364500000E-01 -4.948887700000E-01
     30 T   6 C     3.878979400000E-01 -2.240796700000E-01 -4.965728200000E-01
     31 T   6 C     4.965725600000E-01  3.309182500000E-01  4.985893000000E-01
     32 T   6 C    -4.499762000000E-01  4.392413200000E-01  4.961091400000E-01
     33 T   6 C     3.356616600000E-01  3.318369900000E-01  4.958947800000E-01
     34 T   6 C     3.890514300000E-01  2.782067000000E-01  4.965377700000E-01
     35 T   6 C     4.966977200000E-01  4.929959200000E-01  4.948843900000E-01
     36 T   6 C     3.887206200000E-01  4.394678700000E-01  4.965684300000E-01
     37 T   8 O    -4.968238600000E-01  1.652378400000E-01  4.993547900000E-01
     38 T   8 O    -3.384894500000E-01  1.640242100000E-01 -4.953480500000E-01
     39 T   8 O    -3.375705300000E-01  3.248119200000E-01  4.966603100000E-01
     40 T   8 O     2.227639600000E-01 -3.954816900000E-01  4.993548200000E-01
     41 T   8 O     2.221728300000E-01  4.443415000000E-01 -4.953480600000E-01
     42 T   8 O     3.820138900000E-01 -3.948761200000E-01  4.966602900000E-01

 T = ATOM BELONGING TO THE ASYMMETRIC UNIT

 ****    1 SYMMOPS - TRANSLATORS IN FRACTIONAL UNITS
 **** MATRICES AND TRANSLATORS IN THE CRYSTALLOGRAPHIC REFERENCE FRAME
   V INV                    ROTATION MATRICES                   TRANSLATORS
   1   1  1.00 -0.00  0.00  0.00  1.00  0.00  0.00  0.00  1.00  0.00  0.00  0.00

 DIRECT LATTICE VECTORS CARTESIAN COMPONENTS (ANGSTROM)
          X                    Y                    Z
   0.130113578931E+02  -0.751088897922E+01   0.000000000000E+00
   0.000000000000E+00   0.150239160000E+02   0.000000000000E+00
   0.149980850696E+01   0.259815932728E+01   0.400001781903E+01


 CARTESIAN COORDINATES - PRIMITIVE CELL
 *******************************************************************************
 *      ATOM          X(ANGSTROM)         Y(ANGSTROM)         Z(ANGSTROM)
 *******************************************************************************
    1     5 B    -6.526353513560E+00  3.718641839830E+00 -1.995241088275E+00
    2     5 B    -4.456823366387E+00  4.913691458846E+00 -1.995241008275E+00
    3     5 B     6.484948763882E+00 -1.402774570796E+00 -2.005284213014E+00
    4     5 B     1.457086647377E+00  4.914114448087E+00 -1.995241048275E+00
    5     5 B     3.527297388685E+00  3.718760102973E+00 -1.995241048275E+00
    6     5 B     3.527040732592E+00  6.109802252689E+00 -2.005284213014E+00
    7     1 H    -2.761346886889E+00  2.771397214578E+00 -2.016062621029E+00
    8     1 H     1.257342209432E+00 -5.367409445168E+00  1.980771263816E+00
    9     1 H    -1.262477831629E+00 -5.369861927305E+00  1.980281261633E+00
   10     1 H    -2.411436799941E-01  2.770231363491E+00 -2.019614356852E+00
   11     1 H    -4.020092300028E+00  3.777991713234E+00  2.016044940951E+00
   12     1 H     4.019590857017E+00 -3.771097853049E+00  2.019229115135E+00
   13     1 H     5.280915400276E+00 -1.590385082892E+00  2.019719437320E+00
   14     1 H    -5.278553400101E+00  1.594962971967E+00  2.019596396772E+00
   15     1 H    -4.019567417642E+00 -3.778588227451E+00  1.983955398000E+00
   16     1 H     2.520200248364E+00  1.175092063887E+00 -2.019246755214E+00
   17     1 H     3.780724125573E+00 -1.006659214901E+00 -2.019736957398E+00
   18     1 H    -5.278830773154E+00 -1.595796969528E+00  1.980403862179E+00
   19     6 C    -2.906466680989E+00  4.913649902356E+00 -2.005651694652E+00
   20     6 C    -2.196062061491E+00  3.704922205474E+00 -2.015572618847E+00
   21     6 C    -8.051607523987E-01  6.123138222759E+00 -2.016429662665E+00
   22     6 C    -6.967349531861E-01 -6.303109888221E+00  1.986160207822E+00
   23     6 C    -8.046634668270E-01  3.704972365088E+00 -2.020471720671E+00
   24     6 C    -9.411911980133E-02  4.914168688077E+00 -2.013735250662E+00
   25     6 C     7.208800917289E+00 -2.536225913283E+00  2.005634174573E+00
   26     6 C    -5.111153882206E+00  3.755052193389E+00  2.015554898768E+00
   27     6 C     5.110839733353E+00 -3.751606711510E+00  2.016412262587E+00
   28     6 C     5.806803124648E+00 -2.546702908284E+00  2.013840291130E+00
   29     6 C    -5.806754139565E+00  2.550048763849E+00  2.020453920592E+00
   30     6 C     5.802123290517E+00 -4.972028478673E+00  2.013717690583E+00
   31     6 C     5.709063264692E+00 -6.075826441930E-02 -2.005651734652E+00
   32     6 C    -5.110732673006E+00 -3.756099433663E+00  1.984445400183E+00
   33     6 C     3.611352691880E+00  1.154627921342E+00 -2.016429862665E+00
   34     6 C     4.306990459050E+00 -5.044309530389E-02 -2.013857891208E+00
   35     6 C     5.705135110710E+00  2.363717025799E+00 -2.020471440670E+00
   36     6 C     4.302732155874E+00  2.374895513586E+00 -2.013735250662E+00
   37     8 O     5.796132895861E+00 -2.597536718367E+00 -2.002589761011E+00
   38     8 O    -5.147134596268E+00  3.719649476237E+00 -1.981401026621E+00
   39     8 O    -2.147547115016E+00 -3.719952280446E+00  5.986667909033E+00
   40     8 O     2.147589709304E+00  6.108320993699E+00 -2.002589641011E+00
   41     8 O     2.147842970951E+00  3.720040728649E+00 -1.981401066621E+00
   42     8 O     4.215606263961E+00  4.914309664081E+00 -2.013367809025E+00

 *******************************************************************************
 STARTING BASIS SET HANDLING 
 *******************************************************************************

 Loading internal basis set: SOLDEF2MSVP         

 Please cite in your publication:
 L. Dona', J. G. Brandenburg and B. Civalleri, J. Chem. Phys., 151, 121101 (2019
 )                                                                              
                                                                                
                    

 *******************************************************************************
 LOCAL ATOMIC FUNCTIONS BASIS SET
 *******************************************************************************
   ATOM   X(AU)   Y(AU)   Z(AU)  N. TYPE  EXPONENT  S COEF   P COEF   D/F/G COEF
 *******************************************************************************
   1 B  -12.333   7.027  -3.770
                                  1 S  
                                         2.410E+03 1.755E-03 0.000E+00 0.000E+00
                                         3.619E+02 1.344E-02 0.000E+00 0.000E+00
                                         8.231E+01 6.637E-02 0.000E+00 0.000E+00
                                         2.311E+01 2.303E-01 0.000E+00 0.000E+00
                                         7.252E+00 5.150E-01 0.000E+00 0.000E+00
                                  2 S  
                                         2.367E+00 1.000E+00 0.000E+00 0.000E+00
                                  3 S  
                                         5.533E-01 1.000E+00 0.000E+00 0.000E+00
                                  4 S  
                                         1.716E-01 1.000E+00 0.000E+00 0.000E+00
                           5-     7 P  
                                         6.002E+00 0.000E+00-3.555E-02 0.000E+00
                                         1.240E+00 0.000E+00-1.983E-01 0.000E+00
                                         3.367E-01 0.000E+00-5.048E-01 0.000E+00
                           8-    10 P  
                                         1.256E-01 0.000E+00 1.000E+00 0.000E+00
                          11-    15 D  
                                         8.880E-01 0.000E+00 0.000E+00 1.000E+00
   2 B   -8.422   9.286  -3.770
   3 B   12.255  -2.651  -3.789
   4 B    2.753   9.286  -3.770
   5 B    6.666   7.027  -3.770
   6 B    6.665  11.546  -3.789
   7 H   -5.218   5.237  -3.810
                                 91 S  
                                         1.874E+01 1.968E-02 0.000E+00 0.000E+00
                                         2.826E+00 1.380E-01 0.000E+00 0.000E+00
                                         6.401E-01 4.783E-01 0.000E+00 0.000E+00
                                 92 S  
                                         1.756E-01 1.000E+00 0.000E+00 0.000E+00
   8 H    2.376 -10.143   3.743
   9 H   -2.386 -10.148   3.742
  10 H   -0.456   5.235  -3.817
  11 H   -7.597   7.139   3.810
  12 H    7.596  -7.126   3.816
  13 H    9.979  -3.005   3.817
  14 H   -9.975   3.014   3.816
  15 H   -7.596  -7.140   3.749
  16 H    4.762   2.221  -3.816
  17 H    7.145  -1.902  -3.817
  18 H   -9.976  -3.016   3.742
  19 C   -5.492   9.285  -3.790
                                115 S  
                                         3.624E+03 1.634E-03 0.000E+00 0.000E+00
                                         5.440E+02 1.252E-02 0.000E+00 0.000E+00
                                         1.237E+02 6.211E-02 0.000E+00 0.000E+00
                                         3.476E+01 2.182E-01 0.000E+00 0.000E+00
                                         1.093E+01 4.980E-01 0.000E+00 0.000E+00
                                116 S  
                                         3.574E+00 1.000E+00 0.000E+00 0.000E+00
                                117 S  
                                         7.742E-01 1.000E+00 0.000E+00 0.000E+00
                                118 S  
                                         2.330E-01 1.000E+00 0.000E+00 0.000E+00
                         119-   121 P  
                                         9.443E+00 0.000E+00 3.790E-02 0.000E+00
                                         2.002E+00 0.000E+00 2.082E-01 0.000E+00
                                         5.463E-01 0.000E+00 5.047E-01 0.000E+00
                         122-   124 P  
                                         1.820E-01 0.000E+00 1.000E+00 0.000E+00
                         125-   129 D  
                                         8.880E-01 0.000E+00 0.000E+00 1.000E+00
  20 C   -4.150   7.001  -3.809
  21 C   -1.522  11.571  -3.810
  22 C   -1.317 -11.911   3.753
  23 C   -1.521   7.001  -3.818
  24 C   -0.178   9.286  -3.805
  25 C   13.623  -4.793   3.790
  26 C   -9.659   7.096   3.809
  27 C    9.658  -7.090   3.810
  28 C   10.973  -4.813   3.806
  29 C  -10.973   4.819   3.818
  30 C   10.964  -9.396   3.805
  31 C   10.789  -0.115  -3.790
  32 C   -9.658  -7.098   3.750
  33 C    6.824   2.182  -3.811
  34 C    8.139  -0.095  -3.806
  35 C   10.781   4.467  -3.818
  36 C    8.131   4.488  -3.805
  37 O   10.953  -4.909  -3.784
                                385 S  
                                         6.773E+03 1.727E-03 0.000E+00 0.000E+00
                                         1.017E+03 1.325E-02 0.000E+00 0.000E+00
                                         2.313E+02 6.603E-02 0.000E+00 0.000E+00
                                         6.501E+01 2.353E-01 0.000E+00 0.000E+00
                                         2.050E+01 5.498E-01 0.000E+00 0.000E+00
                                386 S  
                                         6.716E+00 1.000E+00 0.000E+00 0.000E+00
                                387 S  
                                         1.147E+00 1.000E+00 0.000E+00 0.000E+00
                                388 S  
                                         3.342E-01 1.000E+00 0.000E+00 0.000E+00
                         389-   391 P  
                                         1.769E+01 0.000E+00 4.359E-02 0.000E+00
                                         3.854E+00 0.000E+00 2.318E-01 0.000E+00
                                         1.047E+00 0.000E+00 5.146E-01 0.000E+00
                         392-   394 P  
                                         2.759E-01 0.000E+00 1.000E+00 0.000E+00
                         395-   399 D  
                                         8.000E-01 0.000E+00 0.000E+00 1.000E+00
  38 O   -9.727   7.029  -3.744
  39 O   -4.058  -7.030  11.313
  40 O    4.058  11.543  -3.784
  41 O    4.059   7.030  -3.744
  42 O    7.966   9.287  -3.805

 *******************************************************************************
 FINISHED BASIS SET HANDLING 
 *******************************************************************************

 INFORMATION **** SET_MPP **** PCRYSTAL CALCULATION
 INFORMATION **** READM2 **** NEW DEFAULT: FOCK/KS MATRIX MIXING SET TO 30 %
 INFORMATION **** READM2 **** NEW DEFAULT: FULL DIRECT SCF MODE
 INFORMATION **** READM2 **** NEW DEFAULT: COULOMB BIPOLAR BUFFER SET TO 32 Mb
 INFORMATION **** READM2 **** NEW DEFAULT: EXCHANGE BIPOLAR BUFFER SET TO 32 Mb

 *******************************************************************************
 NEW DEFAULT: DFT INTEGRATION GRID INCREASED TO XLGRID
 NEW DEFAULT: DIIS ACCELERATOR ACTIVE
 USE KEYWORD NODIIS TO TURN IT OFF
 *******************************************************************************

 WARNING **** RDDFTP **** HSEsol-HJS ACTIVE
 RANGE SEPARATION - OMEGA:   0.110000000000000     
 WARNING **** RDDFTP **** HSEsol-3c has to be combined with sol-def2-mSVP basis set
 *******************************************************************************
 N. OF ATOMS PER CELL        42  COULOMB OVERLAP TOL         (T1) 10**   -6
 NUMBER OF SHELLS           234  COULOMB PENETRATION TOL     (T2) 10**   -6
 NUMBER OF AO               474  EXCHANGE OVERLAP TOL        (T3) 10**   -6
 N. OF ELECTRONS PER CELL   198  EXCHANGE PSEUDO OVP (F(G))  (T4) 10**   -6
 CORE ELECTRONS PER CELL     60  EXCHANGE PSEUDO OVP (P(G))  (T5) 10**  -12
 N. OF SYMMETRY OPERATORS     1  POLE ORDER IN MONO ZONE                  4
 *******************************************************************************
 TYPE OF CALCULATION :  RESTRICTED CLOSED SHELL
 KOHN-SHAM HAMILTONIAN

 (EXCHANGE)[CORRELATION] FUNCTIONAL:(HSEsol GGA)[PBEsol]

 RANGE-SEPARATED HYBRID FUNCTIONAL 
 OMEGA (SHORT-RANGE)[LONG-RANGE]:(    0.1100)[    0.0000]

 HYBRID EXCHANGE - PERCENTAGE OF FOCK EXCHANGE    25.0000

 CAPPA:IS1  2;IS2  2;IS3  8; K PTS MONK NET  20; SYMMOPS:K SPACE   2;G SPACE   1

 *******************************************************************************
 MAX NUMBER OF SCF CYCLES      50  CONVERGENCE ON DELTAP        10**-16
 WEIGHT OF F(I) IN F(I+1)      30% CONVERGENCE ON ENERGY        10**- 6
 SHRINK. FACT.(MONKH.)    2  2  8  NUMBER OF K POINTS IN THE IBZ     20
 SHRINKING FACTOR(GILAT NET)    8  NUMBER OF K POINTS(GILAT NET)   1028
 *******************************************************************************
 *** K POINTS COORDINATES (OBLIQUE COORDINATES IN UNITS OF IS =  2)
   1-R(  0  0  0)   2-R(  1  0  0)   3-R(  0  1  0)   4-R(  1  1  0)
   5-C(  0  0  1)   6-C(  1  0  1)   7-C(  0  1  1)   8-C(  1  1  1)
   9-C(  0  0  2)  10-C(  1  0  2)  11-C(  0  1  2)  12-C(  1  1  2)
  13-C(  0  0  3)  14-C(  1  0  3)  15-C(  0  1  3)  16-C(  1  1  3)
  17-R(  0  0  4)  18-R(  1  0  4)  19-R(  0  1  4)  20-R(  1  1  4)

 DIRECT LATTICE VECTORS COMPON. (A.U.)     RECIP. LATTICE VECTORS COMPON. (A.U.) 
        X            Y            Z              X            Y            Z
   24.5879030  -14.1935232    0.0000000      0.2555397    0.0000000   -0.0958147
    0.0000000   28.3910867    0.0000000      0.1277517    0.2213084   -0.1916485
    2.8342273    4.9098096    7.5589382      0.0000000    0.0000000    0.8312259

 DISK SPACE FOR EIGENVECTORS (FTN 10)     7189632 REALS

 SYMMETRY ADAPTION OF THE BLOCH FUNCTIONS DISABLED
 TTTTTTTTTTTTTTTTTTTTTTTTTTTTTT gordsh1     TELAPSE        0.04 TCPU        0.04

 MATRIX SIZE: P(G)  317422, F(G)   66670, P(G) IRR  160016, F(G) IRR   67330
 MAX G-VECTOR INDEX FOR 1- AND 2-ELECTRON INTEGRALS  57

 TTTTTTTTTTTTTTTTTTTTTTTTTTTTTT INPUT       TELAPSE        0.33 TCPU        0.33

 NEIGHBORS OF THE NON-EQUIVALENT ATOMS

 N = NUMBER OF NEIGHBORS AT DISTANCE R
    ATOM  N     R/ANG      R/AU   NEIGHBORS (ATOM LABELS AND CELL INDICES)
   1 B    1     1.3791     2.6061   37 O   -1 0 0
   1 B    1     1.3793     2.6065   38 O    0 0 0
   1 B    1     1.5503     2.9297   25 C   -1 0-1
   1 B    1     2.3895     4.5155    3 B   -1 0 0
   1 B    1     2.3898     4.5160    2 B    0 0 0
   1 B    1     2.5632     4.8437   26 C    0 0-1

   2 B    1     1.3793     2.6065   39 O    0 1-2
   2 B    1     1.3793     2.6065   38 O    0 0 0
   2 B    1     1.5504     2.9298   19 C    0 0 0
   2 B    1     2.3895     4.5156    3 B   -1 0 0
   2 B    1     2.3898     4.5160    1 B    0 0 0
   2 B    1     2.5634     4.8440   22 C    0 1-1

   3 B    1     1.3791     2.6061   37 O    0 0 0
   3 B    1     1.3793     2.6064   39 O    1 1-2
   3 B    1     1.5502     2.9294   31 C    0 0 0
   3 B    1     2.3895     4.5155    1 B    1 0 0
   3 B    1     2.3895     4.5156    2 B    1 0 0
   3 B    1     2.5629     4.8433   32 C    1 1-1

   4 B    1     1.3795     2.6068   40 O    0 0 0
   4 B    1     1.3795     2.6070   41 O    0 0 0
   4 B    1     1.5513     2.9316   24 C    0 0 0
   4 B    1     2.3905     4.5174    6 B    0 0 0
   4 B    1     2.3905     4.5175    5 B    0 0 0
   4 B    1     2.5648     4.8468   23 C    0 0 0

   5 B    1     1.3795     2.6069   41 O    0 0 0
   5 B    1     1.3797     2.6072   42 O    0 0 0
   5 B    1     1.5516     2.9322   36 C    0 0 0
   5 B    1     2.3905     4.5175    4 B    0 0 0
   5 B    1     2.3911     4.5185    6 B    0 0 0
   5 B    1     2.5651     4.8473   35 C    0 0 0

   6 B    1     1.3795     2.6068   40 O    0 0 0
   6 B    1     1.3796     2.6071   42 O    0 0 0
   6 B    1     1.5516     2.9322   30 C    0 1-1
   6 B    1     2.3905     4.5174    4 B    0 0 0
   6 B    1     2.3911     4.5185    5 B    0 0 0
   6 B    1     2.5651     4.8473   29 C    1 1-1

   7 H    1     1.0913     2.0623   20 C    0 0 0
   7 H    1     2.1472     4.0576   19 C    0 0 0
   7 H    1     2.1680     4.0969   23 C    0 0 0
   7 H    1     2.5202     4.7625   10 H    0 0 0
   7 H    1     2.5676     4.8520   38 O    0 0 0
   7 H    1     2.7321     5.1630    2 B    0 0 0

   8 H    1     1.0914     2.0625   21 C    0-1 1
   8 H    1     2.1493     4.0616   24 C    0-1 1
   8 H    1     2.1666     4.0942   22 C    0 0 0
   8 H    1     2.5198     4.7618    9 H    0 0 0
   8 H    1     2.5720     4.8604   40 O    0-1 1
   8 H    1     2.7362     5.1707    4 B    0-1 1

   9 H    1     1.0914     2.0624   22 C    0 0 0
   9 H    1     2.1471     4.0575   19 C    0-1 1
   9 H    1     2.1680     4.0970   21 C    0-1 1
   9 H    1     2.5198     4.7618    8 H    0 0 0
   9 H    1     2.5665     4.8500   39 O    0 0-1
   9 H    1     2.7315     5.1618    2 B    0-1 1

  10 H    1     1.0915     2.0626   23 C    0 0 0
  10 H    1     2.1490     4.0610   24 C    0 0 0
  10 H    1     2.1669     4.0948   20 C    0 0 0
  10 H    1     2.5202     4.7625    7 H    0 0 0
  10 H    1     2.5712     4.8588   41 O    0 0 0
  10 H    1     2.7351     5.1686    4 B    0 0 0

  11 H    1     1.0913     2.0623   26 C    0 0 0
  11 H    1     2.1469     4.0571   25 C   -1 0 0
  11 H    1     2.1680     4.0968   29 C    0 0 0
  11 H    1     2.5198     4.7617   14 H    0 0 0
  11 H    1     2.5670     4.8510   38 O    0 0 1
  11 H    1     2.7310     5.1609    1 B    0 0 1

  12 H    1     1.0914     2.0625   27 C    0 0 0
  12 H    1     2.1493     4.0617   30 C    0 0 0
  12 H    1     2.1664     4.0939   28 C    0 0 0
  12 H    1     2.5192     4.7606   13 H    0 0 0
  12 H    1     2.5735     4.8632   40 O    0-1 1
  12 H    1     2.7371     5.1723    6 B    0-1 1

  13 H    1     1.0914     2.0624   28 C    0 0 0
  13 H    1     2.1475     4.0581   25 C    0 0 0
  13 H    1     2.1679     4.0967   27 C    0 0 0
  13 H    1     2.5192     4.7606   12 H    0 0 0
  13 H    1     2.5675     4.8519   37 O    0 0 1
  13 H    1     2.7328     5.1643    1 B    1 0 1

  14 H    1     1.0914     2.0625   29 C    0 0 0
  14 H    1     2.1491     4.0612   30 C   -1 0 0
  14 H    1     2.1666     4.0942   26 C    0 0 0
  14 H    1     2.5198     4.7617   11 H    0 0 0
  14 H    1     2.5723     4.8609   42 O   -1-1 1
  14 H    1     2.7355     5.1693    6 B   -1-1 1

  15 H    1     1.0914     2.0624   32 C    0 0 0
  15 H    1     2.1475     4.0582   31 C   -1-1 1
  15 H    1     2.1678     4.0966   35 C   -1-1 1
  15 H    1     2.5200     4.7621   18 H    0 0 0
  15 H    1     2.5667     4.8503   39 O    0 0-1
  15 H    1     2.7315     5.1618    3 B   -1-1 1

  16 H    1     1.0913     2.0623   33 C    0 0 0
  16 H    1     2.1487     4.0605   36 C    0 0 0
  16 H    1     2.1667     4.0945   34 C    0 0 0
  16 H    1     2.5197     4.7616   17 H    0 0 0
  16 H    1     2.5723     4.8610   41 O    0 0 0
  16 H    1     2.7359     5.1701    5 B    0 0 0

  17 H    1     1.0915     2.0626   34 C    0 0 0
  17 H    1     2.1479     4.0589   31 C    0 0 0
  17 H    1     2.1679     4.0968   33 C    0 0 0
  17 H    1     2.5197     4.7616   16 H    0 0 0
  17 H    1     2.5677     4.8522   37 O    0 0 0
  17 H    1     2.7331     5.1648    3 B    0 0 0

  18 H    1     1.0914     2.0624   35 C   -1-1 1
  18 H    1     2.1486     4.0602   36 C   -1-1 1
  18 H    1     2.1668     4.0947   32 C    0 0 0
  18 H    1     2.5200     4.7621   15 H    0 0 0
  18 H    1     2.5717     4.8598   42 O   -1-1 1
  18 H    1     2.7349     5.1682    5 B   -1-1 1

  19 C    1     1.4020     2.6495   22 C    0 1-1
  19 C    1     1.4021     2.6495   20 C    0 0 0
  19 C    1     1.5504     2.9298    2 B    0 0 0
  19 C    1     2.1471     4.0575    9 H    0 1-1
  19 C    1     2.1472     4.0576    7 H    0 0 0
  19 C    1     2.4246     4.5817   21 C    0 0 0

  20 C    1     1.0913     2.0623    7 H    0 0 0
  20 C    1     1.3914     2.6294   23 C    0 0 0
  20 C    1     1.4021     2.6495   19 C    0 0 0
  20 C    1     2.1669     4.0948   10 H    0 0 0
  20 C    1     2.4177     4.5688   22 C    0 1-1
  20 C    1     2.4250     4.5825   24 C    0 0 0

  21 C    1     1.0914     2.0625    8 H    0 1-1
  21 C    1     1.3914     2.6293   22 C    0 1-1
  21 C    1     1.4026     2.6505   24 C    0 0 0
  21 C    1     2.1680     4.0970    9 H    0 1-1
  21 C    1     2.4182     4.5697   23 C    0 0 0
  21 C    1     2.4246     4.5817   19 C    0 0 0

  22 C    1     1.0914     2.0624    9 H    0 0 0
  22 C    1     1.3914     2.6293   21 C    0-1 1
  22 C    1     1.4020     2.6495   19 C    0-1 1
  22 C    1     2.1666     4.0942    8 H    0 0 0
  22 C    1     2.4177     4.5688   20 C    0-1 1
  22 C    1     2.4250     4.5826   24 C    0-1 1

  23 C    1     1.0915     2.0626   10 H    0 0 0
  23 C    1     1.3914     2.6294   20 C    0 0 0
  23 C    1     1.4025     2.6504   24 C    0 0 0
  23 C    1     2.1680     4.0969    7 H    0 0 0
  23 C    1     2.4182     4.5697   21 C    0 0 0
  23 C    1     2.4246     4.5818   19 C    0 0 0

  24 C    1     1.4025     2.6504   23 C    0 0 0
  24 C    1     1.4026     2.6505   21 C    0 0 0
  24 C    1     1.5513     2.9316    4 B    0 0 0
  24 C    1     2.1490     4.0610   10 H    0 0 0
  24 C    1     2.1493     4.0616    8 H    0 1-1
  24 C    1     2.4250     4.5825   20 C    0 0 0

  25 C    1     1.4020     2.6494   26 C    1 0 0
  25 C    1     1.4021     2.6495   28 C    0 0 0
  25 C    1     1.5503     2.9297    1 B    1 0 1
  25 C    1     2.1469     4.0571   11 H    1 0 0
  25 C    1     2.1475     4.0581   13 H    0 0 0
  25 C    1     2.4246     4.5818   27 C    0 0 0

  26 C    1     1.0913     2.0623   11 H    0 0 0
  26 C    1     1.3914     2.6293   29 C    0 0 0
  26 C    1     1.4020     2.6494   25 C   -1 0 0
  26 C    1     2.1666     4.0942   14 H    0 0 0
  26 C    1     2.4175     4.5684   28 C   -1 0 0
  26 C    1     2.4251     4.5828   30 C   -1 0 0

  27 C    1     1.0914     2.0625   12 H    0 0 0
  27 C    1     1.3915     2.6295   28 C    0 0 0
  27 C    1     1.4026     2.6505   30 C    0 0 0
  27 C    1     2.1679     4.0967   13 H    0 0 0
  27 C    1     2.4179     4.5691   29 C    1 0 0
  27 C    1     2.4246     4.5818   25 C    0 0 0

  28 C    1     1.0914     2.0624   13 H    0 0 0
  28 C    1     1.3915     2.6295   27 C    0 0 0
  28 C    1     1.4021     2.6495   25 C    0 0 0
  28 C    1     2.1664     4.0939   12 H    0 0 0
  28 C    1     2.4175     4.5684   26 C    1 0 0
  28 C    1     2.4253     4.5832   30 C    0 0 0

  29 C    1     1.0914     2.0625   14 H    0 0 0
  29 C    1     1.3914     2.6293   26 C    0 0 0
  29 C    1     1.4025     2.6504   30 C   -1 0 0
  29 C    1     2.1680     4.0968   11 H    0 0 0
  29 C    1     2.4179     4.5691   27 C   -1 0 0
  29 C    1     2.4247     4.5819   25 C   -1 0 0

  30 C    1     1.4025     2.6504   29 C    1 0 0
  30 C    1     1.4026     2.6505   27 C    0 0 0
  30 C    1     1.5516     2.9322    6 B    0-1 1
  30 C    1     2.1491     4.0612   14 H    1 0 0
  30 C    1     2.1493     4.0617   12 H    0 0 0
  30 C    1     2.4251     4.5828   26 C    1 0 0

  31 C    1     1.4021     2.6496   32 C    1 1-1
  31 C    1     1.4021     2.6497   34 C    0 0 0
  31 C    1     1.5502     2.9294    3 B    0 0 0
  31 C    1     2.1475     4.0582   15 H    1 1-1
  31 C    1     2.1479     4.0589   17 H    0 0 0
  31 C    1     2.4244     4.5814   33 C    0 0 0

  32 C    1     1.0914     2.0624   15 H    0 0 0
  32 C    1     1.3914     2.6293   35 C   -1-1 1
  32 C    1     1.4021     2.6496   31 C   -1-1 1
  32 C    1     2.1668     4.0947   18 H    0 0 0
  32 C    1     2.4179     4.5692   34 C   -1-1 1
  32 C    1     2.4251     4.5827   36 C   -1-1 1

  33 C    1     1.0913     2.0623   16 H    0 0 0
  33 C    1     1.3914     2.6294   34 C    0 0 0
  33 C    1     1.4025     2.6504   36 C    0 0 0
  33 C    1     2.1679     4.0968   17 H    0 0 0
  33 C    1     2.4178     4.5690   35 C    0 0 0
  33 C    1     2.4244     4.5814   31 C    0 0 0

  34 C    1     1.0915     2.0626   17 H    0 0 0
  34 C    1     1.3914     2.6294   33 C    0 0 0
  34 C    1     1.4021     2.6497   31 C    0 0 0
  34 C    1     2.1667     4.0945   16 H    0 0 0
  34 C    1     2.4179     4.5692   32 C    1 1-1
  34 C    1     2.4253     4.5832   36 C    0 0 0

  35 C    1     1.0914     2.0624   18 H    1 1-1
  35 C    1     1.3914     2.6293   32 C    1 1-1
  35 C    1     1.4025     2.6503   36 C    0 0 0
  35 C    1     2.1678     4.0966   15 H    1 1-1
  35 C    1     2.4178     4.5690   33 C    0 0 0
  35 C    1     2.4245     4.5817   31 C    0 0 0

  36 C    1     1.4025     2.6503   35 C    0 0 0
  36 C    1     1.4025     2.6504   33 C    0 0 0
  36 C    1     1.5516     2.9322    5 B    0 0 0
  36 C    1     2.1486     4.0602   18 H    1 1-1
  36 C    1     2.1487     4.0605   16 H    0 0 0
  36 C    1     2.4251     4.5827   32 C    1 1-1

  37 O    1     1.3791     2.6061    1 B    1 0 0
  37 O    1     1.3791     2.6061    3 B    0 0 0
  37 O    1     2.3880     4.5126   38 O    1 0 0
  37 O    1     2.3882     4.5130   39 O    1 1-2
  37 O    1     2.5383     4.7966   31 C    0 0 0
  37 O    1     2.5384     4.7968   25 C    0 0-1

  38 O    1     1.3793     2.6065    1 B    0 0 0
  38 O    1     1.3793     2.6065    2 B    0 0 0
  38 O    1     2.3880     4.5126   37 O   -1 0 0
  38 O    1     2.3882     4.5131   39 O    0 1-2
  38 O    1     2.5391     4.7981   19 C    0 0 0
  38 O    1     2.5395     4.7990   25 C   -1 0-1

  39 O    1     1.3793     2.6064    3 B   -1-1 2
  39 O    1     1.3793     2.6065    2 B    0-1 2
  39 O    1     2.3882     4.5130   37 O   -1-1 2
  39 O    1     2.3882     4.5131   38 O    0-1 2
  39 O    1     2.5390     4.7980   19 C    0-1 2
  39 O    1     2.5391     4.7982   31 C   -1-1 2

  40 O    1     1.3795     2.6068    6 B    0 0 0
  40 O    1     1.3795     2.6068    4 B    0 0 0
  40 O    1     2.3880     4.5126   42 O    0 0 0
  40 O    1     2.3884     4.5134   41 O    0 0 0
  40 O    1     2.5400     4.7998   24 C    0 0 0
  40 O    1     2.5403     4.8005   30 C    0 1-1

  41 O    1     1.3795     2.6069    5 B    0 0 0
  41 O    1     1.3795     2.6070    4 B    0 0 0
  41 O    1     2.3881     4.5128   42 O    0 0 0
  41 O    1     2.3884     4.5134   40 O    0 0 0
  41 O    1     2.5404     4.8006   24 C    0 0 0
  41 O    1     2.5405     4.8008   36 C    0 0 0

  42 O    1     1.3796     2.6071    6 B    0 0 0
  42 O    1     1.3797     2.6072    5 B    0 0 0
  42 O    1     2.3880     4.5126   40 O    0 0 0
  42 O    1     2.3881     4.5128   41 O    0 0 0
  42 O    1     2.5409     4.8016   36 C    0 0 0
  42 O    1     2.5410     4.8019   30 C    0 1-1


 SYMMETRY ALLOWED INTERNAL DEGREE(S) OF FREEDOM: 123
 TTTTTTTTTTTTTTTTTTTTTTTTTTTTTT SYMM        TELAPSE        0.33 TCPU        0.33
 TTTTTTTTTTTTTTTTTTTTTTTTTTTTTT INT_SCREEN  TELAPSE        0.36 TCPU        0.36

 DFT PARAMETERS

     ATOM       ELECTRONS   NET CHARGE   R(ANGSTROM)
   1   5  B       5.0000      0.0000     0.89000000
   7   1  H       1.0000      0.0000     1.11000000
  19   6  C       6.0000      0.0000     0.77000000
  37   8  O       8.0000      0.0000     0.74000000

 SIZE OF GRID=    1313411
 TTTTTTTTTTTTTTTTTTTTTTTTTTTTTT MAKE_GRID2  TELAPSE        9.07 TCPU        9.06
 BECKE WEIGHT FUNCTION
 RADSAFE =     2.00
 TOLERANCES - DENSITY:10**- 6; POTENTIAL:10**- 9; GRID WGT:10**-14

 RADIAL INTEGRATION  - INTERVALS (POINTS,UPPER LIMIT):            1( 75,  4.0*R)

 ANGULAR INTEGRATION - INTERVALS (ACCURACY LEVEL [N. POINTS] UPPER LIMIT):
  1(  4[  86]   0.2)  2(  8[ 194]   0.5)  3( 12[ 350]   0.9)  4( 16[ 974]   3.5)
  5( 12[ 350]9999.0)
 TTTTTTTTTTTTTTTTTTTTTTTTTTTTTT INT_CALC    TELAPSE        9.16 TCPU        9.15
 EEEEEEEEEE INT_CALC TERMINATION  DATE 19 02 2026 TIME 19:06:48.4

 *******************************************************************************
 cof-1_z40_L030_incl                                                             
 CRYSTAL - SCF - TYPE OF CALCULATION :  RESTRICTED CLOSED SHELL
 *******************************************************************************

 CAPPA:IS1  2;IS2  2;IS3  8; K PTS MONK NET  20; SYMMOPS:K SPACE   2;G SPACE   1

 TTTTTTTTTTTTTTTTTTTTTTTTTTTTTT SDIK        TELAPSE        9.78 TCPU       16.82

 AAAAAAAAAAAAAAAAAAAAAAAAAAAAAAAAAAAAAAAAAAAAAAAAAAAAAAAAAAAAAAAAAAAAAAAAAAAAAAA
         ATOMIC WAVEFUNCTION(S)


 NUCLEAR CHARGE  5.0  SYMMETRY SPECIES            S    P
 N. ELECTRONS    5.0  NUMBER OF PRIMITIVE GTOS    8    4
                      NUMBER OF CONTRACTED GTOS   4    2
                      NUMBER OF CLOSED SHELLS     2    0
                      OPEN SHELL OCCUPATION       0    1

  ZNUC  SCFIT    TOTAL HF ENERGY   KINETIC ENERGY   VIRIAL THEOREM ACCURACY
   5.0    11    -2.451164084E+01  2.462155050E+01 -1.995536038E+00  1.5E-06

 NUCLEAR CHARGE  1.0  SYMMETRY SPECIES            S
 N. ELECTRONS    1.0  NUMBER OF PRIMITIVE GTOS    4
                      NUMBER OF CONTRACTED GTOS   2
                      NUMBER OF CLOSED SHELLS     0
                      OPEN SHELL OCCUPATION       1

  ZNUC  SCFIT    TOTAL HF ENERGY   KINETIC ENERGY   VIRIAL THEOREM ACCURACY
   1.0     1    -4.977266687E-01  5.190767460E-01 -1.958869132E+00  0.0E+00

 NUCLEAR CHARGE  6.0  SYMMETRY SPECIES            S    P
 N. ELECTRONS    6.0  NUMBER OF PRIMITIVE GTOS    8    4
                      NUMBER OF CONTRACTED GTOS   4    2
                      NUMBER OF CLOSED SHELLS     2    0
                      OPEN SHELL OCCUPATION       0    2

  ZNUC  SCFIT    TOTAL HF ENERGY   KINETIC ENERGY   VIRIAL THEOREM ACCURACY
   6.0     9    -3.766704647E+01  3.775180683E+01 -1.997754800E+00  1.1E-06

 NUCLEAR CHARGE  8.0  SYMMETRY SPECIES            S    P
 N. ELECTRONS    8.0  NUMBER OF PRIMITIVE GTOS    8    4
                      NUMBER OF CONTRACTED GTOS   4    2
                      NUMBER OF CLOSED SHELLS     2    0
                      OPEN SHELL OCCUPATION       0    4

  ZNUC  SCFIT    TOTAL HF ENERGY   KINETIC ENERGY   VIRIAL THEOREM ACCURACY
   8.0    12    -7.477373220E+01  7.477365593E+01 -2.000001020E+00  3.8E-06

 AAAAAAAAAAAAAAAAAAAAAAAAAAAAAAAAAAAAAAAAAAAAAAAAAAAAAAAAAAAAAAAAAAAAAAAAAAAAAAA

 CHARGE NORMALIZATION FACTOR   1.00000000
 TOTAL ATOMIC CHARGES:
   5.0000000   5.0000000   5.0000000   5.0000000   5.0000000   5.0000000
   1.0000000   1.0000000   1.0000000   1.0000000   1.0000000   1.0000000
   1.0000000   1.0000000   1.0000000   1.0000000   1.0000000   1.0000000
   6.0000000   6.0000000   6.0000000   6.0000000   6.0000000   6.0000000
   6.0000000   6.0000000   6.0000000   6.0000000   6.0000000   6.0000000
   6.0000000   6.0000000   6.0000000   6.0000000   6.0000000   6.0000000
   8.0000000   8.0000000   8.0000000   8.0000000   8.0000000   8.0000000
 TTTTTTTTTTTTTTTTTTTTTTTTTTTTTT MOQGAD      TELAPSE        9.82 TCPU       18.15
 TTTTTTTTTTTTTTTTTTTTTTTTTTTTTT SHELLXN     TELAPSE       16.67 TCPU      236.03
 TTTTTTTTTTTTTTTTTTTTTTTTTTTTTT MONMO3      TELAPSE       16.81 TCPU      240.59
 NUMERICALLY INTEGRATED DENSITY    198.0000072057
 TTTTTTTTTTTTTTTTTTTTTTTTTTTTTT NUMDFT      TELAPSE       17.37 TCPU      258.21
 CYC   0 ETOT(AU) -1.295956588143E+03 DETOT -1.30E+03 tst  0.00E+00 PX  1.00E+00
 TTTTTTTTTTTTTTTTTTTTTTTTTTTTTT DIIS        TELAPSE       17.40 TCPU      259.31
 TTTTTTTTTTTTTTTTTTTTTTTTTTTTTT FDIK        TELAPSE       17.89 TCPU      274.83
 INSULATING STATE
 TOP OF VALENCE BANDS -    BAND     99; K   17; EIG -3.1235755E-01 AU
 TOP OF VALENCE BANDS -    BAND     99; K    1; EIG -3.1392308E-01 AU
 BOTTOM OF VIRTUAL BANDS - BAND    100; K    1; EIG -1.5883892E-01 AU
 INDIRECT ENERGY BAND GAP:   4.1775 eV
 TTTTTTTTTTTTTTTTTTTTTTTTTTTTTT PDIG        TELAPSE       18.22 TCPU      280.98
 CHARGE NORMALIZATION FACTOR   1.00000000
 TOTAL ATOMIC CHARGES:
   4.1546605   4.1633423   4.1636821   4.1631601   4.1629444   4.1543445
   0.7852358   0.7853616   0.7850238   0.7851132   0.7855957   0.7857875
   0.7855926   0.7857554   0.7850079   0.7851698   0.7851877   0.7853535
   6.0435441   6.2659484   6.2659166   6.2649619   6.2649360   6.0429061
   6.0465402   6.2654294   6.2655495   6.2653254   6.2655670   6.0454249
   6.0439517   6.2647075   6.2652937   6.2655667   6.2661833   6.0424472
   8.6935579   8.6936995   8.6937173   8.6941033   8.6941209   8.6942832
 TTTTTTTTTTTTTTTTTTTTTTTTTTTTTT MOQGAD      TELAPSE       18.27 TCPU      281.03
 TTTTTTTTTTTTTTTTTTTTTTTTTTTTTT SHELLXN     TELAPSE       25.36 TCPU      507.22
 TTTTTTTTTTTTTTTTTTTTTTTTTTTTTT MONMO3      TELAPSE       25.50 TCPU      511.76
 NUMERICALLY INTEGRATED DENSITY    198.0000071053
 TTTTTTTTTTTTTTTTTTTTTTTTTTTTTT NUMDFT      TELAPSE       26.06 TCPU      529.61
 CYC   1 ETOT(AU) -1.288818973788E+03 DETOT  7.14E+00 tst  0.00E+00 PX  1.00E+00
 TTTTTTTTTTTTTTTTTTTTTTTTTTTTTT DIIS        TELAPSE       26.11 TCPU      531.03
 DIIS TEST: 0.10988E+01 AT SCF   CYCLE   1 - MIX   30 %
 TTTTTTTTTTTTTTTTTTTTTTTTTTTTTT FDIK        TELAPSE       26.60 TCPU      546.70
 INSULATING STATE
 TOP OF VALENCE BANDS -    BAND     99; K   17; EIG -2.2219007E-01 AU
 TOP OF VALENCE BANDS -    BAND     99; K    1; EIG -2.2723784E-01 AU
 BOTTOM OF VIRTUAL BANDS - BAND    100; K    1; EIG -8.0972803E-02 AU
 INDIRECT ENERGY BAND GAP:   3.8427 eV
 TTTTTTTTTTTTTTTTTTTTTTTTTTTTTT PDIG        TELAPSE       26.90 TCPU      552.85
 CHARGE NORMALIZATION FACTOR   1.00000000
 TOTAL ATOMIC CHARGES:
   4.6856650   4.7037660   4.7033992   4.7034849   4.7037286   4.6847422
   0.9089757   0.9091100   0.9160123   0.9162573   0.9072004   0.9070344
   0.9071310   0.9070047   0.9160288   0.9162859   0.9088789   0.9089400
   5.8668850   6.1242060   6.1245241   6.1428858   6.1439903   5.8693036
   5.8819483   6.1380514   6.1397277   6.1390516   6.1387738   5.8844327
   5.8665429   6.1427035   6.1442793   6.1245455   6.1244631   5.8696090
   8.3315589   8.3317856   8.3471097   8.3313256   8.3472024   8.3314490
 TTTTTTTTTTTTTTTTTTTTTTTTTTTTTT MOQGAD      TELAPSE       26.94 TCPU      552.89
 TTTTTTTTTTTTTTTTTTTTTTTTTTTTTT SHELLXN     TELAPSE       34.04 TCPU      779.15
 TTTTTTTTTTTTTTTTTTTTTTTTTTTTTT MONMO3      TELAPSE       34.18 TCPU      783.69
 NUMERICALLY INTEGRATED DENSITY    198.0000122620
 TTTTTTTTTTTTTTTTTTTTTTTTTTTTTT NUMDFT      TELAPSE       34.74 TCPU      801.53
 CYC   2 ETOT(AU) -1.289013853588E+03 DETOT -1.95E-01 tst  3.97E-03 PX  1.59E-01
 TTTTTTTTTTTTTTTTTTTTTTTTTTTTTT DIIS        TELAPSE       34.79 TCPU      803.05
 DIIS TEST: 0.45448E+00 AT SCF   CYCLE   2 - DIIS ACTIVE - HISTORY:     2 CYCLES
 TTTTTTTTTTTTTTTTTTTTTTTTTTTTTT FDIK        TELAPSE       35.28 TCPU      818.80
 INSULATING STATE
 TOP OF VALENCE BANDS -    BAND     99; K   17; EIG -2.3523484E-01 AU
 TOP OF VALENCE BANDS -    BAND     99; K    1; EIG -2.3826130E-01 AU
 BOTTOM OF VIRTUAL BANDS - BAND    100; K    1; EIG -7.7375525E-02 AU
 INDIRECT ENERGY BAND GAP:   4.2956 eV
 TTTTTTTTTTTTTTTTTTTTTTTTTTTTTT PDIG        TELAPSE       35.58 TCPU      824.96
 CHARGE NORMALIZATION FACTOR   1.00000000
 TOTAL ATOMIC CHARGES:
   4.4840352   4.4989906   4.4989029   4.4983626   4.4983157   4.4832201
   0.8870244   0.8872556   0.8926010   0.8928223   0.8866908   0.8868766
   0.8868013   0.8866978   0.8925678   0.8929077   0.8869734   0.8871092
   5.8902095   6.1615755   6.1614623   6.1589009   6.1578928   5.8896369
   5.9040828   6.1604925   6.1602367   6.1603323   6.1604017   5.9037600
   5.8906345   6.1589493   6.1579771   6.1614278   6.1617029   5.8892094
   8.5145475   8.5148055   8.5117374   8.5150194   8.5115484   8.5153021
 TTTTTTTTTTTTTTTTTTTTTTTTTTTTTT MOQGAD      TELAPSE       35.62 TCPU      825.00
 TTTTTTTTTTTTTTTTTTTTTTTTTTTTTT SHELLXN     TELAPSE       42.72 TCPU     1051.37
 TTTTTTTTTTTTTTTTTTTTTTTTTTTTTT MONMO3      TELAPSE       42.87 TCPU     1055.92
 NUMERICALLY INTEGRATED DENSITY    198.0000107504
 TTTTTTTTTTTTTTTTTTTTTTTTTTTTTT NUMDFT      TELAPSE       43.43 TCPU     1073.76
 CYC   3 ETOT(AU) -1.289107997619E+03 DETOT -9.41E-02 tst  6.85E-04 PX  6.50E-02
 TTTTTTTTTTTTTTTTTTTTTTTTTTTTTT DIIS        TELAPSE       43.48 TCPU     1075.50
 DIIS TEST: 0.13570E-01 AT SCF   CYCLE   3 - DIIS ACTIVE - HISTORY:     3 CYCLES
 TTTTTTTTTTTTTTTTTTTTTTTTTTTTTT FDIK        TELAPSE       43.97 TCPU     1091.26
 INSULATING STATE
 TOP OF VALENCE BANDS -    BAND     99; K   17; EIG -2.4533760E-01 AU
 TOP OF VALENCE BANDS -    BAND     99; K    1; EIG -2.5007085E-01 AU
 BOTTOM OF VIRTUAL BANDS - BAND    100; K    1; EIG -8.5872979E-02 AU
 INDIRECT ENERGY BAND GAP:   4.3393 eV
 TTTTTTTTTTTTTTTTTTTTTTTTTTTTTT PDIG        TELAPSE       44.27 TCPU     1097.41
 CHARGE NORMALIZATION FACTOR   1.00000000
 TOTAL ATOMIC CHARGES:
   4.4907274   4.5031879   4.5029915   4.5028641   4.5029136   4.4902357
   0.8704922   0.8707246   0.8748496   0.8749456   0.8681309   0.8680371
   0.8680669   0.8680221   0.8749115   0.8749535   0.8704459   0.8705703
   5.9371259   6.1604928   6.1605105   6.1718215   6.1735082   5.9397650
   5.9518269   6.1690375   6.1708068   6.1699407   6.1698902   5.9536691
   5.9369492   6.1714330   6.1740101   6.1605916   6.1605742   5.9398754
   8.4763728   8.4764794   8.4875846   8.4762667   8.4880706   8.4763265
 TTTTTTTTTTTTTTTTTTTTTTTTTTTTTT MOQGAD      TELAPSE       44.32 TCPU     1097.46
 TTTTTTTTTTTTTTTTTTTTTTTTTTTTTT SHELLXN     TELAPSE       51.42 TCPU     1323.85
 TTTTTTTTTTTTTTTTTTTTTTTTTTTTTT MONMO3      TELAPSE       51.56 TCPU     1328.40
 NUMERICALLY INTEGRATED DENSITY    198.0000107094
 TTTTTTTTTTTTTTTTTTTTTTTTTTTTTT NUMDFT      TELAPSE       52.12 TCPU     1346.25
 CYC   4 ETOT(AU) -1.289110865366E+03 DETOT -2.87E-03 tst  2.91E-05 PX  1.35E-02
 TTTTTTTTTTTTTTTTTTTTTTTTTTTTTT DIIS        TELAPSE       52.18 TCPU     1348.12
 DIIS TEST: 0.41596E-02 AT SCF   CYCLE   4 - DIIS ACTIVE - HISTORY:     4 CYCLES
 TTTTTTTTTTTTTTTTTTTTTTTTTTTTTT FDIK        TELAPSE       52.67 TCPU     1363.77
 INSULATING STATE
 TOP OF VALENCE BANDS -    BAND     99; K   17; EIG -2.4353470E-01 AU
 TOP OF VALENCE BANDS -    BAND     99; K    1; EIG -2.4768953E-01 AU
 BOTTOM OF VIRTUAL BANDS - BAND    100; K    1; EIG -8.5381069E-02 AU
 INDIRECT ENERGY BAND GAP:   4.3036 eV
 TTTTTTTTTTTTTTTTTTTTTTTTTTTTTT PDIG        TELAPSE       52.97 TCPU     1369.92
 CHARGE NORMALIZATION FACTOR   1.00000000
 TOTAL ATOMIC CHARGES:
   4.4906327   4.5060219   4.5058533   4.5055172   4.5055362   4.4897995
   0.8731133   0.8733140   0.8783849   0.8786690   0.8717891   0.8719188
   0.8718460   0.8717810   0.8783698   0.8787482   0.8730474   0.8731689
   5.9210178   6.1636681   6.1635884   6.1700978   6.1691021   5.9201662
   5.9341991   6.1691176   6.1691319   6.1691485   6.1691119   5.9337328
   5.9212049   6.1700986   6.1692151   6.1635795   6.1638339   5.9199405
   8.4891296   8.4893867   8.4925924   8.4894093   8.4923490   8.4896671
 TTTTTTTTTTTTTTTTTTTTTTTTTTTTTT MOQGAD      TELAPSE       53.01 TCPU     1369.97
 TTTTTTTTTTTTTTTTTTTTTTTTTTTTTT SHELLXN     TELAPSE       60.12 TCPU     1596.40
 TTTTTTTTTTTTTTTTTTTTTTTTTTTTTT MONMO3      TELAPSE       60.26 TCPU     1600.94
 NUMERICALLY INTEGRATED DENSITY    198.0000107514
 TTTTTTTTTTTTTTTTTTTTTTTTTTTTTT NUMDFT      TELAPSE       60.82 TCPU     1618.80
 CYC   5 ETOT(AU) -1.289111814417E+03 DETOT -9.49E-04 tst  6.32E-06 PX  6.56E-03
 TTTTTTTTTTTTTTTTTTTTTTTTTTTTTT DIIS        TELAPSE       60.88 TCPU     1620.91
 DIIS TEST: 0.70605E-04 AT SCF   CYCLE   5 - DIIS ACTIVE - HISTORY:     5 CYCLES
 TTTTTTTTTTTTTTTTTTTTTTTTTTTTTT FDIK        TELAPSE       61.37 TCPU     1636.65
 INSULATING STATE
 TOP OF VALENCE BANDS -    BAND     99; K   17; EIG -2.4326709E-01 AU
 TOP OF VALENCE BANDS -    BAND     99; K    1; EIG -2.4743423E-01 AU
 BOTTOM OF VIRTUAL BANDS - BAND    100; K    1; EIG -8.4854508E-02 AU
 INDIRECT ENERGY BAND GAP:   4.3106 eV
 TTTTTTTTTTTTTTTTTTTTTTTTTTTTTT PDIG        TELAPSE       61.67 TCPU     1642.80
 CHARGE NORMALIZATION FACTOR   1.00000000
 TOTAL ATOMIC CHARGES:
   4.4913009   4.5052534   4.5050847   4.5048784   4.5049144   4.4907452
   0.8741280   0.8743605   0.8794289   0.8794782   0.8729139   0.8728131
   0.8728711   0.8727789   0.8794770   0.8794932   0.8740686   0.8742114
   5.9183725   6.1627573   6.1628776   6.1681941   6.1703494   5.9219233
   5.9331326   6.1673148   6.1691416   6.1681325   6.1683157   5.9355813
   5.9184188   6.1678506   6.1708155   6.1628822   6.1628970   5.9218370
   8.4879092   8.4879950   8.4943023   8.4879130   8.4949184   8.4879686
 TTTTTTTTTTTTTTTTTTTTTTTTTTTTTT MOQGAD      TELAPSE       61.72 TCPU     1642.85
 TTTTTTTTTTTTTTTTTTTTTTTTTTTTTT SHELLXN     TELAPSE       68.82 TCPU     1869.28
 TTTTTTTTTTTTTTTTTTTTTTTTTTTTTT MONMO3      TELAPSE       68.96 TCPU     1873.83
 NUMERICALLY INTEGRATED DENSITY    198.0000107555
 TTTTTTTTTTTTTTTTTTTTTTTTTTTTTT NUMDFT      TELAPSE       69.52 TCPU     1891.70
 CYC   6 ETOT(AU) -1.289111828115E+03 DETOT -1.37E-05 tst  2.82E-07 PX  9.35E-04
 TTTTTTTTTTTTTTTTTTTTTTTTTTTTTT DIIS        TELAPSE       69.59 TCPU     1893.89
 DIIS TEST: 0.32032E-04 AT SCF   CYCLE   6 - DIIS ACTIVE - HISTORY:     6 CYCLES
 TTTTTTTTTTTTTTTTTTTTTTTTTTTTTT FDIK        TELAPSE       70.08 TCPU     1909.62
 INSULATING STATE
 TOP OF VALENCE BANDS -    BAND     99; K   17; EIG -2.4328388E-01 AU
 TOP OF VALENCE BANDS -    BAND     99; K    1; EIG -2.4743838E-01 AU
 BOTTOM OF VIRTUAL BANDS - BAND    100; K    1; EIG -8.4886066E-02 AU
 INDIRECT ENERGY BAND GAP:   4.3102 eV
 TTTTTTTTTTTTTTTTTTTTTTTTTTTTTT PDIG        TELAPSE       70.38 TCPU     1915.77
 CHARGE NORMALIZATION FACTOR   1.00000000
 TOTAL ATOMIC CHARGES:
   4.4910801   4.5056160   4.5054534   4.5051324   4.5051515   4.4903324
   0.8741077   0.8743297   0.8792817   0.8795274   0.8727526   0.8728353
   0.8727834   0.8727269   0.8792873   0.8795847   0.8740497   0.8741777
   5.9205697   6.1628615   6.1627572   6.1693291   6.1687951   5.9203359
   5.9343090   6.1681047   6.1684589   6.1683417   6.1682214   5.9342512
   5.9206584   6.1692175   6.1690256   6.1627999   6.1629711   5.9202062
   8.4882786   8.4885031   8.4933448   8.4884886   8.4932577   8.4887030
 TTTTTTTTTTTTTTTTTTTTTTTTTTTTTT MOQGAD      TELAPSE       70.43 TCPU     1915.82
 TTTTTTTTTTTTTTTTTTTTTTTTTTTTTT SHELLXN     TELAPSE       77.53 TCPU     2142.18
 TTTTTTTTTTTTTTTTTTTTTTTTTTTTTT MONMO3      TELAPSE       77.67 TCPU     2146.74
 NUMERICALLY INTEGRATED DENSITY    198.0000107554
 TTTTTTTTTTTTTTTTTTTTTTTTTTTTTT NUMDFT      TELAPSE       78.23 TCPU     2164.58
 CYC   7 ETOT(AU) -1.289111835197E+03 DETOT -7.08E-06 tst  1.95E-07 PX  6.30E-04
 TTTTTTTTTTTTTTTTTTTTTTTTTTTTTT DIIS        TELAPSE       78.30 TCPU     2167.04
 DIIS TEST: 0.26456E-05 AT SCF   CYCLE   7 - DIIS ACTIVE - HISTORY:     7 CYCLES
 TTTTTTTTTTTTTTTTTTTTTTTTTTTTTT FDIK        TELAPSE       78.80 TCPU     2182.88
 INSULATING STATE
 TOP OF VALENCE BANDS -    BAND     99; K   17; EIG -2.4328932E-01 AU
 TOP OF VALENCE BANDS -    BAND     99; K    1; EIG -2.4744937E-01 AU
 BOTTOM OF VIRTUAL BANDS - BAND    100; K    1; EIG -8.4915712E-02 AU
 INDIRECT ENERGY BAND GAP:   4.3096 eV
 TTTTTTTTTTTTTTTTTTTTTTTTTTTTTT PDIG        TELAPSE       79.10 TCPU     2189.03
 CHARGE NORMALIZATION FACTOR   1.00000000
 TOTAL ATOMIC CHARGES:
   4.4910366   4.5057135   4.5055468   4.5052647   4.5052881   4.4903294
   0.8740722   0.8742879   0.8792808   0.8794602   0.8727266   0.8727610
   0.8727461   0.8726634   0.8792893   0.8795148   0.8740102   0.8741400
   5.9199577   6.1627769   6.1627822   6.1688927   6.1692273   5.9209646
   5.9338199   6.1679430   6.1687056   6.1682835   6.1683669   5.9345846
   5.9200914   6.1687633   6.1694745   6.1627730   6.1629387   5.9207909
   8.4884172   8.4886075   8.4931297   8.4885795   8.4932403   8.4887576
 TTTTTTTTTTTTTTTTTTTTTTTTTTTTTT MOQGAD      TELAPSE       79.15 TCPU     2189.07
 TTTTTTTTTTTTTTTTTTTTTTTTTTTTTT SHELLXN     TELAPSE       86.25 TCPU     2415.59
 TTTTTTTTTTTTTTTTTTTTTTTTTTTTTT MONMO3      TELAPSE       86.39 TCPU     2420.14
 NUMERICALLY INTEGRATED DENSITY    198.0000107561
 TTTTTTTTTTTTTTTTTTTTTTTTTTTTTT NUMDFT      TELAPSE       86.95 TCPU     2438.06
 CYC   8 ETOT(AU) -1.289111835536E+03 DETOT -3.39E-07 tst  1.90E-08 PX  1.62E-04
 TTTTTTTTTTTTTTTTTTTTTTTTTTTTTT DIIS        TELAPSE       87.03 TCPU     2440.57
 DIIS TEST: 0.33539E-06 AT SCF   CYCLE   8 - DIIS ACTIVE - HISTORY:     8 CYCLES
 TTTTTTTTTTTTTTTTTTTTTTTTTTTTTT FDIK        TELAPSE       87.52 TCPU     2456.29
 INSULATING STATE
 TOP OF VALENCE BANDS -    BAND     99; K   17; EIG -2.4329061E-01 AU
 TOP OF VALENCE BANDS -    BAND     99; K    1; EIG -2.4745305E-01 AU
 BOTTOM OF VIRTUAL BANDS - BAND    100; K    1; EIG -8.4916722E-02 AU
 INDIRECT ENERGY BAND GAP:   4.3096 eV
 TTTTTTTTTTTTTTTTTTTTTTTTTTTTTT PDIG        TELAPSE       87.82 TCPU     2462.44
 CHARGE NORMALIZATION FACTOR   1.00000000
 TOTAL ATOMIC CHARGES:
   4.4911015   4.5056849   4.5055179   4.5052271   4.5052515   4.4903889
   0.8740581   0.8742786   0.8792679   0.8794653   0.8727227   0.8727627
   0.8727384   0.8726691   0.8792812   0.8795153   0.8739978   0.8741290
   5.9200511   6.1628099   6.1627771   6.1690320   6.1691651   5.9207613
   5.9339415   6.1679652   6.1686688   6.1683251   6.1683092   5.9345055
   5.9201517   6.1688786   6.1694370   6.1627988   6.1629398   5.9206207
   8.4883244   8.4885153   8.4933633   8.4884907   8.4934418   8.4886684
 TTTTTTTTTTTTTTTTTTTTTTTTTTTTTT MOQGAD      TELAPSE       87.86 TCPU     2462.49
 TTTTTTTTTTTTTTTTTTTTTTTTTTTTTT SHELLXN     TELAPSE       94.96 TCPU     2688.88
 +++ ENERGIES IN A.U. +++
 ::: EXT EL-POLE                                  -1.2829897743608E+03
 ::: EXT EL-SPHEROPOLE                             1.4312511287659E+01
 ::: BIELET ZONE E-E                               2.1070594160589E+03
 ::: TOTAL E-E                                     8.3838215298574E+02
 ::: TOTAL E-N + N-E                              -3.5062184864050E+03
 ::: TOTAL N-N                                     2.3251622096734E+02
 ::: KINETIC ENERGY                                1.2799227416034E+03
 ::: PSEUDO TOTAL   ENERGY                        -1.1553973708485E+03
 ::: VIRIAL COEFFICIENT                            1.0511330605443E+00
 TTTTTTTTTTTTTTTTTTTTTTTTTTTTTT MONMO3      TELAPSE       95.11 TCPU     2693.43
 NUMERICALLY INTEGRATED DENSITY    198.0000107556
 EXCHANGE ENERGY: -0.126024569240E+03  CORRELATION ENERGY: -0.768989553258E+01
 TTTTTTTTTTTTTTTTTTTTTTTTTTTTTT NUMDFT      TELAPSE       95.66 TCPU     2711.29
 CYC   9 ETOT(AU) -1.289111835621E+03 DETOT -8.46E-08 tst  1.01E-09 PX  1.62E-04

 == SCF ENDED - CONVERGENCE ON ENERGY      E(AU) -1.2891118356208E+03 CYCLES   9


 ENERGY EXPRESSION=HARTREE+FOCK EXCH*0.00000+(HSESOL     EXCH)*1.00000+PBESOL     CORR


 TOTAL ENERGY(DFT)(AU)(  9) -1.2891118356208E+03 DE-8.5E-08 tester 1.0E-09
 TTTTTTTTTTTTTTTTTTTTTTTTTTTTTT EDFT        TELAPSE       95.67 TCPU     2711.30
 
 INFORMATION **** DFTD3 ENERGY **** CALCULATE DFTD3 ENERGY

           DFT-D V3(BJ)
 DF                                         hsesol3c  
 parameters
 s6       :    1.0000
 s8       :    0.0000
 a1       :    0.5196
 a2       :    4.9385
 k1 k3    :   16.0000   -4.0000
 Cutoff   :   50.2022
 CN-Cutoff:   21.1671
 ABC-Cutoff:   21.1671
 
 Edisp /kcal,au:   -25.0259 -0.03988138

 E6    /kcal :   -26.5530
 E8    /kcal :     0.0000
 E6(ABC) "   :   1.527027
 
 INFORMATION **** DFTD3 ENERGY **** NORMAL TERMINATION OF DFTD3 MODULE

 GCP ENERGY CALCULATION
  level        hsesol3c            basis:hsesol3c
  Nbf            474
  Atoms           42

  Parameters: 
  sigma     1.0000
  eta       1.4281
  alpha     0.2936
  beta      1.9467

  dmp_scal      4.0000
  dmp_exp       6.0000
 cutoffs: 
   distance [bohr] 60.0
   noise    [a.u.] 2.2E-16
 SR-damping   T
 ** gCP correction **
  Egcp:        0.0829591069 / (a.u.) ||      52.0576 / (kcal/mol)
 INFORMATION **** GCP **** NORMAL TERMINATION OF GCP MODULE

 *******************************************************************************

 DFT-D3-GCP DISPERSION AND COUNTERPOISE CORRECTION

 D3 DISPERSION ENERGY (AU)      -3.9881378648877E-02
 GCP ENERGY (AU)                 8.2959106927165E-02
 TOTAL ENERGY + DISP + GCP (AU) -1.2890687578926E+03

 *******************************************************************************

 EIGENVECTORS IN FORTRAN UNIT 10
 TTTTTTTTTTTTTTTTTTTTTTTTTTTTTT END         TELAPSE       96.79 TCPU     2718.40
 EEEEEEEEEE TERMINATION  DATE 19 02 2026 TIME 19:08:16.1
