 Default number of threads is:           32

         
 *******************************************************************************
 *                                                                             *
 *                               CRYSTAL23                                     *
 *                      public : 1.0.1 - October 2022                          *
 *                       HTTP://WWW.CRYSTAL.UNITO.IT                           *
 *                                                                             *
 *                              MAIN AUTHORS                                   *
 *                                                                             *
 *  R. DOVESI(1,11), V.R. SAUNDERS(2), C. ROETTI(1,11), R. ORLANDO(1,11),      *
 *  C.M. ZICOVICH-WILSON(1,3), F. PASCALE(4), B. CIVALLERI(1,11),              *
 *  K. DOLL(5), N.M. HARRISON(6), I.J. BUSH(7), Ph. D'ARCO(8),                 *
 *  M. LLUNELL(9), M. CAUSA'(10), Y. NOEL(8), L. MASCHIO(1,11), A. ERBA(1,11)  *
 *  M. RE'RAT(14), S. CASASSA(1,11), B.G. SEARLE(2), J.K. DESMARAIS(1)         *
 *                                                                             *
 *        CONTRIBUTIONS TO THE CODE HAVE ALSO BEEN GIVEN BY                    *
 *                                                                             *
 *  M. FERRABONE(1,11), M. DE LA PIERRE(1,11), M. FERRERO(1,11),               *
 *  J. BAIMA(1,11), E. ALBANESE(1,11), M.F. PEINTINGER(12), R. BAST(13),       *
 *  B. KIRTMAN(15), V. LACIVITA(1,11), R. DEMICHELIS(1,16)                     *
 *  G. BRANDEBURG(17), S. SALUSTRO(1,11), G. SANSONE(1,11)                     *
 *  M.T. RUGGIERO(18), L.E. DAGA(1), L. DONA'(1), A. COSSARD(1)                *
 *                                                                             *
 * (1) THEORETICAL CHEMISTRY GROUP - UNIVERSITA' DI TORINO - TORINO (ITALY)    *
 * (2) SCIENTIFIC COMPUTING DEPARTMENT - STFC DARESBURY (UK)                   *
 * (3) UNIVERSIDAD AUTONOMA DEL ESTADO DE MORELOS - CUERNAVACA (MEXICO)        *
 * (4) UNIVERSITE' DE LORRAINE - NANCY (FRANCE)                                *
 * (5) UNIVERSITAET STUTTGART- STUTTGART (GERMANY)                             *
 * (6) IMPERIAL COLLEGE - LONDON (UK)                                          *
 * (7) SCIENTIFIC COMPUTING DEPARTMENT - STFC RAL (UK)                         *
 * (8) UPMC - SORBONNE UNIVERSITES - PARIS (FRANCE)                            *
 * (9) UNIVERSIDAD DE BARCELONA - BARCELONA (SPAIN)                            *
 *(10) UNIVERSITA' DI NAPOLI "FEDERICO II" - NAPOLI (ITALY)                    *
 *(11) NIS - NANOSTRUCTURED INTERFACES AND SURFACES - TORINO (ITALY)           *
 *(12) MPI FUER CHEMISCHE ENERGIEKONVERSION - MUELHEIM AN DER RUHR (GERMANY)   *
 *(13) UNIVERSITY OF TROMSO - TROMSO (NORWAY)                                  *
 *(14) UNIVERSITE' DE PAU ET DES PAYS DE L'ADOUR - PAU (FRANCE)                *
 *(15) UNIVERSITY OF CALIFORNIA SANTA BARBARA - SANTA BARBARA (USA)            *
 *(16) CURTIN UNIVERSITY - PERTH (AUSTRALIA)                                   *
 *(17) UNIVERSITY COLLEGE LONDON - LONDON (UK)                                 *
 *(18) UNIVERSITY OF VERMONT - BURLINGTON (USA)                                *
 *                                                                             *
 *******************************************************************************
 EEEEEEEEEE STARTING  DATE 19 02 2026 TIME 19:17:34.7
 cof-1_z43_L087_incl                                                             

 CRYSTAL CALCULATION
 (INPUT ACCORDING TO THE INTERNATIONAL TABLES FOR X-RAY CRYSTALLOGRAPHY)
 CRYSTAL FAMILY                       :  TRICLINIC   
 CRYSTAL CLASS  (GROTH - 1921)        :  TRICLINIC PEDIAL                     

 SPACE GROUP (NONCENTROSYMMETRIC)     :  P 1             

 LATTICE PARAMETERS  (ANGSTROMS AND DEGREES) - CONVENTIONAL CELL
        A           B           C        ALPHA        BETA       GAMMA
    15.02361    15.02392     9.68179    39.10840    89.99998   119.99596


 NUMBER OF IRREDUCIBLE ATOMS IN THE CONVENTIONAL CELL:   42

 INPUT COORDINATES

 ATOM AT. N.              COORDINATES
   1   5     4.466608600000E-01 -1.067550900000E-01  5.011048700000E-01
   2   5     6.057165200000E-01  5.230456000000E-02  5.011048800000E-01
   3   5     4.474350500000E-01  5.384444000000E-02  4.987692800000E-01
   4   5     6.023557000000E-02  2.795599000000E-01  5.011048800000E-01
   5   5     2.193435400000E-01  2.795391400000E-01  5.011048700000E-01
   6   5     2.201022800000E-01  4.402354100000E-01  4.987692900000E-01
   7   1     7.376378500000E-01 -2.191512000000E-02  4.962627200000E-01
   8   1    -6.852445000000E-02  3.607019000000E-01  4.955222700000E-01
   9   1     7.378504200000E-01  2.637968700000E-01  4.954083100000E-01
  10   1    -6.839429000000E-02  7.539043000000E-02  4.954367300000E-01
  11   1     5.231393100000E-01 -2.388161900000E-01  5.037253500000E-01
  12   1     1.407898200000E-01  5.671233300000E-01  5.044658400000E-01
  13   1     2.376920900000E-01 -2.393400200000E-01  5.045798700000E-01
  14   1     4.261438400000E-01  5.669764000000E-01  5.045512600000E-01
  15   1     5.256669500000E-01  2.632090100000E-01  4.962627600000E-01
  16   1     1.438028700000E-01  7.525783000000E-02  4.955222200000E-01
  17   1     2.407196000000E-01 -2.145225000000E-02  4.954082200000E-01
  18   1     4.291603800000E-01  3.606633600000E-01  4.954368200000E-01
  19   6     7.256775800000E-01  1.134844300000E-01  4.986838200000E-01
  20   6     7.810453600000E-01  6.186449000000E-02  4.963766700000E-01
  21   6    -1.119892000000E-01  2.763970300000E-01  4.961773600000E-01
  22   6     7.808754300000E-01  2.225051600000E-01  4.967755000000E-01
  23   6    -1.116376800000E-01  1.160883800000E-01  4.952373500000E-01
  24   6    -5.755028000000E-02  2.228296300000E-01  4.968039600000E-01
  25   6     3.869532800000E-01 -2.260377800000E-01  5.013042700000E-01
  26   6     4.393227500000E-01 -2.821883900000E-01  5.036113800000E-01
  27   6     2.248771100000E-01  6.107859000000E-01  5.038107700000E-01
  28   6     2.785653800000E-01 -2.818756500000E-01  5.032126500000E-01
  29   6     3.854820200000E-01  6.101196900000E-01  5.047506800000E-01
  30   6     2.782152100000E-01  5.565325700000E-01  5.031841300000E-01
  31   6     3.878321400000E-01  1.134152900000E-01  4.986838200000E-01
  32   6     4.417664500000E-01  2.227046100000E-01  4.963767100000E-01
  33   6     2.274460600000E-01  1.153838000000E-01  4.961773100000E-01
  34   6     2.807106000000E-01  6.150300000000E-02  4.967754400000E-01
  35   6     3.886789200000E-01  2.769363700000E-01  4.952374100000E-01
  36   6     2.803738100000E-01  2.227522300000E-01  4.968039600000E-01
  37   8     3.942866100000E-01 -5.256335000000E-02  4.993958900000E-01
  38   8     5.515892600000E-01 -5.584072000000E-02  5.043234500000E-01
  39   8     5.540647700000E-01  1.080604800000E-01  4.968894200000E-01
  40   8     1.138744300000E-01  3.867171100000E-01  4.993959200000E-01
  41   8     1.122515400000E-01  2.244765700000E-01  5.043234400000E-01
  42   8     2.736491900000E-01  3.883724500000E-01  4.968894000000E-01

 *******************************************************************************

 << INFORMATION >>: FROM NOW ON, ALL COORDINATES REFER TO THE PRIMITIVE CELL

 *******************************************************************************

 LATTICE PARAMETERS  (ANGSTROMS AND DEGREES) - PRIMITIVE CELL
       A          B          C        ALPHA      BETA     GAMMA        VOLUME
   15.02361   15.02392    9.68179    39.10840  89.99998 119.99596    840.580697

 COORDINATES OF THE EQUIVALENT ATOMS (FRACTIONAL UNITS)

 N. ATOM EQUIV AT. N.          X                  Y                  Z

   1   1   1    5 B     4.46660860000E-01 -1.06755090000E-01 -4.98895130000E-01

   2   2   1    5 B    -3.94283480000E-01  5.23045600000E-02 -4.98895120000E-01

   3   3   1    5 B     4.47435050000E-01  5.38444400000E-02  4.98769280000E-01

   4   4   1    5 B     6.02355700000E-02  2.79559900000E-01 -4.98895120000E-01

   5   5   1    5 B     2.19343540000E-01  2.79539140000E-01 -4.98895130000E-01

   6   6   1    5 B     2.20102280000E-01  4.40235410000E-01  4.98769290000E-01

   7   7   1    1 H    -2.62362150000E-01 -2.19151200000E-02  4.96262720000E-01

   8   8   1    1 H    -6.85244500000E-02  3.60701900000E-01  4.95522270000E-01

   9   9   1    1 H    -2.62149580000E-01  2.63796870000E-01  4.95408310000E-01

  10  10   1    1 H    -6.83942900000E-02  7.53904300000E-02  4.95436730000E-01

  11  11   1    1 H    -4.76860690000E-01 -2.38816190000E-01 -4.96274650000E-01

  12  12   1    1 H     1.40789820000E-01 -4.32876670000E-01 -4.95534160000E-01

  13  13   1    1 H     2.37692090000E-01 -2.39340020000E-01 -4.95420130000E-01

  14  14   1    1 H     4.26143840000E-01 -4.33023600000E-01 -4.95448740000E-01

  15  15   1    1 H    -4.74333050000E-01  2.63209010000E-01  4.96262760000E-01

  16  16   1    1 H     1.43802870000E-01  7.52578300000E-02  4.95522220000E-01

  17  17   1    1 H     2.40719600000E-01 -2.14522500000E-02  4.95408220000E-01

  18  18   1    1 H     4.29160380000E-01  3.60663360000E-01  4.95436820000E-01

  19  19   1    6 C    -2.74322420000E-01  1.13484430000E-01  4.98683820000E-01

  20  20   1    6 C    -2.18954640000E-01  6.18644900000E-02  4.96376670000E-01

  21  21   1    6 C    -1.11989200000E-01  2.76397030000E-01  4.96177360000E-01

  22  22   1    6 C    -2.19124570000E-01  2.22505160000E-01  4.96775500000E-01

  23  23   1    6 C    -1.11637680000E-01  1.16088380000E-01  4.95237350000E-01

  24  24   1    6 C    -5.75502800000E-02  2.22829630000E-01  4.96803960000E-01

  25  25   1    6 C     3.86953280000E-01 -2.26037780000E-01 -4.98695730000E-01

  26  26   1    6 C     4.39322750000E-01 -2.82188390000E-01 -4.96388620000E-01

  27  27   1    6 C     2.24877110000E-01 -3.89214100000E-01 -4.96189230000E-01

  28  28   1    6 C     2.78565380000E-01 -2.81875650000E-01 -4.96787350000E-01

  29  29   1    6 C     3.85482020000E-01 -3.89880310000E-01 -4.95249320000E-01

  30  30   1    6 C     2.78215210000E-01 -4.43467430000E-01 -4.96815870000E-01

  31  31   1    6 C     3.87832140000E-01  1.13415290000E-01  4.98683820000E-01

  32  32   1    6 C     4.41766450000E-01  2.22704610000E-01  4.96376710000E-01

  33  33   1    6 C     2.27446060000E-01  1.15383800000E-01  4.96177310000E-01

  34  34   1    6 C     2.80710600000E-01  6.15030000000E-02  4.96775440000E-01

  35  35   1    6 C     3.88678920000E-01  2.76936370000E-01  4.95237410000E-01

  36  36   1    6 C     2.80373810000E-01  2.22752230000E-01  4.96803960000E-01

  37  37   1    8 O     3.94286610000E-01 -5.25633500000E-02  4.99395890000E-01

  38  38   1    8 O    -4.48410740000E-01 -5.58407200000E-02 -4.95676550000E-01

  39  39   1    8 O    -4.45935230000E-01  1.08060480000E-01  4.96889420000E-01

  40  40   1    8 O     1.13874430000E-01  3.86717110000E-01  4.99395920000E-01

  41  41   1    8 O     1.12251540000E-01  2.24476570000E-01 -4.95676560000E-01

  42  42   1    8 O     2.73649190000E-01  3.88372450000E-01  4.96889400000E-01

 NUMBER OF SYMMETRY OPERATORS         :    1
 *******************************************************************************
 * GEOMETRY EDITING - INPUT COORDINATES ARE GIVEN IN ANGSTROM         
 *******************************************************************************

 GCALCO - MAX INDICES DIRECT LATTICE VECTOR    10    15    21
 NO.OF VECTORS CREATED 6999 STARS 3500 RMAX   221.73512 BOHR

 GEOMETRY FOR WAVE FUNCTION - DIMENSIONALITY OF THE SYSTEM    3
 (NON PERIODIC DIRECTION: LATTICE PARAMETER FORMALLY SET TO 500)
 *******************************************************************************
 LATTICE PARAMETERS (ANGSTROMS AND DEGREES) - BOHR = 0.5291772083 ANGSTROM
 PRIMITIVE CELL - CENTRING CODE 1/0 VOLUME=   840.580697 - DENSITY  0.771 g/cm^3
         A              B              C           ALPHA      BETA       GAMMA 
    15.02361100    15.02391600     9.68178700    39.108396  89.999975 119.995964
 *******************************************************************************
 ATOMS IN THE ASYMMETRIC UNIT   42 - ATOMS IN THE UNIT CELL:   42
     ATOM                 X/A                 Y/B                 Z/C    
 *******************************************************************************
      1 T   5 B     4.466608600000E-01 -1.067550900000E-01 -4.988951300000E-01
      2 T   5 B    -3.942834800000E-01  5.230456000000E-02 -4.988951200000E-01
      3 T   5 B     4.474350500000E-01  5.384444000000E-02  4.987692800000E-01
      4 T   5 B     6.023557000000E-02  2.795599000000E-01 -4.988951200000E-01
      5 T   5 B     2.193435400000E-01  2.795391400000E-01 -4.988951300000E-01
      6 T   5 B     2.201022800000E-01  4.402354100000E-01  4.987692900000E-01
      7 T   1 H    -2.623621500000E-01 -2.191512000000E-02  4.962627200000E-01
      8 T   1 H    -6.852445000000E-02  3.607019000000E-01  4.955222700000E-01
      9 T   1 H    -2.621495800000E-01  2.637968700000E-01  4.954083100000E-01
     10 T   1 H    -6.839429000000E-02  7.539043000000E-02  4.954367300000E-01
     11 T   1 H    -4.768606900000E-01 -2.388161900000E-01 -4.962746500000E-01
     12 T   1 H     1.407898200000E-01 -4.328766700000E-01 -4.955341600000E-01
     13 T   1 H     2.376920900000E-01 -2.393400200000E-01 -4.954201300000E-01
     14 T   1 H     4.261438400000E-01 -4.330236000000E-01 -4.954487400000E-01
     15 T   1 H    -4.743330500000E-01  2.632090100000E-01  4.962627600000E-01
     16 T   1 H     1.438028700000E-01  7.525783000000E-02  4.955222200000E-01
     17 T   1 H     2.407196000000E-01 -2.145225000000E-02  4.954082200000E-01
     18 T   1 H     4.291603800000E-01  3.606633600000E-01  4.954368200000E-01
     19 T   6 C    -2.743224200000E-01  1.134844300000E-01  4.986838200000E-01
     20 T   6 C    -2.189546400000E-01  6.186449000000E-02  4.963766700000E-01
     21 T   6 C    -1.119892000000E-01  2.763970300000E-01  4.961773600000E-01
     22 T   6 C    -2.191245700000E-01  2.225051600000E-01  4.967755000000E-01
     23 T   6 C    -1.116376800000E-01  1.160883800000E-01  4.952373500000E-01
     24 T   6 C    -5.755028000000E-02  2.228296300000E-01  4.968039600000E-01
     25 T   6 C     3.869532800000E-01 -2.260377800000E-01 -4.986957300000E-01
     26 T   6 C     4.393227500000E-01 -2.821883900000E-01 -4.963886200000E-01
     27 T   6 C     2.248771100000E-01 -3.892141000000E-01 -4.961892300000E-01
     28 T   6 C     2.785653800000E-01 -2.818756500000E-01 -4.967873500000E-01
     29 T   6 C     3.854820200000E-01 -3.898803100000E-01 -4.952493200000E-01
     30 T   6 C     2.782152100000E-01 -4.434674300000E-01 -4.968158700000E-01
     31 T   6 C     3.878321400000E-01  1.134152900000E-01  4.986838200000E-01
     32 T   6 C     4.417664500000E-01  2.227046100000E-01  4.963767100000E-01
     33 T   6 C     2.274460600000E-01  1.153838000000E-01  4.961773100000E-01
     34 T   6 C     2.807106000000E-01  6.150300000000E-02  4.967754400000E-01
     35 T   6 C     3.886789200000E-01  2.769363700000E-01  4.952374100000E-01
     36 T   6 C     2.803738100000E-01  2.227522300000E-01  4.968039600000E-01
     37 T   8 O     3.942866100000E-01 -5.256335000000E-02  4.993958900000E-01
     38 T   8 O    -4.484107400000E-01 -5.584072000000E-02 -4.956765500000E-01
     39 T   8 O    -4.459352300000E-01  1.080604800000E-01  4.968894200000E-01
     40 T   8 O     1.138744300000E-01  3.867171100000E-01  4.993959200000E-01
     41 T   8 O     1.122515400000E-01  2.244765700000E-01 -4.956765600000E-01
     42 T   8 O     2.736491900000E-01  3.883724500000E-01  4.968894000000E-01

 T = ATOM BELONGING TO THE ASYMMETRIC UNIT

 ****    1 SYMMOPS - TRANSLATORS IN FRACTIONAL UNITS
 **** MATRICES AND TRANSLATORS IN THE CRYSTALLOGRAPHIC REFERENCE FRAME
   V INV                    ROTATION MATRICES                   TRANSLATORS
   1   1  1.00 -0.00  0.00  0.00  1.00  0.00 -0.00  0.00  1.00  0.00  0.00  0.00

 DIRECT LATTICE VECTORS CARTESIAN COMPONENTS (ANGSTROM)
          X                    Y                    Z
   0.130113578931E+02  -0.751088897922E+01   0.000000000000E+00
   0.000000000000E+00   0.150239160000E+02   0.000000000000E+00
   0.433671315786E+01   0.751262116450E+01   0.430005136463E+01


 CARTESIAN COORDINATES - PRIMITIVE CELL
 *******************************************************************************
 *      ATOM          X(ANGSTROM)         Y(ANGSTROM)         Z(ANGSTROM)
 *******************************************************************************
    1     5 B    -6.886139262374E-01 -1.195414912564E+00 -6.445326049199E+00
    2     5 B     1.380916234306E+00 -3.654206248652E-04 -6.445326006198E+00
    3     5 B    -6.898878664420E-01  1.194978150520E+00  6.444784887734E+00
    4     5 B    -1.379818472132E+00 -3.482616814236E-04 -2.145274641565E+00
    5     5 B     6.903922258085E-01 -1.195702531682E+00 -2.145274684565E+00
    6     5 B     6.901357229791E-01  1.195339590668E+00 -2.155317798532E+00
    7     1 H    -1.261538763664E+00  5.369555872415E+00  2.133955186353E+00
    8     1 H    -3.079371352911E+00  2.143884511533E+00 -2.169280151314E+00
    9     1 H    -1.262478270406E+00 -5.369862637951E+00  2.130281179466E+00
   10     1 H    -3.078048757012E+00 -2.144231294507E+00 -2.169647977707E+00
   11     1 H    -4.020092749429E+00  3.777991048650E+00  2.166044878668E+00
   12     1 H    -3.171227761203E-01  3.740196145985E+00 -2.130822340930E+00
   13     1 H     5.280915012757E+00 -1.590385844601E+00  2.169719358560E+00
   14     1 H     3.396090946360E+00  1.595368046114E+00 -2.130455030543E+00
   15     1 H    -4.019567833009E+00 -3.778588951662E+00  2.133955358355E+00
   16     1 H    -3.167048187535E-01 -3.739370522251E+00 -2.169280366316E+00
   17     1 H     5.280532213658E+00  1.591499285909E+00  2.130280792462E+00
   18     1 H     3.395813516024E+00 -1.595391968438E+00 -2.169647590703E+00
   19     6 C    -5.743371658762E+00 -8.127592186675E-04 -2.155685323922E+00
   20     6 C    -5.032967105200E+00 -1.209540394229E+00 -2.165606187428E+00
   21     6 C    -3.642065833471E+00  1.208675581020E+00 -2.166463230665E+00
   22     6 C    -5.033448513938E+00  1.208184122098E+00 -2.163891197942E+00
   23     6 C    -3.641568634680E+00 -1.209490277368E+00 -2.170505321948E+00
   24     6 C    -2.931024177575E+00 -2.938127649415E-04 -2.163768818480E+00
   25     6 C     2.872087279914E+00  4.975068158384E+00 -2.144417254323E+00
   26     6 C     3.563490471048E+00  3.755457278740E+00 -2.134496562819E+00
   27     6 C     7.741261976386E-01  3.759687337510E+00 -2.133639175578E+00
   28     6 C     1.470089618394E+00  4.964591109453E+00 -2.136211122300E+00
   29     6 C     2.867890281095E+00  2.550453793663E+00 -2.129597514300E+00
   30     6 C     1.465409748141E+00  2.539265608481E+00 -2.136333759765E+00
   31     6 C     2.872158301918E+00 -4.975220900013E+00 -2.155685323922E+00
   32     6 C     3.563911637749E+00 -3.755694394631E+00 -2.165606015426E+00
   33     6 C     7.744475990760E-01 -3.759834590511E+00 -2.166463445668E+00
   34     6 C     1.470085510266E+00 -4.964905726096E+00 -2.163891455945E+00
   35     6 C     2.868229967960E+00 -2.550745573141E+00 -2.170505063945E+00
   36     6 C     1.465827098101E+00 -2.539566987256E+00 -2.163768818480E+00
   37     8 O    -1.378703812908E+00  2.159676212702E-04  6.447479342920E+00
   38     8 O     6.906050975440E-01 -1.194407285431E+00 -6.431485989877E+00
   39     8 O     6.893571689175E-01  1.194508716506E+00  6.436701393176E+00
   40     8 O    -6.893153370148E-01  1.193858368656E+00 -2.152623257345E+00
   41     8 O    -6.890620988062E-01 -1.194421938443E+00 -2.131434668245E+00
   42     8 O     1.378701189358E+00 -1.529614748584E-04 -2.163401422091E+00

 *******************************************************************************
 STARTING BASIS SET HANDLING 
 *******************************************************************************

 Loading internal basis set: SOLDEF2MSVP         

 Please cite in your publication:
 L. Dona', J. G. Brandenburg and B. Civalleri, J. Chem. Phys., 151, 121101 (2019
 )                                                                              
                                                                                
                    

 *******************************************************************************
 LOCAL ATOMIC FUNCTIONS BASIS SET
 *******************************************************************************
   ATOM   X(AU)   Y(AU)   Z(AU)  N. TYPE  EXPONENT  S COEF   P COEF   D/F/G COEF
 *******************************************************************************
   1 B   -1.301  -2.259 -12.180
                                  1 S  
                                         2.410E+03 1.755E-03 0.000E+00 0.000E+00
                                         3.619E+02 1.344E-02 0.000E+00 0.000E+00
                                         8.231E+01 6.637E-02 0.000E+00 0.000E+00
                                         2.311E+01 2.303E-01 0.000E+00 0.000E+00
                                         7.252E+00 5.150E-01 0.000E+00 0.000E+00
                                  2 S  
                                         2.367E+00 1.000E+00 0.000E+00 0.000E+00
                                  3 S  
                                         5.533E-01 1.000E+00 0.000E+00 0.000E+00
                                  4 S  
                                         1.716E-01 1.000E+00 0.000E+00 0.000E+00
                           5-     7 P  
                                         6.002E+00 0.000E+00-3.555E-02 0.000E+00
                                         1.240E+00 0.000E+00-1.983E-01 0.000E+00
                                         3.367E-01 0.000E+00-5.048E-01 0.000E+00
                           8-    10 P  
                                         1.256E-01 0.000E+00 1.000E+00 0.000E+00
                          11-    15 D  
                                         8.880E-01 0.000E+00 0.000E+00 1.000E+00
   2 B    2.610  -0.001 -12.180
   3 B   -1.304   2.258  12.179
   4 B   -2.607  -0.001  -4.054
   5 B    1.305  -2.260  -4.054
   6 B    1.304   2.259  -4.073
   7 H   -2.384  10.147   4.033
                                 91 S  
                                         1.874E+01 1.968E-02 0.000E+00 0.000E+00
                                         2.826E+00 1.380E-01 0.000E+00 0.000E+00
                                         6.401E-01 4.783E-01 0.000E+00 0.000E+00
                                 92 S  
                                         1.756E-01 1.000E+00 0.000E+00 0.000E+00
   8 H   -5.819   4.051  -4.099
   9 H   -2.386 -10.148   4.026
  10 H   -5.817  -4.052  -4.100
  11 H   -7.597   7.139   4.093
  12 H   -0.599   7.068  -4.027
  13 H    9.979  -3.005   4.100
  14 H    6.418   3.015  -4.026
  15 H   -7.596  -7.140   4.033
  16 H   -0.598  -7.066  -4.099
  17 H    9.979   3.007   4.026
  18 H    6.417  -3.015  -4.100
  19 C  -10.853  -0.002  -4.074
                                115 S  
                                         3.624E+03 1.634E-03 0.000E+00 0.000E+00
                                         5.440E+02 1.252E-02 0.000E+00 0.000E+00
                                         1.237E+02 6.211E-02 0.000E+00 0.000E+00
                                         3.476E+01 2.182E-01 0.000E+00 0.000E+00
                                         1.093E+01 4.980E-01 0.000E+00 0.000E+00
                                116 S  
                                         3.574E+00 1.000E+00 0.000E+00 0.000E+00
                                117 S  
                                         7.742E-01 1.000E+00 0.000E+00 0.000E+00
                                118 S  
                                         2.330E-01 1.000E+00 0.000E+00 0.000E+00
                         119-   121 P  
                                         9.443E+00 0.000E+00 3.790E-02 0.000E+00
                                         2.002E+00 0.000E+00 2.082E-01 0.000E+00
                                         5.463E-01 0.000E+00 5.047E-01 0.000E+00
                         122-   124 P  
                                         1.820E-01 0.000E+00 1.000E+00 0.000E+00
                         125-   129 D  
                                         8.880E-01 0.000E+00 0.000E+00 1.000E+00
  20 C   -9.511  -2.286  -4.092
  21 C   -6.883   2.284  -4.094
  22 C   -9.512   2.283  -4.089
  23 C   -6.882  -2.286  -4.102
  24 C   -5.539  -0.001  -4.089
  25 C    5.427   9.402  -4.052
  26 C    6.734   7.097  -4.034
  27 C    1.463   7.105  -4.032
  28 C    2.778   9.382  -4.037
  29 C    5.420   4.820  -4.024
  30 C    2.769   4.799  -4.037
  31 C    5.428  -9.402  -4.074
  32 C    6.735  -7.097  -4.092
  33 C    1.463  -7.105  -4.094
  34 C    2.778  -9.382  -4.089
  35 C    5.420  -4.820  -4.102
  36 C    2.770  -4.799  -4.089
  37 O   -2.605   0.000  12.184
                                385 S  
                                         6.773E+03 1.727E-03 0.000E+00 0.000E+00
                                         1.017E+03 1.325E-02 0.000E+00 0.000E+00
                                         2.313E+02 6.603E-02 0.000E+00 0.000E+00
                                         6.501E+01 2.353E-01 0.000E+00 0.000E+00
                                         2.050E+01 5.498E-01 0.000E+00 0.000E+00
                                386 S  
                                         6.716E+00 1.000E+00 0.000E+00 0.000E+00
                                387 S  
                                         1.147E+00 1.000E+00 0.000E+00 0.000E+00
                                388 S  
                                         3.342E-01 1.000E+00 0.000E+00 0.000E+00
                         389-   391 P  
                                         1.769E+01 0.000E+00 4.359E-02 0.000E+00
                                         3.854E+00 0.000E+00 2.318E-01 0.000E+00
                                         1.047E+00 0.000E+00 5.146E-01 0.000E+00
                         392-   394 P  
                                         2.759E-01 0.000E+00 1.000E+00 0.000E+00
                         395-   399 D  
                                         8.000E-01 0.000E+00 0.000E+00 1.000E+00
  38 O    1.305  -2.257 -12.154
  39 O    1.303   2.257  12.164
  40 O   -1.303   2.256  -4.068
  41 O   -1.302  -2.257  -4.028
  42 O    2.605  -0.000  -4.088

 *******************************************************************************
 FINISHED BASIS SET HANDLING 
 *******************************************************************************

 INFORMATION **** SET_MPP **** PCRYSTAL CALCULATION
 INFORMATION **** READM2 **** NEW DEFAULT: FOCK/KS MATRIX MIXING SET TO 30 %
 INFORMATION **** READM2 **** NEW DEFAULT: FULL DIRECT SCF MODE
 INFORMATION **** READM2 **** NEW DEFAULT: COULOMB BIPOLAR BUFFER SET TO 32 Mb
 INFORMATION **** READM2 **** NEW DEFAULT: EXCHANGE BIPOLAR BUFFER SET TO 32 Mb

 *******************************************************************************
 NEW DEFAULT: DFT INTEGRATION GRID INCREASED TO XLGRID
 NEW DEFAULT: DIIS ACCELERATOR ACTIVE
 USE KEYWORD NODIIS TO TURN IT OFF
 *******************************************************************************

 WARNING **** RDDFTP **** HSEsol-HJS ACTIVE
 RANGE SEPARATION - OMEGA:   0.110000000000000     
 WARNING **** RDDFTP **** HSEsol-3c has to be combined with sol-def2-mSVP basis set
 *******************************************************************************
 N. OF ATOMS PER CELL        42  COULOMB OVERLAP TOL         (T1) 10**   -6
 NUMBER OF SHELLS           234  COULOMB PENETRATION TOL     (T2) 10**   -6
 NUMBER OF AO               474  EXCHANGE OVERLAP TOL        (T3) 10**   -6
 N. OF ELECTRONS PER CELL   198  EXCHANGE PSEUDO OVP (F(G))  (T4) 10**   -6
 CORE ELECTRONS PER CELL     60  EXCHANGE PSEUDO OVP (P(G))  (T5) 10**  -12
 N. OF SYMMETRY OPERATORS     1  POLE ORDER IN MONO ZONE                  4
 *******************************************************************************
 TYPE OF CALCULATION :  RESTRICTED CLOSED SHELL
 KOHN-SHAM HAMILTONIAN

 (EXCHANGE)[CORRELATION] FUNCTIONAL:(HSEsol GGA)[PBEsol]

 RANGE-SEPARATED HYBRID FUNCTIONAL 
 OMEGA (SHORT-RANGE)[LONG-RANGE]:(    0.1100)[    0.0000]

 HYBRID EXCHANGE - PERCENTAGE OF FOCK EXCHANGE    25.0000

 CAPPA:IS1  2;IS2  2;IS3  8; K PTS MONK NET  20; SYMMOPS:K SPACE   2;G SPACE   1

 *******************************************************************************
 MAX NUMBER OF SCF CYCLES      50  CONVERGENCE ON DELTAP        10**-16
 WEIGHT OF F(I) IN F(I+1)      30% CONVERGENCE ON ENERGY        10**- 6
 SHRINK. FACT.(MONKH.)    2  2  8  NUMBER OF K POINTS IN THE IBZ     20
 SHRINKING FACTOR(GILAT NET)    8  NUMBER OF K POINTS(GILAT NET)   1028
 *******************************************************************************
 *** K POINTS COORDINATES (OBLIQUE COORDINATES IN UNITS OF IS =  2)
   1-R(  0  0  0)   2-R(  1  0  0)   3-R(  0  1  0)   4-R(  1  1  0)
   5-C(  0  0  1)   6-C(  1  0  1)   7-C(  0  1  1)   8-C(  1  1  1)
   9-C(  0  0  2)  10-C(  1  0  2)  11-C(  0  1  2)  12-C(  1  1  2)
  13-C(  0  0  3)  14-C(  1  0  3)  15-C(  0  1  3)  16-C(  1  1  3)
  17-R(  0  0  4)  18-R(  1  0  4)  19-R(  0  1  4)  20-R(  1  1  4)

 DIRECT LATTICE VECTORS COMPON. (A.U.)     RECIP. LATTICE VECTORS COMPON. (A.U.) 
        X            Y            Z              X            Y            Z
   24.5879030  -14.1935232    0.0000000      0.2555397    0.0000000   -0.2577184
    0.0000000   28.3910867    0.0000000      0.1277517    0.2213084   -0.5154888
    8.1952002   14.1967965    8.1259194      0.0000000    0.0000000    0.7732276

 DISK SPACE FOR EIGENVECTORS (FTN 10)     7189632 REALS

 SYMMETRY ADAPTION OF THE BLOCH FUNCTIONS DISABLED
 TTTTTTTTTTTTTTTTTTTTTTTTTTTTTT gordsh1     TELAPSE        0.04 TCPU        0.04

 MATRIX SIZE: P(G)  272006, F(G)   54531, P(G) IRR  136882, F(G) IRR   55011
 MAX G-VECTOR INDEX FOR 1- AND 2-ELECTRON INTEGRALS  57

 TTTTTTTTTTTTTTTTTTTTTTTTTTTTTT INPUT       TELAPSE        0.39 TCPU        0.39

 NEIGHBORS OF THE NON-EQUIVALENT ATOMS

 N = NUMBER OF NEIGHBORS AT DISTANCE R
    ATOM  N     R/ANG      R/AU   NEIGHBORS (ATOM LABELS AND CELL INDICES)
   1 B    1     1.3791     2.6061   37 O    1 2-3
   1 B    1     1.3793     2.6065   38 O    0 0 0
   1 B    1     1.5503     2.9297   25 C    0 0-1
   1 B    1     2.3895     4.5155    3 B    1 2-3
   1 B    1     2.3898     4.5160    2 B    0 0 0
   1 B    1     2.5632     4.8437   26 C    0 0-1

   2 B    1     1.3793     2.6065   39 O    1 2-3
   2 B    1     1.3793     2.6065   38 O    0 0 0
   2 B    1     1.5504     2.9298   19 C    1 1-1
   2 B    1     2.3895     4.5156    3 B    1 2-3
   2 B    1     2.3898     4.5160    1 B    0 0 0
   2 B    1     2.5634     4.8440   22 C    1 1-1

   3 B    1     1.3791     2.6061   37 O    0 0 0
   3 B    1     1.3793     2.6064   39 O    0 0 0
   3 B    1     1.5502     2.9294   31 C   -1-1 2
   3 B    1     2.3895     4.5155    1 B   -1-2 3
   3 B    1     2.3895     4.5156    2 B   -1-2 3
   3 B    1     2.5629     4.8433   32 C   -1-1 2

   4 B    1     1.3795     2.6068   40 O    0 0 0
   4 B    1     1.3795     2.6070   41 O    0 0 0
   4 B    1     1.5513     2.9316   24 C    0 0 0
   4 B    1     2.3905     4.5174    6 B    0 0 0
   4 B    1     2.3905     4.5175    5 B    0 0 0
   4 B    1     2.5648     4.8468   23 C    0 0 0

   5 B    1     1.3795     2.6069   41 O    0 0 0
   5 B    1     1.3797     2.6072   42 O    0 0 0
   5 B    1     1.5516     2.9322   36 C    0 0 0
   5 B    1     2.3905     4.5175    4 B    0 0 0
   5 B    1     2.3911     4.5185    6 B    0 0 0
   5 B    1     2.5651     4.8473   35 C    0 0 0

   6 B    1     1.3795     2.6068   40 O    0 0 0
   6 B    1     1.3796     2.6071   42 O    0 0 0
   6 B    1     1.5516     2.9322   30 C    0 0 0
   6 B    1     2.3905     4.5174    4 B    0 0 0
   6 B    1     2.3911     4.5185    5 B    0 0 0
   6 B    1     2.5651     4.8473   29 C    0 0 0

   7 H    1     1.0913     2.0623   20 C    0 0 1
   7 H    1     2.1472     4.0576   19 C    0 0 1
   7 H    1     2.1680     4.0969   23 C    0 0 1
   7 H    1     2.5202     4.7625   10 H    0 0 1
   7 H    1     2.5676     4.8520   38 O   -1-1 2
   7 H    1     2.7321     5.1630    2 B   -1-1 2

   8 H    1     1.0914     2.0625   21 C    0 0 0
   8 H    1     2.1493     4.0616   24 C    0 0 0
   8 H    1     2.1666     4.0942   22 C    0 0 0
   8 H    1     2.5198     4.7618    9 H    0 1-1
   8 H    1     2.5720     4.8604   40 O    0 0 0
   8 H    1     2.7362     5.1707    4 B    0 0 0

   9 H    1     1.0914     2.0624   22 C    0-1 1
   9 H    1     2.1471     4.0575   19 C    0-1 1
   9 H    1     2.1680     4.0970   21 C    0-1 1
   9 H    1     2.5198     4.7618    8 H    0-1 1
   9 H    1     2.5665     4.8500   39 O    0 0-1
   9 H    1     2.7315     5.1618    2 B   -1-2 2

  10 H    1     1.0915     2.0626   23 C    0 0 0
  10 H    1     2.1490     4.0610   24 C    0 0 0
  10 H    1     2.1669     4.0948   20 C    0 0 0
  10 H    1     2.5202     4.7625    7 H    0 0-1
  10 H    1     2.5712     4.8588   41 O    0 0 0
  10 H    1     2.7351     5.1686    4 B    0 0 0

  11 H    1     1.0913     2.0623   26 C   -1-1 1
  11 H    1     2.1469     4.0571   25 C   -1-1 1
  11 H    1     2.1680     4.0968   29 C   -1-1 1
  11 H    1     2.5198     4.7617   14 H   -1-1 1
  11 H    1     2.5670     4.8510   38 O   -1-1 2
  11 H    1     2.7310     5.1609    1 B   -1-1 2

  12 H    1     1.0914     2.0625   27 C    0 0 0
  12 H    1     2.1493     4.0617   30 C    0 0 0
  12 H    1     2.1664     4.0939   28 C    0 0 0
  12 H    1     2.5192     4.7606   13 H    0 1-1
  12 H    1     2.5735     4.8632   40 O    0 0 0
  12 H    1     2.7371     5.1723    6 B    0 0 0

  13 H    1     1.0914     2.0624   28 C    0-1 1
  13 H    1     2.1475     4.0581   25 C    0-1 1
  13 H    1     2.1679     4.0967   27 C    0-1 1
  13 H    1     2.5192     4.7606   12 H    0-1 1
  13 H    1     2.5675     4.8519   37 O    1 1-1
  13 H    1     2.7328     5.1643    1 B    0-1 2

  14 H    1     1.0914     2.0625   29 C    0 0 0
  14 H    1     2.1491     4.0612   30 C    0 0 0
  14 H    1     2.1666     4.0942   26 C    0 0 0
  14 H    1     2.5198     4.7617   11 H    1 1-1
  14 H    1     2.5723     4.8609   42 O    0 0 0
  14 H    1     2.7355     5.1693    6 B    0 0 0

  15 H    1     1.0914     2.0624   32 C   -1-1 1
  15 H    1     2.1475     4.0582   31 C   -1-1 1
  15 H    1     2.1678     4.0966   35 C   -1-1 1
  15 H    1     2.5200     4.7621   18 H   -1-1 1
  15 H    1     2.5667     4.8503   39 O    0 0-1
  15 H    1     2.7315     5.1618    3 B    0 0-1

  16 H    1     1.0913     2.0623   33 C    0 0 0
  16 H    1     2.1487     4.0605   36 C    0 0 0
  16 H    1     2.1667     4.0945   34 C    0 0 0
  16 H    1     2.5197     4.7616   17 H    0 0-1
  16 H    1     2.5723     4.8610   41 O    0 0 0
  16 H    1     2.7359     5.1701    5 B    0 0 0

  17 H    1     1.0915     2.0626   34 C    0 0 1
  17 H    1     2.1479     4.0589   31 C    0 0 1
  17 H    1     2.1679     4.0968   33 C    0 0 1
  17 H    1     2.5197     4.7616   16 H    0 0 1
  17 H    1     2.5677     4.8522   37 O    1 1-1
  17 H    1     2.7331     5.1648    3 B    1 1-1

  18 H    1     1.0914     2.0624   35 C    0 0 0
  18 H    1     2.1486     4.0602   36 C    0 0 0
  18 H    1     2.1668     4.0947   32 C    0 0 0
  18 H    1     2.5200     4.7621   15 H    1 1-1
  18 H    1     2.5717     4.8598   42 O    0 0 0
  18 H    1     2.7349     5.1682    5 B    0 0 0

  19 C    1     1.4020     2.6495   22 C    0 0 0
  19 C    1     1.4021     2.6495   20 C    0 0 0
  19 C    1     1.5504     2.9298    2 B   -1-1 1
  19 C    1     2.1471     4.0575    9 H    0 1-1
  19 C    1     2.1472     4.0576    7 H    0 0-1
  19 C    1     2.4246     4.5817   21 C    0 0 0

  20 C    1     1.0913     2.0623    7 H    0 0-1
  20 C    1     1.3914     2.6294   23 C    0 0 0
  20 C    1     1.4021     2.6495   19 C    0 0 0
  20 C    1     2.1669     4.0948   10 H    0 0 0
  20 C    1     2.4177     4.5688   22 C    0 0 0
  20 C    1     2.4250     4.5825   24 C    0 0 0

  21 C    1     1.0914     2.0625    8 H    0 0 0
  21 C    1     1.3914     2.6293   22 C    0 0 0
  21 C    1     1.4026     2.6505   24 C    0 0 0
  21 C    1     2.1680     4.0970    9 H    0 1-1
  21 C    1     2.4182     4.5697   23 C    0 0 0
  21 C    1     2.4246     4.5817   19 C    0 0 0

  22 C    1     1.0914     2.0624    9 H    0 1-1
  22 C    1     1.3914     2.6293   21 C    0 0 0
  22 C    1     1.4020     2.6495   19 C    0 0 0
  22 C    1     2.1666     4.0942    8 H    0 0 0
  22 C    1     2.4177     4.5688   20 C    0 0 0
  22 C    1     2.4250     4.5826   24 C    0 0 0

  23 C    1     1.0915     2.0626   10 H    0 0 0
  23 C    1     1.3914     2.6294   20 C    0 0 0
  23 C    1     1.4025     2.6504   24 C    0 0 0
  23 C    1     2.1680     4.0969    7 H    0 0-1
  23 C    1     2.4182     4.5697   21 C    0 0 0
  23 C    1     2.4246     4.5818   19 C    0 0 0

  24 C    1     1.4025     2.6504   23 C    0 0 0
  24 C    1     1.4026     2.6505   21 C    0 0 0
  24 C    1     1.5513     2.9316    4 B    0 0 0
  24 C    1     2.1490     4.0610   10 H    0 0 0
  24 C    1     2.1493     4.0616    8 H    0 0 0
  24 C    1     2.4250     4.5825   20 C    0 0 0

  25 C    1     1.4020     2.6494   26 C    0 0 0
  25 C    1     1.4021     2.6495   28 C    0 0 0
  25 C    1     1.5503     2.9297    1 B    0 0 1
  25 C    1     2.1469     4.0571   11 H    1 1-1
  25 C    1     2.1475     4.0581   13 H    0 1-1
  25 C    1     2.4246     4.5818   27 C    0 0 0

  26 C    1     1.0913     2.0623   11 H    1 1-1
  26 C    1     1.3914     2.6293   29 C    0 0 0
  26 C    1     1.4020     2.6494   25 C    0 0 0
  26 C    1     2.1666     4.0942   14 H    0 0 0
  26 C    1     2.4175     4.5684   28 C    0 0 0
  26 C    1     2.4251     4.5828   30 C    0 0 0

  27 C    1     1.0914     2.0625   12 H    0 0 0
  27 C    1     1.3915     2.6295   28 C    0 0 0
  27 C    1     1.4026     2.6505   30 C    0 0 0
  27 C    1     2.1679     4.0967   13 H    0 1-1
  27 C    1     2.4179     4.5691   29 C    0 0 0
  27 C    1     2.4246     4.5818   25 C    0 0 0

  28 C    1     1.0914     2.0624   13 H    0 1-1
  28 C    1     1.3915     2.6295   27 C    0 0 0
  28 C    1     1.4021     2.6495   25 C    0 0 0
  28 C    1     2.1664     4.0939   12 H    0 0 0
  28 C    1     2.4175     4.5684   26 C    0 0 0
  28 C    1     2.4253     4.5832   30 C    0 0 0

  29 C    1     1.0914     2.0625   14 H    0 0 0
  29 C    1     1.3914     2.6293   26 C    0 0 0
  29 C    1     1.4025     2.6504   30 C    0 0 0
  29 C    1     2.1680     4.0968   11 H    1 1-1
  29 C    1     2.4179     4.5691   27 C    0 0 0
  29 C    1     2.4247     4.5819   25 C    0 0 0

  30 C    1     1.4025     2.6504   29 C    0 0 0
  30 C    1     1.4026     2.6505   27 C    0 0 0
  30 C    1     1.5516     2.9322    6 B    0 0 0
  30 C    1     2.1491     4.0612   14 H    0 0 0
  30 C    1     2.1493     4.0617   12 H    0 0 0
  30 C    1     2.4251     4.5828   26 C    0 0 0

  31 C    1     1.4021     2.6496   32 C    0 0 0
  31 C    1     1.4021     2.6497   34 C    0 0 0
  31 C    1     1.5502     2.9294    3 B    1 1-2
  31 C    1     2.1475     4.0582   15 H    1 1-1
  31 C    1     2.1479     4.0589   17 H    0 0-1
  31 C    1     2.4244     4.5814   33 C    0 0 0

  32 C    1     1.0914     2.0624   15 H    1 1-1
  32 C    1     1.3914     2.6293   35 C    0 0 0
  32 C    1     1.4021     2.6496   31 C    0 0 0
  32 C    1     2.1668     4.0947   18 H    0 0 0
  32 C    1     2.4179     4.5692   34 C    0 0 0
  32 C    1     2.4251     4.5827   36 C    0 0 0

  33 C    1     1.0913     2.0623   16 H    0 0 0
  33 C    1     1.3914     2.6294   34 C    0 0 0
  33 C    1     1.4025     2.6504   36 C    0 0 0
  33 C    1     2.1679     4.0968   17 H    0 0-1
  33 C    1     2.4178     4.5690   35 C    0 0 0
  33 C    1     2.4244     4.5814   31 C    0 0 0

  34 C    1     1.0915     2.0626   17 H    0 0-1
  34 C    1     1.3914     2.6294   33 C    0 0 0
  34 C    1     1.4021     2.6497   31 C    0 0 0
  34 C    1     2.1667     4.0945   16 H    0 0 0
  34 C    1     2.4179     4.5692   32 C    0 0 0
  34 C    1     2.4253     4.5832   36 C    0 0 0

  35 C    1     1.0914     2.0624   18 H    0 0 0
  35 C    1     1.3914     2.6293   32 C    0 0 0
  35 C    1     1.4025     2.6503   36 C    0 0 0
  35 C    1     2.1678     4.0966   15 H    1 1-1
  35 C    1     2.4178     4.5690   33 C    0 0 0
  35 C    1     2.4245     4.5817   31 C    0 0 0

  36 C    1     1.4025     2.6503   35 C    0 0 0
  36 C    1     1.4025     2.6504   33 C    0 0 0
  36 C    1     1.5516     2.9322    5 B    0 0 0
  36 C    1     2.1486     4.0602   18 H    0 0 0
  36 C    1     2.1487     4.0605   16 H    0 0 0
  36 C    1     2.4251     4.5827   32 C    0 0 0

  37 O    1     1.3791     2.6061    1 B   -1-2 3
  37 O    1     1.3791     2.6061    3 B    0 0 0
  37 O    1     2.3880     4.5126   38 O   -1-2 3
  37 O    1     2.3882     4.5130   39 O    0 0 0
  37 O    1     2.5383     4.7966   31 C   -1-1 2
  37 O    1     2.5384     4.7968   25 C   -1-2 2

  38 O    1     1.3793     2.6065    1 B    0 0 0
  38 O    1     1.3793     2.6065    2 B    0 0 0
  38 O    1     2.3880     4.5126   37 O    1 2-3
  38 O    1     2.3882     4.5131   39 O    1 2-3
  38 O    1     2.5391     4.7981   19 C    1 1-1
  38 O    1     2.5395     4.7990   25 C    0 0-1

  39 O    1     1.3793     2.6064    3 B    0 0 0
  39 O    1     1.3793     2.6065    2 B   -1-2 3
  39 O    1     2.3882     4.5130   37 O    0 0 0
  39 O    1     2.3882     4.5131   38 O   -1-2 3
  39 O    1     2.5390     4.7980   19 C    0-1 2
  39 O    1     2.5391     4.7982   31 C   -1-1 2

  40 O    1     1.3795     2.6068    6 B    0 0 0
  40 O    1     1.3795     2.6068    4 B    0 0 0
  40 O    1     2.3880     4.5126   42 O    0 0 0
  40 O    1     2.3884     4.5134   41 O    0 0 0
  40 O    1     2.5400     4.7998   24 C    0 0 0
  40 O    1     2.5403     4.8005   30 C    0 0 0

  41 O    1     1.3795     2.6069    5 B    0 0 0
  41 O    1     1.3795     2.6070    4 B    0 0 0
  41 O    1     2.3881     4.5128   42 O    0 0 0
  41 O    1     2.3884     4.5134   40 O    0 0 0
  41 O    1     2.5404     4.8006   24 C    0 0 0
  41 O    1     2.5405     4.8008   36 C    0 0 0

  42 O    1     1.3796     2.6071    6 B    0 0 0
  42 O    1     1.3797     2.6072    5 B    0 0 0
  42 O    1     2.3880     4.5126   40 O    0 0 0
  42 O    1     2.3881     4.5128   41 O    0 0 0
  42 O    1     2.5409     4.8016   36 C    0 0 0
  42 O    1     2.5410     4.8019   30 C    0 0 0


 SYMMETRY ALLOWED INTERNAL DEGREE(S) OF FREEDOM: 123
 TTTTTTTTTTTTTTTTTTTTTTTTTTTTTT SYMM        TELAPSE        0.39 TCPU        0.39
 TTTTTTTTTTTTTTTTTTTTTTTTTTTTTT INT_SCREEN  TELAPSE        0.42 TCPU        0.42

 DFT PARAMETERS

     ATOM       ELECTRONS   NET CHARGE   R(ANGSTROM)
   1   5  B       5.0000      0.0000     0.89000000
   7   1  H       1.0000      0.0000     1.11000000
  19   6  C       6.0000      0.0000     0.77000000
  37   8  O       8.0000      0.0000     0.74000000

 SIZE OF GRID=    1338866
 TTTTTTTTTTTTTTTTTTTTTTTTTTTTTT MAKE_GRID2  TELAPSE        7.46 TCPU        7.45
 BECKE WEIGHT FUNCTION
 RADSAFE =     2.00
 TOLERANCES - DENSITY:10**- 6; POTENTIAL:10**- 9; GRID WGT:10**-14

 RADIAL INTEGRATION  - INTERVALS (POINTS,UPPER LIMIT):            1( 75,  4.0*R)

 ANGULAR INTEGRATION - INTERVALS (ACCURACY LEVEL [N. POINTS] UPPER LIMIT):
  1(  4[  86]   0.2)  2(  8[ 194]   0.5)  3( 12[ 350]   0.9)  4( 16[ 974]   3.5)
  5( 12[ 350]9999.0)
 TTTTTTTTTTTTTTTTTTTTTTTTTTTTTT INT_CALC    TELAPSE        7.53 TCPU        7.52
 EEEEEEEEEE INT_CALC TERMINATION  DATE 19 02 2026 TIME 19:17:42.2

 *******************************************************************************
 cof-1_z43_L087_incl                                                             
 CRYSTAL - SCF - TYPE OF CALCULATION :  RESTRICTED CLOSED SHELL
 *******************************************************************************

 CAPPA:IS1  2;IS2  2;IS3  8; K PTS MONK NET  20; SYMMOPS:K SPACE   2;G SPACE   1

 TTTTTTTTTTTTTTTTTTTTTTTTTTTTTT SDIK        TELAPSE        8.34 TCPU       19.43

 AAAAAAAAAAAAAAAAAAAAAAAAAAAAAAAAAAAAAAAAAAAAAAAAAAAAAAAAAAAAAAAAAAAAAAAAAAAAAAA
         ATOMIC WAVEFUNCTION(S)


 NUCLEAR CHARGE  5.0  SYMMETRY SPECIES            S    P
 N. ELECTRONS    5.0  NUMBER OF PRIMITIVE GTOS    8    4
                      NUMBER OF CONTRACTED GTOS   4    2
                      NUMBER OF CLOSED SHELLS     2    0
                      OPEN SHELL OCCUPATION       0    1

  ZNUC  SCFIT    TOTAL HF ENERGY   KINETIC ENERGY   VIRIAL THEOREM ACCURACY
   5.0    11    -2.451164084E+01  2.462155050E+01 -1.995536038E+00  1.5E-06

 NUCLEAR CHARGE  1.0  SYMMETRY SPECIES            S
 N. ELECTRONS    1.0  NUMBER OF PRIMITIVE GTOS    4
                      NUMBER OF CONTRACTED GTOS   2
                      NUMBER OF CLOSED SHELLS     0
                      OPEN SHELL OCCUPATION       1

  ZNUC  SCFIT    TOTAL HF ENERGY   KINETIC ENERGY   VIRIAL THEOREM ACCURACY
   1.0     1    -4.977266687E-01  5.190767460E-01 -1.958869132E+00  0.0E+00

 NUCLEAR CHARGE  6.0  SYMMETRY SPECIES            S    P
 N. ELECTRONS    6.0  NUMBER OF PRIMITIVE GTOS    8    4
                      NUMBER OF CONTRACTED GTOS   4    2
                      NUMBER OF CLOSED SHELLS     2    0
                      OPEN SHELL OCCUPATION       0    2

  ZNUC  SCFIT    TOTAL HF ENERGY   KINETIC ENERGY   VIRIAL THEOREM ACCURACY
   6.0     9    -3.766704647E+01  3.775180683E+01 -1.997754800E+00  1.1E-06

 NUCLEAR CHARGE  8.0  SYMMETRY SPECIES            S    P
 N. ELECTRONS    8.0  NUMBER OF PRIMITIVE GTOS    8    4
                      NUMBER OF CONTRACTED GTOS   4    2
                      NUMBER OF CLOSED SHELLS     2    0
                      OPEN SHELL OCCUPATION       0    4

  ZNUC  SCFIT    TOTAL HF ENERGY   KINETIC ENERGY   VIRIAL THEOREM ACCURACY
   8.0    12    -7.477373220E+01  7.477365593E+01 -2.000001020E+00  3.8E-06

 AAAAAAAAAAAAAAAAAAAAAAAAAAAAAAAAAAAAAAAAAAAAAAAAAAAAAAAAAAAAAAAAAAAAAAAAAAAAAAA

 CHARGE NORMALIZATION FACTOR   1.00000000
 TOTAL ATOMIC CHARGES:
   5.0000000   5.0000000   5.0000000   5.0000000   5.0000000   5.0000000
   1.0000000   1.0000000   1.0000000   1.0000000   1.0000000   1.0000000
   1.0000000   1.0000000   1.0000000   1.0000000   1.0000000   1.0000000
   6.0000000   6.0000000   6.0000000   6.0000000   6.0000000   6.0000000
   6.0000000   6.0000000   6.0000000   6.0000000   6.0000000   6.0000000
   6.0000000   6.0000000   6.0000000   6.0000000   6.0000000   6.0000000
   8.0000000   8.0000000   8.0000000   8.0000000   8.0000000   8.0000000
 TTTTTTTTTTTTTTTTTTTTTTTTTTTTTT MOQGAD      TELAPSE        8.43 TCPU       21.51
 TTTTTTTTTTTTTTTTTTTTTTTTTTTTTT SHELLXN     TELAPSE       13.67 TCPU      173.05
 TTTTTTTTTTTTTTTTTTTTTTTTTTTTTT MONMO3      TELAPSE       13.79 TCPU      176.96
 NUMERICALLY INTEGRATED DENSITY    197.9999398527
 TTTTTTTTTTTTTTTTTTTTTTTTTTTTTT NUMDFT      TELAPSE       14.36 TCPU      195.07
 CYC   0 ETOT(AU) -1.295954146193E+03 DETOT -1.30E+03 tst  0.00E+00 PX  1.00E+00
 TTTTTTTTTTTTTTTTTTTTTTTTTTTTTT DIIS        TELAPSE       14.40 TCPU      196.55
 TTTTTTTTTTTTTTTTTTTTTTTTTTTTTT FDIK        TELAPSE       14.93 TCPU      213.46
 INSULATING STATE
 TOP OF VALENCE BANDS -    BAND     99; K    1; EIG -3.1375388E-01 AU
 BOTTOM OF VIRTUAL BANDS - BAND    100; K    1; EIG -1.5637646E-01 AU
 DIRECT ENERGY BAND GAP:   4.2825 eV
 TTTTTTTTTTTTTTTTTTTTTTTTTTTTTT PDIG        TELAPSE       15.26 TCPU      219.63
 CHARGE NORMALIZATION FACTOR   1.00000000
 TOTAL ATOMIC CHARGES:
   4.1639602   4.1637880   4.1640934   4.1636162   4.1633037   4.1635040
   0.7851568   0.7852756   0.7851089   0.7852411   0.7851405   0.7852957
   0.7851316   0.7852606   0.7851134   0.7853089   0.7851077   0.7852703
   6.0434152   6.2652634   6.2652346   6.2651998   6.2651717   6.0427725
   6.0434721   6.2652660   6.2653201   6.2651752   6.2653279   6.0422360
   6.0438068   6.2649650   6.2655483   6.2648892   6.2655190   6.0423338
   8.6921006   8.6922667   8.6921680   8.6925439   8.6925484   8.6927795
 TTTTTTTTTTTTTTTTTTTTTTTTTTTTTT MOQGAD      TELAPSE       15.30 TCPU      219.67
 TTTTTTTTTTTTTTTTTTTTTTTTTTTTTT SHELLXN     TELAPSE       20.13 TCPU      373.51
 TTTTTTTTTTTTTTTTTTTTTTTTTTTTTT MONMO3      TELAPSE       20.25 TCPU      377.43
 NUMERICALLY INTEGRATED DENSITY    197.9999876390
 TTTTTTTTTTTTTTTTTTTTTTTTTTTTTT NUMDFT      TELAPSE       20.84 TCPU      396.25
 CYC   1 ETOT(AU) -1.288809738398E+03 DETOT  7.14E+00 tst  0.00E+00 PX  1.00E+00
 TTTTTTTTTTTTTTTTTTTTTTTTTTTTTT DIIS        TELAPSE       20.89 TCPU      397.90
 DIIS TEST: 0.11171E+01 AT SCF   CYCLE   1 - MIX   30 %
 TTTTTTTTTTTTTTTTTTTTTTTTTTTTTT FDIK        TELAPSE       21.50 TCPU      417.19
 INSULATING STATE
 TOP OF VALENCE BANDS -    BAND     99; K    1; EIG -2.2585786E-01 AU
 BOTTOM OF VIRTUAL BANDS - BAND    100; K    1; EIG -8.0409306E-02 AU
 DIRECT ENERGY BAND GAP:   3.9579 eV
 TTTTTTTTTTTTTTTTTTTTTTTTTTTTTT PDIG        TELAPSE       21.82 TCPU      423.36
 CHARGE NORMALIZATION FACTOR   1.00000000
 TOTAL ATOMIC CHARGES:
   4.7139912   4.7135582   4.7139055   4.7140334   4.7136260   4.7141622
   0.9079827   0.9080677   0.9081111   0.9078409   0.9077977   0.9081198
   0.9077846   0.9080201   0.9080494   0.9079278   0.9080122   0.9080799
   5.8715264   6.1320339   6.1324338   6.1318753   6.1323041   5.8744562
   5.8717062   6.1314704   6.1325531   6.1318793   6.1324631   5.8750046
   5.8716851   6.1320583   6.1321294   6.1322424   6.1319934   5.8744163
   8.3325737   8.3329534   8.3330220   8.3325706   8.3325195   8.3330590
 TTTTTTTTTTTTTTTTTTTTTTTTTTTTTT MOQGAD      TELAPSE       21.86 TCPU      423.40
 TTTTTTTTTTTTTTTTTTTTTTTTTTTTTT SHELLXN     TELAPSE       26.75 TCPU      579.06
 TTTTTTTTTTTTTTTTTTTTTTTTTTTTTT MONMO3      TELAPSE       26.88 TCPU      583.02
 NUMERICALLY INTEGRATED DENSITY    197.9999791350
 TTTTTTTTTTTTTTTTTTTTTTTTTTTTTT NUMDFT      TELAPSE       27.47 TCPU      601.91
 CYC   2 ETOT(AU) -1.289005019601E+03 DETOT -1.95E-01 tst  3.90E-03 PX  1.58E-01
 TTTTTTTTTTTTTTTTTTTTTTTTTTTTTT DIIS        TELAPSE       27.53 TCPU      603.88
 DIIS TEST: 0.46316E+00 AT SCF   CYCLE   2 - DIIS ACTIVE - HISTORY:     2 CYCLES
 TTTTTTTTTTTTTTTTTTTTTTTTTTTTTT FDIK        TELAPSE       28.10 TCPU      622.05
 INSULATING STATE
 TOP OF VALENCE BANDS -    BAND     99; K    1; EIG -2.3903138E-01 AU
 BOTTOM OF VIRTUAL BANDS - BAND    100; K    1; EIG -7.4995138E-02 AU
 DIRECT ENERGY BAND GAP:   4.4637 eV
 TTTTTTTTTTTTTTTTTTTTTTTTTTTTTT PDIG        TELAPSE       28.42 TCPU      628.22
 CHARGE NORMALIZATION FACTOR   1.00000000
 TOTAL ATOMIC CHARGES:
   4.5057296   4.5052651   4.5056454   4.5056197   4.5051803   4.5055710
   0.8865352   0.8867321   0.8865993   0.8865551   0.8863336   0.8868614
   0.8863772   0.8867214   0.8865686   0.8866024   0.8866087   0.8866686
   5.8891769   6.1615903   6.1609373   6.1611668   6.1610713   5.8887479
   5.8895181   6.1614893   6.1608982   6.1614458   6.1609833   5.8883973
   5.8892688   6.1611051   6.1612741   6.1613097   6.1610233   5.8886459
   8.5097092   8.5100255   8.5098688   8.5098775   8.5100851   8.5102099
 TTTTTTTTTTTTTTTTTTTTTTTTTTTTTT MOQGAD      TELAPSE       28.46 TCPU      628.26
 TTTTTTTTTTTTTTTTTTTTTTTTTTTTTT SHELLXN     TELAPSE       33.35 TCPU      783.85
 TTTTTTTTTTTTTTTTTTTTTTTTTTTTTT MONMO3      TELAPSE       33.47 TCPU      787.79
 NUMERICALLY INTEGRATED DENSITY    197.9999822227
 TTTTTTTTTTTTTTTTTTTTTTTTTTTTTT NUMDFT      TELAPSE       34.05 TCPU      806.40
 CYC   3 ETOT(AU) -1.289100516453E+03 DETOT -9.55E-02 tst  6.81E-04 PX  6.25E-02
 TTTTTTTTTTTTTTTTTTTTTTTTTTTTTT DIIS        TELAPSE       34.13 TCPU      808.81
 DIIS TEST: 0.13213E-01 AT SCF   CYCLE   3 - DIIS ACTIVE - HISTORY:     3 CYCLES
 TTTTTTTTTTTTTTTTTTTTTTTTTTTTTT FDIK        TELAPSE       34.69 TCPU      826.76
 INSULATING STATE
 TOP OF VALENCE BANDS -    BAND     99; K    1; EIG -2.4824105E-01 AU
 BOTTOM OF VIRTUAL BANDS - BAND    100; K    1; EIG -8.3381301E-02 AU
 DIRECT ENERGY BAND GAP:   4.4861 eV
 TTTTTTTTTTTTTTTTTTTTTTTTTTTTTT PDIG        TELAPSE       35.02 TCPU      832.93
 CHARGE NORMALIZATION FACTOR   1.00000000
 TOTAL ATOMIC CHARGES:
   4.5111076   4.5106283   4.5110115   4.5108499   4.5103475   4.5108367
   0.8698340   0.8698617   0.8698465   0.8697199   0.8696715   0.8699306
   0.8696740   0.8698271   0.8698110   0.8697984   0.8698633   0.8698426
   5.9402709   6.1654278   6.1659905   6.1654756   6.1657190   5.9422571
   5.9401973   6.1650977   6.1660552   6.1653217   6.1659671   5.9425922
   5.9405819   6.1654787   6.1657547   6.1654132   6.1658291   5.9420011
   8.4767901   8.4770904   8.4771226   8.4769411   8.4768205   8.4773425
 TTTTTTTTTTTTTTTTTTTTTTTTTTTTTT MOQGAD      TELAPSE       35.06 TCPU      832.97
 TTTTTTTTTTTTTTTTTTTTTTTTTTTTTT SHELLXN     TELAPSE       39.95 TCPU      988.60
 TTTTTTTTTTTTTTTTTTTTTTTTTTTTTT MONMO3      TELAPSE       40.07 TCPU      992.55
 NUMERICALLY INTEGRATED DENSITY    197.9999818638
 TTTTTTTTTTTTTTTTTTTTTTTTTTTTTT NUMDFT      TELAPSE       40.65 TCPU     1010.90
 CYC   4 ETOT(AU) -1.289103287980E+03 DETOT -2.77E-03 tst  2.66E-05 PX  1.31E-02
 TTTTTTTTTTTTTTTTTTTTTTTTTTTTTT DIIS        TELAPSE       40.73 TCPU     1013.40
 DIIS TEST: 0.39063E-02 AT SCF   CYCLE   4 - DIIS ACTIVE - HISTORY:     4 CYCLES
 TTTTTTTTTTTTTTTTTTTTTTTTTTTTTT FDIK        TELAPSE       41.29 TCPU     1031.41
 INSULATING STATE
 TOP OF VALENCE BANDS -    BAND     99; K    1; EIG -2.4657451E-01 AU
 BOTTOM OF VIRTUAL BANDS - BAND    100; K    1; EIG -8.3167962E-02 AU
 DIRECT ENERGY BAND GAP:   4.4465 eV
 TTTTTTTTTTTTTTTTTTTTTTTTTTTTTT PDIG        TELAPSE       41.61 TCPU     1037.58
 CHARGE NORMALIZATION FACTOR   1.00000000
 TOTAL ATOMIC CHARGES:
   4.5135647   4.5130855   4.5134732   4.5134777   4.5130064   4.5134832
   0.8726523   0.8728351   0.8727279   0.8726444   0.8724608   0.8729388
   0.8724857   0.8728109   0.8726945   0.8727065   0.8727069   0.8727939
   5.9211574   6.1667375   6.1662913   6.1663922   6.1663828   5.9214319
   5.9214832   6.1665244   6.1662899   6.1665709   6.1663536   5.9212727
   5.9212648   6.1663612   6.1665050   6.1665451   6.1662878   5.9213542
   8.4867999   8.4871336   8.4870170   8.4869194   8.4870715   8.4873045
 TTTTTTTTTTTTTTTTTTTTTTTTTTTTTT MOQGAD      TELAPSE       41.65 TCPU     1037.62
 TTTTTTTTTTTTTTTTTTTTTTTTTTTTTT SHELLXN     TELAPSE       46.54 TCPU     1192.79
 TTTTTTTTTTTTTTTTTTTTTTTTTTTTTT MONMO3      TELAPSE       46.66 TCPU     1196.70
 NUMERICALLY INTEGRATED DENSITY    197.9999821141
 TTTTTTTTTTTTTTTTTTTTTTTTTTTTTT NUMDFT      TELAPSE       47.22 TCPU     1214.75
 CYC   5 ETOT(AU) -1.289104183927E+03 DETOT -8.96E-04 tst  6.40E-06 PX  6.43E-03
 TTTTTTTTTTTTTTTTTTTTTTTTTTTTTT DIIS        TELAPSE       47.31 TCPU     1217.54
 DIIS TEST: 0.66511E-04 AT SCF   CYCLE   5 - DIIS ACTIVE - HISTORY:     5 CYCLES
 TTTTTTTTTTTTTTTTTTTTTTTTTTTTTT FDIK        TELAPSE       47.84 TCPU     1234.48
 INSULATING STATE
 TOP OF VALENCE BANDS -    BAND     99; K    1; EIG -2.4645723E-01 AU
 BOTTOM OF VIRTUAL BANDS - BAND    100; K    1; EIG -8.2612744E-02 AU
 DIRECT ENERGY BAND GAP:   4.4584 eV
 TTTTTTTTTTTTTTTTTTTTTTTTTTTTTT PDIG        TELAPSE       48.17 TCPU     1240.66
 CHARGE NORMALIZATION FACTOR   1.00000000
 TOTAL ATOMIC CHARGES:
   4.5133309   4.5128415   4.5132280   4.5130915   4.5126177   4.5130585
   0.8736007   0.8736470   0.8736258   0.8735052   0.8734227   0.8737431
   0.8734283   0.8736350   0.8735863   0.8735735   0.8736382   0.8736236
   5.9206488   6.1658825   6.1662606   6.1658515   6.1660248   5.9221027
   5.9205937   6.1656010   6.1663059   6.1657791   6.1662357   5.9223319
   5.9209346   6.1658470   6.1661133   6.1658131   6.1661393   5.9218445
   8.4861753   8.4864603   8.4864878   8.4863589   8.4862927   8.4867175
 TTTTTTTTTTTTTTTTTTTTTTTTTTTTTT MOQGAD      TELAPSE       48.21 TCPU     1240.70
 TTTTTTTTTTTTTTTTTTTTTTTTTTTTTT SHELLXN     TELAPSE       53.08 TCPU     1395.59
 TTTTTTTTTTTTTTTTTTTTTTTTTTTTTT MONMO3      TELAPSE       53.21 TCPU     1399.49
 NUMERICALLY INTEGRATED DENSITY    197.9999820739
 TTTTTTTTTTTTTTTTTTTTTTTTTTTTTT NUMDFT      TELAPSE       53.80 TCPU     1418.46
 CYC   6 ETOT(AU) -1.289104204297E+03 DETOT -2.04E-05 tst  1.94E-07 PX  6.91E-04
 TTTTTTTTTTTTTTTTTTTTTTTTTTTTTT DIIS        TELAPSE       53.88 TCPU     1420.96
 DIIS TEST: 0.40703E-05 AT SCF   CYCLE   6 - DIIS ACTIVE - HISTORY:     6 CYCLES
 TTTTTTTTTTTTTTTTTTTTTTTTTTTTTT FDIK        TELAPSE       54.45 TCPU     1439.22
 INSULATING STATE
 TOP OF VALENCE BANDS -    BAND     99; K    1; EIG -2.4641267E-01 AU
 BOTTOM OF VIRTUAL BANDS - BAND    100; K    1; EIG -8.2691153E-02 AU
 DIRECT ENERGY BAND GAP:   4.4551 eV
 TTTTTTTTTTTTTTTTTTTTTTTTTTTTTT PDIG        TELAPSE       54.77 TCPU     1445.38
 CHARGE NORMALIZATION FACTOR   1.00000000
 TOTAL ATOMIC CHARGES:
   4.5134208   4.5129387   4.5133278   4.5133320   4.5128573   4.5133304
   0.8735196   0.8737018   0.8735954   0.8735093   0.8733251   0.8738100
   0.8733521   0.8736798   0.8735626   0.8735706   0.8735775   0.8736576
   5.9215181   6.1660229   6.1655470   6.1656534   6.1656686   5.9218050
   5.9218786   6.1658214   6.1655315   6.1658588   6.1656047   5.9216147
   5.9216097   6.1656173   6.1657922   6.1658202   6.1655566   5.9217440
   8.4863067   8.4866494   8.4865096   8.4864125   8.4865778   8.4868111
 TTTTTTTTTTTTTTTTTTTTTTTTTTTTTT MOQGAD      TELAPSE       54.81 TCPU     1445.42
 TTTTTTTTTTTTTTTTTTTTTTTTTTTTTT SHELLXN     TELAPSE       59.69 TCPU     1600.38
 TTTTTTTTTTTTTTTTTTTTTTTTTTTTTT MONMO3      TELAPSE       59.81 TCPU     1604.34
 NUMERICALLY INTEGRATED DENSITY    197.9999820757
 TTTTTTTTTTTTTTTTTTTTTTTTTTTTTT NUMDFT      TELAPSE       60.40 TCPU     1623.04
 CYC   7 ETOT(AU) -1.289104204121E+03 DETOT  1.76E-07 tst  2.56E-08 PX  2.80E-04
 TTTTTTTTTTTTTTTTTTTTTTTTTTTTTT DIIS        TELAPSE       60.50 TCPU     1626.31
 DIIS TEST: 0.10155E-05 AT SCF   CYCLE   7 - DIIS ACTIVE - HISTORY:     7 CYCLES
 TTTTTTTTTTTTTTTTTTTTTTTTTTTTTT FDIK        TELAPSE       61.07 TCPU     1644.55
 INSULATING STATE
 TOP OF VALENCE BANDS -    BAND     99; K    1; EIG -2.4643046E-01 AU
 BOTTOM OF VIRTUAL BANDS - BAND    100; K    1; EIG -8.2690599E-02 AU
 DIRECT ENERGY BAND GAP:   4.4556 eV
 TTTTTTTTTTTTTTTTTTTTTTTTTTTTTT PDIG        TELAPSE       61.40 TCPU     1650.72
 CHARGE NORMALIZATION FACTOR   1.00000000
 TOTAL ATOMIC CHARGES:
   4.5134869   4.5130016   4.5133880   4.5133148   4.5128414   4.5133002
   0.8735236   0.8736303   0.8735696   0.8734679   0.8733392   0.8737298
   0.8733536   0.8736125   0.8735327   0.8735336   0.8735691   0.8735989
   5.9210511   6.1658918   6.1659001   6.1657278   6.1658056   5.9219644
   5.9211595   6.1656407   6.1659254   6.1657616   6.1659145   5.9220275
   5.9212605   6.1657126   6.1659072   6.1657702   6.1658288   5.9217850
   8.4862871   8.4865931   8.4865606   8.4864443   8.4864734   8.4868134
 TTTTTTTTTTTTTTTTTTTTTTTTTTTTTT MOQGAD      TELAPSE       61.44 TCPU     1650.76
 TTTTTTTTTTTTTTTTTTTTTTTTTTTTTT SHELLXN     TELAPSE       66.33 TCPU     1806.14
 +++ ENERGIES IN A.U. +++
 ::: EXT EL-POLE                                  -1.2401469998906E+03
 ::: EXT EL-SPHEROPOLE                             1.3285882940323E+01
 ::: BIELET ZONE E-E                               1.9444078155403E+03
 ::: TOTAL E-E                                     7.1754669858994E+02
 ::: TOTAL E-N + N-E                              -3.2667935089778E+03
 ::: TOTAL N-N                                     1.1390603725237E+02
 ::: KINETIC ENERGY                                1.2799586320375E+03
 ::: PSEUDO TOTAL   ENERGY                        -1.1553821410980E+03
 ::: VIRIAL COEFFICIENT                            1.0511536177252E+00
 TTTTTTTTTTTTTTTTTTTTTTTTTTTTTT MONMO3      TELAPSE       66.46 TCPU     1810.14
 NUMERICALLY INTEGRATED DENSITY    197.9999820753
 EXCHANGE ENERGY: -0.126032250934E+03  CORRELATION ENERGY: -0.768981243550E+01
 TTTTTTTTTTTTTTTTTTTTTTTTTTTTTT NUMDFT      TELAPSE       67.05 TCPU     1828.96
 CYC   8 ETOT(AU) -1.289104204467E+03 DETOT -3.46E-07 tst  8.33E-09 PX  2.80E-04

 == SCF ENDED - CONVERGENCE ON ENERGY      E(AU) -1.2891042044674E+03 CYCLES   8


 ENERGY EXPRESSION=HARTREE+FOCK EXCH*0.00000+(HSESOL     EXCH)*1.00000+PBESOL     CORR


 TOTAL ENERGY(DFT)(AU)(  8) -1.2891042044674E+03 DE-3.5E-07 tester 8.3E-09
 TTTTTTTTTTTTTTTTTTTTTTTTTTTTTT EDFT        TELAPSE       67.05 TCPU     1828.97
 
 INFORMATION **** DFTD3 ENERGY **** CALCULATE DFTD3 ENERGY

           DFT-D V3(BJ)
 DF                                         hsesol3c  
 parameters
 s6       :    1.0000
 s8       :    0.0000
 a1       :    0.5196
 a2       :    4.9385
 k1 k3    :   16.0000   -4.0000
 Cutoff   :   50.2022
 CN-Cutoff:   21.1671
 ABC-Cutoff:   21.1671
 
 Edisp /kcal,au:   -21.6152 -0.03444606

 E6    /kcal :   -22.5861
 E8    /kcal :     0.0000
 E6(ABC) "   :   0.970833
 
 INFORMATION **** DFTD3 ENERGY **** NORMAL TERMINATION OF DFTD3 MODULE

 GCP ENERGY CALCULATION
  level        hsesol3c            basis:hsesol3c
  Nbf            474
  Atoms           42

  Parameters: 
  sigma     1.0000
  eta       1.4281
  alpha     0.2936
  beta      1.9467

  dmp_scal      4.0000
  dmp_exp       6.0000
 cutoffs: 
   distance [bohr] 60.0
   noise    [a.u.] 2.2E-16
 SR-damping   T
 ** gCP correction **
  Egcp:        0.0829227289 / (a.u.) ||      52.0348 / (kcal/mol)
 INFORMATION **** GCP **** NORMAL TERMINATION OF GCP MODULE

 *******************************************************************************

 DFT-D3-GCP DISPERSION AND COUNTERPOISE CORRECTION

 D3 DISPERSION ENERGY (AU)      -3.4446061137971E-02
 GCP ENERGY (AU)                 8.2922728882742E-02
 TOTAL ENERGY + DISP + GCP (AU) -1.2890557277997E+03

 *******************************************************************************

 EIGENVECTORS IN FORTRAN UNIT  8
 TTTTTTTTTTTTTTTTTTTTTTTTTTTTTT END         TELAPSE       68.46 TCPU     1836.28
 EEEEEEEEEE TERMINATION  DATE 19 02 2026 TIME 19:18:43.1
