 Default number of threads is:           32

         
 *******************************************************************************
 *                                                                             *
 *                               CRYSTAL23                                     *
 *                      public : 1.0.1 - October 2022                          *
 *                       HTTP://WWW.CRYSTAL.UNITO.IT                           *
 *                                                                             *
 *                              MAIN AUTHORS                                   *
 *                                                                             *
 *  R. DOVESI(1,11), V.R. SAUNDERS(2), C. ROETTI(1,11), R. ORLANDO(1,11),      *
 *  C.M. ZICOVICH-WILSON(1,3), F. PASCALE(4), B. CIVALLERI(1,11),              *
 *  K. DOLL(5), N.M. HARRISON(6), I.J. BUSH(7), Ph. D'ARCO(8),                 *
 *  M. LLUNELL(9), M. CAUSA'(10), Y. NOEL(8), L. MASCHIO(1,11), A. ERBA(1,11)  *
 *  M. RE'RAT(14), S. CASASSA(1,11), B.G. SEARLE(2), J.K. DESMARAIS(1)         *
 *                                                                             *
 *        CONTRIBUTIONS TO THE CODE HAVE ALSO BEEN GIVEN BY                    *
 *                                                                             *
 *  M. FERRABONE(1,11), M. DE LA PIERRE(1,11), M. FERRERO(1,11),               *
 *  J. BAIMA(1,11), E. ALBANESE(1,11), M.F. PEINTINGER(12), R. BAST(13),       *
 *  B. KIRTMAN(15), V. LACIVITA(1,11), R. DEMICHELIS(1,16)                     *
 *  G. BRANDEBURG(17), S. SALUSTRO(1,11), G. SANSONE(1,11)                     *
 *  M.T. RUGGIERO(18), L.E. DAGA(1), L. DONA'(1), A. COSSARD(1)                *
 *                                                                             *
 * (1) THEORETICAL CHEMISTRY GROUP - UNIVERSITA' DI TORINO - TORINO (ITALY)    *
 * (2) SCIENTIFIC COMPUTING DEPARTMENT - STFC DARESBURY (UK)                   *
 * (3) UNIVERSIDAD AUTONOMA DEL ESTADO DE MORELOS - CUERNAVACA (MEXICO)        *
 * (4) UNIVERSITE' DE LORRAINE - NANCY (FRANCE)                                *
 * (5) UNIVERSITAET STUTTGART- STUTTGART (GERMANY)                             *
 * (6) IMPERIAL COLLEGE - LONDON (UK)                                          *
 * (7) SCIENTIFIC COMPUTING DEPARTMENT - STFC RAL (UK)                         *
 * (8) UPMC - SORBONNE UNIVERSITES - PARIS (FRANCE)                            *
 * (9) UNIVERSIDAD DE BARCELONA - BARCELONA (SPAIN)                            *
 *(10) UNIVERSITA' DI NAPOLI "FEDERICO II" - NAPOLI (ITALY)                    *
 *(11) NIS - NANOSTRUCTURED INTERFACES AND SURFACES - TORINO (ITALY)           *
 *(12) MPI FUER CHEMISCHE ENERGIEKONVERSION - MUELHEIM AN DER RUHR (GERMANY)   *
 *(13) UNIVERSITY OF TROMSO - TROMSO (NORWAY)                                  *
 *(14) UNIVERSITE' DE PAU ET DES PAYS DE L'ADOUR - PAU (FRANCE)                *
 *(15) UNIVERSITY OF CALIFORNIA SANTA BARBARA - SANTA BARBARA (USA)            *
 *(16) CURTIN UNIVERSITY - PERTH (AUSTRALIA)                                   *
 *(17) UNIVERSITY COLLEGE LONDON - LONDON (UK)                                 *
 *(18) UNIVERSITY OF VERMONT - BURLINGTON (USA)                                *
 *                                                                             *
 *******************************************************************************
 EEEEEEEEEE STARTING  DATE 19 02 2026 TIME 17:28:41.4
 cof-1_z30_L000_incl                                                             

 CRYSTAL CALCULATION
 (INPUT ACCORDING TO THE INTERNATIONAL TABLES FOR X-RAY CRYSTALLOGRAPHY)
 CRYSTAL FAMILY                       :  TRICLINIC   
 CRYSTAL CLASS  (GROTH - 1921)        :  TRICLINIC PEDIAL                     

 SPACE GROUP (NONCENTROSYMMETRIC)     :  P 1             

 LATTICE PARAMETERS  (ANGSTROMS AND DEGREES) - CONVENTIONAL CELL
        A           B           C        ALPHA        BETA       GAMMA
    15.02361    15.02392     3.00000    90.00032    89.99994   119.99596


 NUMBER OF IRREDUCIBLE ATOMS IN THE CONVENTIONAL CELL:   42

 INPUT COORDINATES

 ATOM AT. N.              COORDINATES
   1   5     6.136805400000E-01  2.273182200000E-01  5.015922400000E-01
   2   5     7.727362000000E-01  3.863778800000E-01  5.015922600000E-01
   3   5     6.136762700000E-01  3.863606700000E-01  4.982445300000E-01
   4   5     2.272552500000E-01  6.136332200000E-01  5.015922600000E-01
   5   5     3.863632200000E-01  6.136124500000E-01  5.015922500000E-01
   6   5     3.863435000000E-01  7.727516500000E-01  4.982445300000E-01
   7   1     9.030436200000E-01  3.089300500000E-01  4.946517400000E-01
   8   1     9.663453000000E-02  6.910534400000E-01  4.935904200000E-01
   9   1     9.029714200000E-01  5.940724300000E-01  4.934270800000E-01
  10   1     9.673618000000E-02  4.056849400000E-01  4.934678200000E-01
  11   1     6.910324000000E-01  9.700412000000E-02  5.053483100000E-01
  12   1     3.089297200000E-01  9.034373100000E-01  5.064097000000E-01
  13   1     4.058699900000E-01  9.704998000000E-02  5.065731400000E-01
  14   1     5.943122100000E-01  9.033473200000E-01  5.065321300000E-01
  15   1     6.910727400000E-01  5.940542100000E-01  4.946518000000E-01
  16   1     3.089618300000E-01  4.056093300000E-01  4.935903500000E-01
  17   1     4.058405700000E-01  3.088232500000E-01  4.934269400000E-01
  18   1     5.942908800000E-01  6.909579300000E-01  4.934679400000E-01
  19   6     8.918903100000E-01  4.459436900000E-01  4.981220300000E-01
  20   6     9.464891100000E-01  3.927856300000E-01  4.948150700000E-01
  21   6     5.338812000000E-02  6.071853000000E-01  4.945293900000E-01
  22   6     9.464521100000E-01  5.536921900000E-01  4.953867300000E-01
  23   6     5.342634000000E-02  4.462499700000E-01  4.931820300000E-01
  24   6     1.080358900000E-01  5.540356300000E-01  4.954275200000E-01
  25   6     5.540394200000E-01  1.081684600000E-01  5.018780500000E-01
  26   6     6.071778500000E-01  5.355594000000E-02  5.051849600000E-01
  27   6     3.927986700000E-01  9.466631600000E-01  5.054707400000E-01
  28   6     4.462875800000E-01  5.360286000000E-02  5.046134300000E-01
  29   6     5.537168500000E-01  9.466235600000E-01  5.068179700000E-01
  30   6     4.459279100000E-01  8.919920600000E-01  5.045725500000E-01
  31   6     5.540448700000E-01  4.458745500000E-01  4.981220300000E-01
  32   6     6.072102200000E-01  5.536257800000E-01  4.948151400000E-01
  33   6     3.928233700000E-01  4.461720300000E-01  4.945293200000E-01
  34   6     4.462872600000E-01  3.926899900000E-01  4.953866400000E-01
  35   6     5.537429600000E-01  6.070980000000E-01  4.931821200000E-01
  36   6     4.459599800000E-01  5.539582300000E-01  4.954275200000E-01
  37   8     5.607366800000E-01  2.803706300000E-01  4.991426800000E-01
  38   8     7.196817000000E-01  2.803783300000E-01  5.062055800000E-01
  39   8     7.196794200000E-01  4.393234600000E-01  4.955500300000E-01
  40   8     2.803245100000E-01  7.196511100000E-01  4.991427200000E-01
  41   8     2.803439700000E-01  5.606956100000E-01  5.062055800000E-01
  42   8     4.392638400000E-01  7.196354200000E-01  4.955500000000E-01

 *******************************************************************************

 << INFORMATION >>: FROM NOW ON, ALL COORDINATES REFER TO THE PRIMITIVE CELL

 *******************************************************************************

 LATTICE PARAMETERS  (ANGSTROMS AND DEGREES) - PRIMITIVE CELL
       A          B          C        ALPHA      BETA     GAMMA        VOLUME
   15.02361   15.02392    3.00000    90.00032  89.99994 119.99596    586.444644

 COORDINATES OF THE EQUIVALENT ATOMS (FRACTIONAL UNITS)

 N. ATOM EQUIV AT. N.          X                  Y                  Z

   1   1   1    5 B    -3.86319460000E-01  2.27318220000E-01 -4.98407760000E-01

   2   2   1    5 B    -2.27263800000E-01  3.86377880000E-01 -4.98407740000E-01

   3   3   1    5 B    -3.86323730000E-01  3.86360670000E-01  4.98244530000E-01

   4   4   1    5 B     2.27255250000E-01 -3.86366780000E-01 -4.98407740000E-01

   5   5   1    5 B     3.86363220000E-01 -3.86387550000E-01 -4.98407750000E-01

   6   6   1    5 B     3.86343500000E-01 -2.27248350000E-01  4.98244530000E-01

   7   7   1    1 H    -9.69563800000E-02  3.08930050000E-01  4.94651740000E-01

   8   8   1    1 H     9.66345300000E-02 -3.08946560000E-01  4.93590420000E-01

   9   9   1    1 H    -9.70285800000E-02 -4.05927570000E-01  4.93427080000E-01

  10  10   1    1 H     9.67361800000E-02  4.05684940000E-01  4.93467820000E-01

  11  11   1    1 H    -3.08967600000E-01  9.70041200000E-02 -4.94651690000E-01

  12  12   1    1 H     3.08929720000E-01 -9.65626900000E-02 -4.93590300000E-01

  13  13   1    1 H     4.05869990000E-01  9.70499800000E-02 -4.93426860000E-01

  14  14   1    1 H    -4.05687790000E-01 -9.66526800000E-02 -4.93467870000E-01

  15  15   1    1 H    -3.08927260000E-01 -4.05945790000E-01  4.94651800000E-01

  16  16   1    1 H     3.08961830000E-01  4.05609330000E-01  4.93590350000E-01

  17  17   1    1 H     4.05840570000E-01  3.08823250000E-01  4.93426940000E-01

  18  18   1    1 H    -4.05709120000E-01 -3.09042070000E-01  4.93467940000E-01

  19  19   1    6 C    -1.08109690000E-01  4.45943690000E-01  4.98122030000E-01

  20  20   1    6 C    -5.35108900000E-02  3.92785630000E-01  4.94815070000E-01

  21  21   1    6 C     5.33881200000E-02 -3.92814700000E-01  4.94529390000E-01

  22  22   1    6 C    -5.35478900000E-02 -4.46307810000E-01  4.95386730000E-01

  23  23   1    6 C     5.34263400000E-02  4.46249970000E-01  4.93182030000E-01

  24  24   1    6 C     1.08035890000E-01 -4.45964370000E-01  4.95427520000E-01

  25  25   1    6 C    -4.45960580000E-01  1.08168460000E-01 -4.98121950000E-01

  26  26   1    6 C    -3.92822150000E-01  5.35559400000E-02 -4.94815040000E-01

  27  27   1    6 C     3.92798670000E-01 -5.33368400000E-02 -4.94529260000E-01

  28  28   1    6 C     4.46287580000E-01  5.36028600000E-02 -4.95386570000E-01

  29  29   1    6 C    -4.46283150000E-01 -5.33764400000E-02 -4.93182030000E-01

  30  30   1    6 C     4.45927910000E-01 -1.08007940000E-01 -4.95427450000E-01

  31  31   1    6 C    -4.45955130000E-01  4.45874550000E-01  4.98122030000E-01

  32  32   1    6 C    -3.92789780000E-01 -4.46374220000E-01  4.94815140000E-01

  33  33   1    6 C     3.92823370000E-01  4.46172030000E-01  4.94529320000E-01

  34  34   1    6 C     4.46287260000E-01  3.92689990000E-01  4.95386640000E-01

  35  35   1    6 C    -4.46257040000E-01 -3.92902000000E-01  4.93182120000E-01

  36  36   1    6 C     4.45959980000E-01 -4.46041770000E-01  4.95427520000E-01

  37  37   1    8 O    -4.39263320000E-01  2.80370630000E-01  4.99142680000E-01

  38  38   1    8 O    -2.80318300000E-01  2.80378330000E-01 -4.93794420000E-01

  39  39   1    8 O    -2.80320580000E-01  4.39323460000E-01  4.95550030000E-01

  40  40   1    8 O     2.80324510000E-01 -2.80348890000E-01  4.99142720000E-01

  41  41   1    8 O     2.80343970000E-01 -4.39304390000E-01 -4.93794420000E-01

  42  42   1    8 O     4.39263840000E-01 -2.80364580000E-01  4.95550000000E-01

 NUMBER OF SYMMETRY OPERATORS         :    1
 *******************************************************************************
 * GEOMETRY EDITING - INPUT COORDINATES ARE GIVEN IN ANGSTROM         
 *******************************************************************************

 GCALCO - MAX INDICES DIRECT LATTICE VECTOR     8     8    39
 NO.OF VECTORS CREATED 6999 STARS 3500 RMAX   187.76880 BOHR

 GEOMETRY FOR WAVE FUNCTION - DIMENSIONALITY OF THE SYSTEM    3
 (NON PERIODIC DIRECTION: LATTICE PARAMETER FORMALLY SET TO 500)
 *******************************************************************************
 LATTICE PARAMETERS (ANGSTROMS AND DEGREES) - BOHR = 0.5291772083 ANGSTROM
 PRIMITIVE CELL - CENTRING CODE 1/0 VOLUME=   586.444644 - DENSITY  1.105 g/cm^3
         A              B              C           ALPHA      BETA       GAMMA 
    15.02361100    15.02391600     3.00000000    90.000323  89.999944 119.995964
 *******************************************************************************
 ATOMS IN THE ASYMMETRIC UNIT   42 - ATOMS IN THE UNIT CELL:   42
     ATOM                 X/A                 Y/B                 Z/C    
 *******************************************************************************
      1 T   5 B    -3.863194600000E-01  2.273182200000E-01 -4.984077600000E-01
      2 T   5 B    -2.272638000000E-01  3.863778800000E-01 -4.984077400000E-01
      3 T   5 B    -3.863237300000E-01  3.863606700000E-01  4.982445300000E-01
      4 T   5 B     2.272552500000E-01 -3.863667800000E-01 -4.984077400000E-01
      5 T   5 B     3.863632200000E-01 -3.863875500000E-01 -4.984077500000E-01
      6 T   5 B     3.863435000000E-01 -2.272483500000E-01  4.982445300000E-01
      7 T   1 H    -9.695638000000E-02  3.089300500000E-01  4.946517400000E-01
      8 T   1 H     9.663453000000E-02 -3.089465600000E-01  4.935904200000E-01
      9 T   1 H    -9.702858000000E-02 -4.059275700000E-01  4.934270800000E-01
     10 T   1 H     9.673618000000E-02  4.056849400000E-01  4.934678200000E-01
     11 T   1 H    -3.089676000000E-01  9.700412000000E-02 -4.946516900000E-01
     12 T   1 H     3.089297200000E-01 -9.656269000000E-02 -4.935903000000E-01
     13 T   1 H     4.058699900000E-01  9.704998000000E-02 -4.934268600000E-01
     14 T   1 H    -4.056877900000E-01 -9.665268000000E-02 -4.934678700000E-01
     15 T   1 H    -3.089272600000E-01 -4.059457900000E-01  4.946518000000E-01
     16 T   1 H     3.089618300000E-01  4.056093300000E-01  4.935903500000E-01
     17 T   1 H     4.058405700000E-01  3.088232500000E-01  4.934269400000E-01
     18 T   1 H    -4.057091200000E-01 -3.090420700000E-01  4.934679400000E-01
     19 T   6 C    -1.081096900000E-01  4.459436900000E-01  4.981220300000E-01
     20 T   6 C    -5.351089000000E-02  3.927856300000E-01  4.948150700000E-01
     21 T   6 C     5.338812000000E-02 -3.928147000000E-01  4.945293900000E-01
     22 T   6 C    -5.354789000000E-02 -4.463078100000E-01  4.953867300000E-01
     23 T   6 C     5.342634000000E-02  4.462499700000E-01  4.931820300000E-01
     24 T   6 C     1.080358900000E-01 -4.459643700000E-01  4.954275200000E-01
     25 T   6 C    -4.459605800000E-01  1.081684600000E-01 -4.981219500000E-01
     26 T   6 C    -3.928221500000E-01  5.355594000000E-02 -4.948150400000E-01
     27 T   6 C     3.927986700000E-01 -5.333684000000E-02 -4.945292600000E-01
     28 T   6 C     4.462875800000E-01  5.360286000000E-02 -4.953865700000E-01
     29 T   6 C    -4.462831500000E-01 -5.337644000000E-02 -4.931820300000E-01
     30 T   6 C     4.459279100000E-01 -1.080079400000E-01 -4.954274500000E-01
     31 T   6 C    -4.459551300000E-01  4.458745500000E-01  4.981220300000E-01
     32 T   6 C    -3.927897800000E-01 -4.463742200000E-01  4.948151400000E-01
     33 T   6 C     3.928233700000E-01  4.461720300000E-01  4.945293200000E-01
     34 T   6 C     4.462872600000E-01  3.926899900000E-01  4.953866400000E-01
     35 T   6 C    -4.462570400000E-01 -3.929020000000E-01  4.931821200000E-01
     36 T   6 C     4.459599800000E-01 -4.460417700000E-01  4.954275200000E-01
     37 T   8 O    -4.392633200000E-01  2.803706300000E-01  4.991426800000E-01
     38 T   8 O    -2.803183000000E-01  2.803783300000E-01 -4.937944200000E-01
     39 T   8 O    -2.803205800000E-01  4.393234600000E-01  4.955500300000E-01
     40 T   8 O     2.803245100000E-01 -2.803488900000E-01  4.991427200000E-01
     41 T   8 O     2.803439700000E-01 -4.393043900000E-01 -4.937944200000E-01
     42 T   8 O     4.392638400000E-01 -2.803645800000E-01  4.955500000000E-01

 T = ATOM BELONGING TO THE ASYMMETRIC UNIT

 ****    1 SYMMOPS - TRANSLATORS IN FRACTIONAL UNITS
 **** MATRICES AND TRANSLATORS IN THE CRYSTALLOGRAPHIC REFERENCE FRAME
   V INV                    ROTATION MATRICES                   TRANSLATORS
   1   1  1.00 -0.00  0.00  0.00  1.00  0.00  0.00  0.00  1.00  0.00  0.00  0.00

 DIRECT LATTICE VECTORS CARTESIAN COMPONENTS (ANGSTROM)
          X                    Y                    Z
   0.130113578931E+02  -0.751088897922E+01   0.000000000000E+00
   0.000000000000E+00   0.150239160000E+02   0.000000000000E+00
  -0.637707708030E-05  -0.169122404511E-04   0.299999999995E+01


 CARTESIAN COORDINATES - PRIMITIVE CELL
 *******************************************************************************
 *      ATOM          X(ANGSTROM)         Y(ANGSTROM)         Z(ANGSTROM)
 *******************************************************************************
    1     5 B    -5.026537576728E+00  6.316820846312E+00 -1.495223279973E+00
    2     5 B    -2.957007459551E+00  7.511870413364E+00 -1.495223219973E+00
    3     5 B    -5.026599490954E+00 -6.317639528581E+00  1.494733589973E+00
    4     5 B     2.956902569211E+00 -7.511622571413E+00 -1.495223219973E+00
    5     5 B     5.027113310518E+00  6.316939083473E+00 -1.495223249973E+00
    6     5 B     5.026850370812E+00 -6.315951684312E+00  1.494733589973E+00
    7     1 H    -1.261537314627E+00  5.369559361413E+00  1.483955219973E+00
    8     1 H     1.257343306993E+00 -5.367406740038E+00  1.480771259973E+00
    9     1 H    -1.262476726858E+00 -5.369859166531E+00  1.480281239973E+00
   10     1 H     1.258665912305E+00  5.368393407125E+00  1.480403459973E+00
   11     1 H    -4.020084866527E+00  3.778011457977E+00 -1.483955069973E+00
   12     1 H     4.019598298385E+00 -3.771078224877E+00 -1.480770899973E+00
   13     1 H     5.280922844562E+00 -1.590365342610E+00 -1.480280579973E+00
   14     1 H    -5.278545881651E+00  1.594982551066E+00 -1.480403609973E+00
   15     1 H    -4.019566297214E+00 -3.778585462670E+00  1.483955399973E+00
   16     1 H     4.020009797760E+00  3.773254151072E+00  1.480771049973E+00
   17     1 H     5.280533757170E+00  1.591502757360E+00  1.480280819973E+00
   18     1 H    -5.278829707680E+00 -1.595794287619E+00  1.480403819973E+00
   19     6 C    -1.406657044860E+00  7.511811994098E+00  1.494366089973E+00
   20     6 C    -6.962524964398E-01  6.303084296665E+00  1.484445209973E+00
   21     6 C     6.946487829054E-01 -6.302615662094E+00  1.483588169973E+00
   22     6 C    -6.967339203274E-01 -6.303107168822E+00  1.486160189973E+00
   23     6 C     6.951460855963E-01  6.303134415164E+00  1.479546089973E+00
   24     6 C     1.405690470705E+00 -7.511585188223E+00  1.486282559973E+00
   25     6 C     7.208808357044E+00 -2.536206292482E+00 -1.494365849973E+00
   26     6 C    -5.111146426496E+00  3.755071869519E+00 -1.484445119973E+00
   27     6 C     5.110847228938E+00 -3.751587041822E+00 -1.483587779973E+00
   28     6 C     5.806810585724E+00 -2.546683222087E+00 -1.486159709973E+00
   29     6 C    -5.806746641231E+00  2.550068382819E+00 -1.479546089973E+00
   30     6 C     5.802130790892E+00 -4.972008863849E+00 -1.486282349973E+00
   31     6 C     7.208872915819E+00  2.537403853304E+00  1.494366089973E+00
   32     6 C    -5.110731559789E+00 -3.756096724527E+00  1.484445419973E+00
   33     6 C     5.111162302175E+00  3.752790016159E+00  1.483587959973E+00
   34     6 C     5.806800103853E+00  2.547718983004E+00  1.486159919973E+00
   35     6 C    -5.806413204796E+00 -2.551147901413E+00  1.479546359973E+00
   36     6 C     5.802541746381E+00  4.973057637286E+00  1.486282559973E+00
   37     8 O     7.295942444173E+00  6.254023116313E-04  1.497428039973E+00
   38     8 O    -3.647318576308E+00  6.317828459453E+00 -1.481383259973E+00
   39     8 O    -3.647354551330E+00 -6.318108866022E+00  1.486650089973E+00
   40     8 O     3.647399342734E+00 -6.317432888438E+00  1.497428159973E+00
   41     8 O     3.647658875795E+00  6.318219662716E+00 -1.481383259973E+00
   42     8 O    -7.295942021499E+00 -5.552357638786E-04  1.486649999973E+00

 *******************************************************************************
 STARTING BASIS SET HANDLING 
 *******************************************************************************

 Loading internal basis set: SOLDEF2MSVP         

 Please cite in your publication:
 L. Dona', J. G. Brandenburg and B. Civalleri, J. Chem. Phys., 151, 121101 (2019
 )                                                                              
                                                                                
                    

 *******************************************************************************
 LOCAL ATOMIC FUNCTIONS BASIS SET
 *******************************************************************************
   ATOM   X(AU)   Y(AU)   Z(AU)  N. TYPE  EXPONENT  S COEF   P COEF   D/F/G COEF
 *******************************************************************************
   1 B   -9.499  11.937  -2.826
                                  1 S  
                                         2.410E+03 1.755E-03 0.000E+00 0.000E+00
                                         3.619E+02 1.344E-02 0.000E+00 0.000E+00
                                         8.231E+01 6.637E-02 0.000E+00 0.000E+00
                                         2.311E+01 2.303E-01 0.000E+00 0.000E+00
                                         7.252E+00 5.150E-01 0.000E+00 0.000E+00
                                  2 S  
                                         2.367E+00 1.000E+00 0.000E+00 0.000E+00
                                  3 S  
                                         5.533E-01 1.000E+00 0.000E+00 0.000E+00
                                  4 S  
                                         1.716E-01 1.000E+00 0.000E+00 0.000E+00
                           5-     7 P  
                                         6.002E+00 0.000E+00-3.555E-02 0.000E+00
                                         1.240E+00 0.000E+00-1.983E-01 0.000E+00
                                         3.367E-01 0.000E+00-5.048E-01 0.000E+00
                           8-    10 P  
                                         1.256E-01 0.000E+00 1.000E+00 0.000E+00
                          11-    15 D  
                                         8.880E-01 0.000E+00 0.000E+00 1.000E+00
   2 B   -5.588  14.195  -2.826
   3 B   -9.499 -11.939   2.825
   4 B    5.588 -14.195  -2.826
   5 B    9.500  11.937  -2.826
   6 B    9.499 -11.935   2.825
   7 H   -2.384  10.147   2.804
                                 91 S  
                                         1.874E+01 1.968E-02 0.000E+00 0.000E+00
                                         2.826E+00 1.380E-01 0.000E+00 0.000E+00
                                         6.401E-01 4.783E-01 0.000E+00 0.000E+00
                                 92 S  
                                         1.756E-01 1.000E+00 0.000E+00 0.000E+00
   8 H    2.376 -10.143   2.798
   9 H   -2.386 -10.148   2.797
  10 H    2.379  10.145   2.798
  11 H   -7.597   7.139  -2.804
  12 H    7.596  -7.126  -2.798
  13 H    9.979  -3.005  -2.797
  14 H   -9.975   3.014  -2.798
  15 H   -7.596  -7.140   2.804
  16 H    7.597   7.130   2.798
  17 H    9.979   3.008   2.797
  18 H   -9.976  -3.016   2.798
  19 C   -2.658  14.195   2.824
                                115 S  
                                         3.624E+03 1.634E-03 0.000E+00 0.000E+00
                                         5.440E+02 1.252E-02 0.000E+00 0.000E+00
                                         1.237E+02 6.211E-02 0.000E+00 0.000E+00
                                         3.476E+01 2.182E-01 0.000E+00 0.000E+00
                                         1.093E+01 4.980E-01 0.000E+00 0.000E+00
                                116 S  
                                         3.574E+00 1.000E+00 0.000E+00 0.000E+00
                                117 S  
                                         7.742E-01 1.000E+00 0.000E+00 0.000E+00
                                118 S  
                                         2.330E-01 1.000E+00 0.000E+00 0.000E+00
                         119-   121 P  
                                         9.443E+00 0.000E+00 3.790E-02 0.000E+00
                                         2.002E+00 0.000E+00 2.082E-01 0.000E+00
                                         5.463E-01 0.000E+00 5.047E-01 0.000E+00
                         122-   124 P  
                                         1.820E-01 0.000E+00 1.000E+00 0.000E+00
                         125-   129 D  
                                         8.880E-01 0.000E+00 0.000E+00 1.000E+00
  20 C   -1.316  11.911   2.805
  21 C    1.313 -11.910   2.804
  22 C   -1.317 -11.911   2.808
  23 C    1.314  11.911   2.796
  24 C    2.656 -14.195   2.809
  25 C   13.623  -4.793  -2.824
  26 C   -9.659   7.096  -2.805
  27 C    9.658  -7.089  -2.804
  28 C   10.973  -4.813  -2.808
  29 C  -10.973   4.819  -2.796
  30 C   10.964  -9.396  -2.809
  31 C   13.623   4.795   2.824
  32 C   -9.658  -7.098   2.805
  33 C    9.659   7.092   2.804
  34 C   10.973   4.814   2.808
  35 C  -10.973  -4.821   2.796
  36 C   10.965   9.398   2.809
  37 O   13.787   0.001   2.830
                                385 S  
                                         6.773E+03 1.727E-03 0.000E+00 0.000E+00
                                         1.017E+03 1.325E-02 0.000E+00 0.000E+00
                                         2.313E+02 6.603E-02 0.000E+00 0.000E+00
                                         6.501E+01 2.353E-01 0.000E+00 0.000E+00
                                         2.050E+01 5.498E-01 0.000E+00 0.000E+00
                                386 S  
                                         6.716E+00 1.000E+00 0.000E+00 0.000E+00
                                387 S  
                                         1.147E+00 1.000E+00 0.000E+00 0.000E+00
                                388 S  
                                         3.342E-01 1.000E+00 0.000E+00 0.000E+00
                         389-   391 P  
                                         1.769E+01 0.000E+00 4.359E-02 0.000E+00
                                         3.854E+00 0.000E+00 2.318E-01 0.000E+00
                                         1.047E+00 0.000E+00 5.146E-01 0.000E+00
                         392-   394 P  
                                         2.759E-01 0.000E+00 1.000E+00 0.000E+00
                         395-   399 D  
                                         8.000E-01 0.000E+00 0.000E+00 1.000E+00
  38 O   -6.892  11.939  -2.799
  39 O   -6.893 -11.939   2.809
  40 O    6.893 -11.938   2.830
  41 O    6.893  11.940  -2.799
  42 O  -13.787  -0.001   2.809

 *******************************************************************************
 FINISHED BASIS SET HANDLING 
 *******************************************************************************

 INFORMATION **** SET_MPP **** PCRYSTAL CALCULATION
 INFORMATION **** READM2 **** NEW DEFAULT: FOCK/KS MATRIX MIXING SET TO 30 %
 INFORMATION **** READM2 **** NEW DEFAULT: FULL DIRECT SCF MODE
 INFORMATION **** READM2 **** NEW DEFAULT: COULOMB BIPOLAR BUFFER SET TO 32 Mb
 INFORMATION **** READM2 **** NEW DEFAULT: EXCHANGE BIPOLAR BUFFER SET TO 32 Mb

 *******************************************************************************
 NEW DEFAULT: DFT INTEGRATION GRID INCREASED TO XLGRID
 NEW DEFAULT: DIIS ACCELERATOR ACTIVE
 USE KEYWORD NODIIS TO TURN IT OFF
 *******************************************************************************

 WARNING **** RDDFTP **** HSEsol-HJS ACTIVE
 RANGE SEPARATION - OMEGA:   0.110000000000000     
 WARNING **** RDDFTP **** HSEsol-3c has to be combined with sol-def2-mSVP basis set
 *******************************************************************************
 N. OF ATOMS PER CELL        42  COULOMB OVERLAP TOL         (T1) 10**   -6
 NUMBER OF SHELLS           234  COULOMB PENETRATION TOL     (T2) 10**   -6
 NUMBER OF AO               474  EXCHANGE OVERLAP TOL        (T3) 10**   -6
 N. OF ELECTRONS PER CELL   198  EXCHANGE PSEUDO OVP (F(G))  (T4) 10**   -6
 CORE ELECTRONS PER CELL     60  EXCHANGE PSEUDO OVP (P(G))  (T5) 10**  -12
 N. OF SYMMETRY OPERATORS     1  POLE ORDER IN MONO ZONE                  4
 *******************************************************************************
 TYPE OF CALCULATION :  RESTRICTED CLOSED SHELL
 KOHN-SHAM HAMILTONIAN

 (EXCHANGE)[CORRELATION] FUNCTIONAL:(HSEsol GGA)[PBEsol]

 RANGE-SEPARATED HYBRID FUNCTIONAL 
 OMEGA (SHORT-RANGE)[LONG-RANGE]:(    0.1100)[    0.0000]

 HYBRID EXCHANGE - PERCENTAGE OF FOCK EXCHANGE    25.0000

 CAPPA:IS1  2;IS2  2;IS3  8; K PTS MONK NET  20; SYMMOPS:K SPACE   2;G SPACE   1

 *******************************************************************************
 MAX NUMBER OF SCF CYCLES      50  CONVERGENCE ON DELTAP        10**-16
 WEIGHT OF F(I) IN F(I+1)      30% CONVERGENCE ON ENERGY        10**- 6
 SHRINK. FACT.(MONKH.)    2  2  8  NUMBER OF K POINTS IN THE IBZ     20
 SHRINKING FACTOR(GILAT NET)    8  NUMBER OF K POINTS(GILAT NET)   1028
 *******************************************************************************
 *** K POINTS COORDINATES (OBLIQUE COORDINATES IN UNITS OF IS =  2)
   1-R(  0  0  0)   2-R(  1  0  0)   3-R(  0  1  0)   4-R(  1  1  0)
   5-C(  0  0  1)   6-C(  1  0  1)   7-C(  0  1  1)   8-C(  1  1  1)
   9-C(  0  0  2)  10-C(  1  0  2)  11-C(  0  1  2)  12-C(  1  1  2)
  13-C(  0  0  3)  14-C(  1  0  3)  15-C(  0  1  3)  16-C(  1  1  3)
  17-R(  0  0  4)  18-R(  1  0  4)  19-R(  0  1  4)  20-R(  1  1  4)

 DIRECT LATTICE VECTORS COMPON. (A.U.)     RECIP. LATTICE VECTORS COMPON. (A.U.) 
        X            Y            Z              X            Y            Z
   24.5879030  -14.1935232    0.0000000      0.2555397    0.0000000    0.0000005
    0.0000000   28.3910867    0.0000000      0.1277517    0.2213084    0.0000015
   -0.0000121   -0.0000320    5.6691784      0.0000000    0.0000000    1.1083062

 DISK SPACE FOR EIGENVECTORS (FTN 10)     7189632 REALS

 SYMMETRY ADAPTION OF THE BLOCH FUNCTIONS DISABLED
 TTTTTTTTTTTTTTTTTTTTTTTTTTTTTT gordsh1     TELAPSE        0.05 TCPU        0.04

 MATRIX SIZE: P(G)  457262, F(G)   94577, P(G) IRR  231322, F(G) IRR   95645
 MAX G-VECTOR INDEX FOR 1- AND 2-ELECTRON INTEGRALS 137

 TTTTTTTTTTTTTTTTTTTTTTTTTTTTTT INPUT       TELAPSE        0.30 TCPU        0.29

 NEIGHBORS OF THE NON-EQUIVALENT ATOMS

 N = NUMBER OF NEIGHBORS AT DISTANCE R
    ATOM  N     R/ANG      R/AU   NEIGHBORS (ATOM LABELS AND CELL INDICES)
   1 B    1     1.3791     2.6061   37 O   -1 0-1
   1 B    1     1.3793     2.6065   38 O    0 0 0
   1 B    1     1.5503     2.9297   25 C   -1 0 0
   1 B    1     2.3895     4.5155    3 B    0 1-1
   1 B    1     2.3898     4.5160    2 B    0 0 0
   1 B    1     2.5632     4.8437   26 C    0 0 0

   2 B    1     1.3793     2.6065   39 O    0 1-1
   2 B    1     1.3793     2.6065   38 O    0 0 0
   2 B    1     1.5504     2.9298   19 C    0 0-1
   2 B    1     2.3895     4.5156    3 B    0 1-1
   2 B    1     2.3898     4.5160    1 B    0 0 0
   2 B    1     2.5634     4.8440   22 C    0 1-1

   3 B    1     1.3791     2.6061   37 O   -1-1 0
   3 B    1     1.3793     2.6064   39 O    0 0 0
   3 B    1     1.5502     2.9294   31 C   -1-1 0
   3 B    1     2.3895     4.5155    1 B    0-1 1
   3 B    1     2.3895     4.5156    2 B    0-1 1
   3 B    1     2.5629     4.8433   32 C    0 0 0

   4 B    1     1.3795     2.6068   40 O    0 0-1
   4 B    1     1.3795     2.6070   41 O    0-1 0
   4 B    1     1.5513     2.9316   24 C    0 0-1
   4 B    1     2.3905     4.5174    6 B    0 0-1
   4 B    1     2.3905     4.5175    5 B    0-1 0
   4 B    1     2.5648     4.8468   23 C    0-1-1

   5 B    1     1.3795     2.6069   41 O    0 0 0
   5 B    1     1.3797     2.6072   42 O    1 1-1
   5 B    1     1.5516     2.9322   36 C    0 0-1
   5 B    1     2.3905     4.5175    4 B    0 1 0
   5 B    1     2.3911     4.5185    6 B    0 1-1
   5 B    1     2.5651     4.8473   35 C    1 1-1

   6 B    1     1.3795     2.6068   40 O    0 0 0
   6 B    1     1.3796     2.6071   42 O    1 0 0
   6 B    1     1.5516     2.9322   30 C    0 0 1
   6 B    1     2.3905     4.5174    4 B    0 0 1
   6 B    1     2.3911     4.5185    5 B    0-1 1
   6 B    1     2.5651     4.8473   29 C    1 0 1

   7 H    1     1.0913     2.0623   20 C    0 0 0
   7 H    1     2.1472     4.0576   19 C    0 0 0
   7 H    1     2.1680     4.0969   23 C    0 0 0
   7 H    1     2.5202     4.7625   10 H    0 0 0
   7 H    1     2.5676     4.8520   38 O    0 0 1
   7 H    1     2.7321     5.1630    2 B    0 0 1

   8 H    1     1.0914     2.0625   21 C    0 0 0
   8 H    1     2.1493     4.0616   24 C    0 0 0
   8 H    1     2.1666     4.0942   22 C    0 0 0
   8 H    1     2.5198     4.7618    9 H    0 0 0
   8 H    1     2.5720     4.8604   40 O    0 0 0
   8 H    1     2.7362     5.1707    4 B    0 0 1

   9 H    1     1.0914     2.0624   22 C    0 0 0
   9 H    1     2.1471     4.0575   19 C    0-1 0
   9 H    1     2.1680     4.0970   21 C    0 0 0
   9 H    1     2.5198     4.7618    8 H    0 0 0
   9 H    1     2.5665     4.8500   39 O    0 0 0
   9 H    1     2.7315     5.1618    2 B    0-1 1

  10 H    1     1.0915     2.0626   23 C    0 0 0
  10 H    1     2.1490     4.0610   24 C    0 1 0
  10 H    1     2.1669     4.0948   20 C    0 0 0
  10 H    1     2.5202     4.7625    7 H    0 0 0
  10 H    1     2.5712     4.8588   41 O    0 0 1
  10 H    1     2.7351     5.1686    4 B    0 1 1

  11 H    1     1.0913     2.0623   26 C    0 0 0
  11 H    1     2.1469     4.0571   25 C   -1 0 0
  11 H    1     2.1680     4.0968   29 C    0 0 0
  11 H    1     2.5198     4.7617   14 H    0 0 0
  11 H    1     2.5670     4.8510   38 O    0 0 0
  11 H    1     2.7310     5.1609    1 B    0 0 0

  12 H    1     1.0914     2.0625   27 C    0 0 0
  12 H    1     2.1493     4.0617   30 C    0 0 0
  12 H    1     2.1664     4.0939   28 C    0 0 0
  12 H    1     2.5192     4.7606   13 H    0 0 0
  12 H    1     2.5735     4.8632   40 O    0 0-1
  12 H    1     2.7371     5.1723    6 B    0 0-1

  13 H    1     1.0914     2.0624   28 C    0 0 0
  13 H    1     2.1475     4.0581   25 C    0 0 0
  13 H    1     2.1679     4.0967   27 C    0 0 0
  13 H    1     2.5192     4.7606   12 H    0 0 0
  13 H    1     2.5675     4.8519   37 O    0 0-1
  13 H    1     2.7328     5.1643    1 B    1 0 0

  14 H    1     1.0914     2.0625   29 C    0 0 0
  14 H    1     2.1491     4.0612   30 C   -1 0 0
  14 H    1     2.1666     4.0942   26 C    0 0 0
  14 H    1     2.5198     4.7617   11 H    0 0 0
  14 H    1     2.5723     4.8609   42 O    0 0-1
  14 H    1     2.7355     5.1693    6 B   -1 0-1

  15 H    1     1.0914     2.0624   32 C    0 0 0
  15 H    1     2.1475     4.0582   31 C   -1-1 0
  15 H    1     2.1678     4.0966   35 C    0 0 0
  15 H    1     2.5200     4.7621   18 H    0 0 0
  15 H    1     2.5667     4.8503   39 O    0 0 0
  15 H    1     2.7315     5.1618    3 B    0 0 0

  16 H    1     1.0913     2.0623   33 C    0 0 0
  16 H    1     2.1487     4.0605   36 C    0 0 0
  16 H    1     2.1667     4.0945   34 C    0 0 0
  16 H    1     2.5197     4.7616   17 H    0 0 0
  16 H    1     2.5723     4.8610   41 O    0 0 1
  16 H    1     2.7359     5.1701    5 B    0 0 1

  17 H    1     1.0915     2.0626   34 C    0 0 0
  17 H    1     2.1479     4.0589   31 C    0 0 0
  17 H    1     2.1679     4.0968   33 C    0 0 0
  17 H    1     2.5197     4.7616   16 H    0 0 0
  17 H    1     2.5677     4.8522   37 O    0 0 0
  17 H    1     2.7331     5.1648    3 B    1 1 0

  18 H    1     1.0914     2.0624   35 C    0 0 0
  18 H    1     2.1486     4.0602   36 C   -1-1 0
  18 H    1     2.1668     4.0947   32 C    0 0 0
  18 H    1     2.5200     4.7621   15 H    0 0 0
  18 H    1     2.5717     4.8598   42 O    0 0 0
  18 H    1     2.7349     5.1682    5 B   -1-1 1

  19 C    1     1.4020     2.6495   22 C    0 1 0
  19 C    1     1.4021     2.6495   20 C    0 0 0
  19 C    1     1.5504     2.9298    2 B    0 0 1
  19 C    1     2.1471     4.0575    9 H    0 1 0
  19 C    1     2.1472     4.0576    7 H    0 0 0
  19 C    1     2.4246     4.5817   21 C    0 1 0

  20 C    1     1.0913     2.0623    7 H    0 0 0
  20 C    1     1.3914     2.6294   23 C    0 0 0
  20 C    1     1.4021     2.6495   19 C    0 0 0
  20 C    1     2.1669     4.0948   10 H    0 0 0
  20 C    1     2.4177     4.5688   22 C    0 1 0
  20 C    1     2.4250     4.5825   24 C    0 1 0

  21 C    1     1.0914     2.0625    8 H    0 0 0
  21 C    1     1.3914     2.6293   22 C    0 0 0
  21 C    1     1.4026     2.6505   24 C    0 0 0
  21 C    1     2.1680     4.0970    9 H    0 0 0
  21 C    1     2.4182     4.5697   23 C    0-1 0
  21 C    1     2.4246     4.5817   19 C    0-1 0

  22 C    1     1.0914     2.0624    9 H    0 0 0
  22 C    1     1.3914     2.6293   21 C    0 0 0
  22 C    1     1.4020     2.6495   19 C    0-1 0
  22 C    1     2.1666     4.0942    8 H    0 0 0
  22 C    1     2.4177     4.5688   20 C    0-1 0
  22 C    1     2.4250     4.5826   24 C    0 0 0

  23 C    1     1.0915     2.0626   10 H    0 0 0
  23 C    1     1.3914     2.6294   20 C    0 0 0
  23 C    1     1.4025     2.6504   24 C    0 1 0
  23 C    1     2.1680     4.0969    7 H    0 0 0
  23 C    1     2.4182     4.5697   21 C    0 1 0
  23 C    1     2.4246     4.5818   19 C    0 0 0

  24 C    1     1.4025     2.6504   23 C    0-1 0
  24 C    1     1.4026     2.6505   21 C    0 0 0
  24 C    1     1.5513     2.9316    4 B    0 0 1
  24 C    1     2.1490     4.0610   10 H    0-1 0
  24 C    1     2.1493     4.0616    8 H    0 0 0
  24 C    1     2.4250     4.5825   20 C    0-1 0

  25 C    1     1.4020     2.6494   26 C    1 0 0
  25 C    1     1.4021     2.6495   28 C    0 0 0
  25 C    1     1.5503     2.9297    1 B    1 0 0
  25 C    1     2.1469     4.0571   11 H    1 0 0
  25 C    1     2.1475     4.0581   13 H    0 0 0
  25 C    1     2.4246     4.5818   27 C    0 0 0

  26 C    1     1.0913     2.0623   11 H    0 0 0
  26 C    1     1.3914     2.6293   29 C    0 0 0
  26 C    1     1.4020     2.6494   25 C   -1 0 0
  26 C    1     2.1666     4.0942   14 H    0 0 0
  26 C    1     2.4175     4.5684   28 C   -1 0 0
  26 C    1     2.4251     4.5828   30 C   -1 0 0

  27 C    1     1.0914     2.0625   12 H    0 0 0
  27 C    1     1.3915     2.6295   28 C    0 0 0
  27 C    1     1.4026     2.6505   30 C    0 0 0
  27 C    1     2.1679     4.0967   13 H    0 0 0
  27 C    1     2.4179     4.5691   29 C    1 0 0
  27 C    1     2.4246     4.5818   25 C    0 0 0

  28 C    1     1.0914     2.0624   13 H    0 0 0
  28 C    1     1.3915     2.6295   27 C    0 0 0
  28 C    1     1.4021     2.6495   25 C    0 0 0
  28 C    1     2.1664     4.0939   12 H    0 0 0
  28 C    1     2.4175     4.5684   26 C    1 0 0
  28 C    1     2.4253     4.5832   30 C    0 0 0

  29 C    1     1.0914     2.0625   14 H    0 0 0
  29 C    1     1.3914     2.6293   26 C    0 0 0
  29 C    1     1.4025     2.6504   30 C   -1 0 0
  29 C    1     2.1680     4.0968   11 H    0 0 0
  29 C    1     2.4179     4.5691   27 C   -1 0 0
  29 C    1     2.4247     4.5819   25 C   -1 0 0

  30 C    1     1.4025     2.6504   29 C    1 0 0
  30 C    1     1.4026     2.6505   27 C    0 0 0
  30 C    1     1.5516     2.9322    6 B    0 0-1
  30 C    1     2.1491     4.0612   14 H    1 0 0
  30 C    1     2.1493     4.0617   12 H    0 0 0
  30 C    1     2.4251     4.5828   26 C    1 0 0

  31 C    1     1.4021     2.6496   32 C    1 1 0
  31 C    1     1.4021     2.6497   34 C    0 0 0
  31 C    1     1.5502     2.9294    3 B    1 1 0
  31 C    1     2.1475     4.0582   15 H    1 1 0
  31 C    1     2.1479     4.0589   17 H    0 0 0
  31 C    1     2.4244     4.5814   33 C    0 0 0

  32 C    1     1.0914     2.0624   15 H    0 0 0
  32 C    1     1.3914     2.6293   35 C    0 0 0
  32 C    1     1.4021     2.6496   31 C   -1-1 0
  32 C    1     2.1668     4.0947   18 H    0 0 0
  32 C    1     2.4179     4.5692   34 C   -1-1 0
  32 C    1     2.4251     4.5827   36 C   -1-1 0

  33 C    1     1.0913     2.0623   16 H    0 0 0
  33 C    1     1.3914     2.6294   34 C    0 0 0
  33 C    1     1.4025     2.6504   36 C    0 0 0
  33 C    1     2.1679     4.0968   17 H    0 0 0
  33 C    1     2.4178     4.5690   35 C    1 1 0
  33 C    1     2.4244     4.5814   31 C    0 0 0

  34 C    1     1.0915     2.0626   17 H    0 0 0
  34 C    1     1.3914     2.6294   33 C    0 0 0
  34 C    1     1.4021     2.6497   31 C    0 0 0
  34 C    1     2.1667     4.0945   16 H    0 0 0
  34 C    1     2.4179     4.5692   32 C    1 1 0
  34 C    1     2.4253     4.5832   36 C    0 0 0

  35 C    1     1.0914     2.0624   18 H    0 0 0
  35 C    1     1.3914     2.6293   32 C    0 0 0
  35 C    1     1.4025     2.6503   36 C   -1-1 0
  35 C    1     2.1678     4.0966   15 H    0 0 0
  35 C    1     2.4178     4.5690   33 C   -1-1 0
  35 C    1     2.4245     4.5817   31 C   -1-1 0

  36 C    1     1.4025     2.6503   35 C    1 1 0
  36 C    1     1.4025     2.6504   33 C    0 0 0
  36 C    1     1.5516     2.9322    5 B    0 0 1
  36 C    1     2.1486     4.0602   18 H    1 1 0
  36 C    1     2.1487     4.0605   16 H    0 0 0
  36 C    1     2.4251     4.5827   32 C    1 1 0

  37 O    1     1.3791     2.6061    1 B    1 0 1
  37 O    1     1.3791     2.6061    3 B    1 1 0
  37 O    1     2.3880     4.5126   38 O    1 0 1
  37 O    1     2.3882     4.5130   39 O    1 1 0
  37 O    1     2.5383     4.7966   31 C    0 0 0
  37 O    1     2.5384     4.7968   25 C    0 0 1

  38 O    1     1.3793     2.6065    1 B    0 0 0
  38 O    1     1.3793     2.6065    2 B    0 0 0
  38 O    1     2.3880     4.5126   37 O   -1 0-1
  38 O    1     2.3882     4.5131   39 O    0 1-1
  38 O    1     2.5391     4.7981   19 C    0 0-1
  38 O    1     2.5395     4.7990   25 C   -1 0 0

  39 O    1     1.3793     2.6064    3 B    0 0 0
  39 O    1     1.3793     2.6065    2 B    0-1 1
  39 O    1     2.3882     4.5130   37 O   -1-1 0
  39 O    1     2.3882     4.5131   38 O    0-1 1
  39 O    1     2.5390     4.7980   19 C    0-1 0
  39 O    1     2.5391     4.7982   31 C   -1-1 0

  40 O    1     1.3795     2.6068    6 B    0 0 0
  40 O    1     1.3795     2.6068    4 B    0 0 1
  40 O    1     2.3880     4.5126   42 O    1 0 0
  40 O    1     2.3884     4.5134   41 O    0-1 1
  40 O    1     2.5400     4.7998   24 C    0 0 0
  40 O    1     2.5403     4.8005   30 C    0 0 1

  41 O    1     1.3795     2.6069    5 B    0 0 0
  41 O    1     1.3795     2.6070    4 B    0 1 0
  41 O    1     2.3881     4.5128   42 O    1 1-1
  41 O    1     2.3884     4.5134   40 O    0 1-1
  41 O    1     2.5404     4.8006   24 C    0 1-1
  41 O    1     2.5405     4.8008   36 C    0 0-1

  42 O    1     1.3796     2.6071    6 B   -1 0 0
  42 O    1     1.3797     2.6072    5 B   -1-1 1
  42 O    1     2.3880     4.5126   40 O   -1 0 0
  42 O    1     2.3881     4.5128   41 O   -1-1 1
  42 O    1     2.5409     4.8016   36 C   -1-1 0
  42 O    1     2.5410     4.8019   30 C   -1 0 1


 SYMMETRY ALLOWED INTERNAL DEGREE(S) OF FREEDOM: 123
 TTTTTTTTTTTTTTTTTTTTTTTTTTTTTT SYMM        TELAPSE        0.30 TCPU        0.30
 TTTTTTTTTTTTTTTTTTTTTTTTTTTTTT INT_SCREEN  TELAPSE        0.33 TCPU        0.32

 DFT PARAMETERS

     ATOM       ELECTRONS   NET CHARGE   R(ANGSTROM)
   1   5  B       5.0000      0.0000     0.89000000
   7   1  H       1.0000      0.0000     1.11000000
  19   6  C       6.0000      0.0000     0.77000000
  37   8  O       8.0000      0.0000     0.74000000

 SIZE OF GRID=    1193371
 TTTTTTTTTTTTTTTTTTTTTTTTTTTTTT MAKE_GRID2  TELAPSE       14.84 TCPU       14.80
 BECKE WEIGHT FUNCTION
 RADSAFE =     2.00
 TOLERANCES - DENSITY:10**- 6; POTENTIAL:10**- 9; GRID WGT:10**-14

 RADIAL INTEGRATION  - INTERVALS (POINTS,UPPER LIMIT):            1( 75,  4.0*R)

 ANGULAR INTEGRATION - INTERVALS (ACCURACY LEVEL [N. POINTS] UPPER LIMIT):
  1(  4[  86]   0.2)  2(  8[ 194]   0.5)  3( 12[ 350]   0.9)  4( 16[ 974]   3.5)
  5( 12[ 350]9999.0)
 TTTTTTTTTTTTTTTTTTTTTTTTTTTTTT INT_CALC    TELAPSE       14.99 TCPU       14.94
 EEEEEEEEEE INT_CALC TERMINATION  DATE 19 02 2026 TIME 17:28:56.4

 *******************************************************************************
 cof-1_z30_L000_incl                                                             
 CRYSTAL - SCF - TYPE OF CALCULATION :  RESTRICTED CLOSED SHELL
 *******************************************************************************

 CAPPA:IS1  2;IS2  2;IS3  8; K PTS MONK NET  20; SYMMOPS:K SPACE   2;G SPACE   1

 TTTTTTTTTTTTTTTTTTTTTTTTTTTTTT SDIK        TELAPSE       15.63 TCPU       23.11

 AAAAAAAAAAAAAAAAAAAAAAAAAAAAAAAAAAAAAAAAAAAAAAAAAAAAAAAAAAAAAAAAAAAAAAAAAAAAAAA
         ATOMIC WAVEFUNCTION(S)


 NUCLEAR CHARGE  5.0  SYMMETRY SPECIES            S    P
 N. ELECTRONS    5.0  NUMBER OF PRIMITIVE GTOS    8    4
                      NUMBER OF CONTRACTED GTOS   4    2
                      NUMBER OF CLOSED SHELLS     2    0
                      OPEN SHELL OCCUPATION       0    1

  ZNUC  SCFIT    TOTAL HF ENERGY   KINETIC ENERGY   VIRIAL THEOREM ACCURACY
   5.0    11    -2.451164084E+01  2.462155050E+01 -1.995536038E+00  1.5E-06

 NUCLEAR CHARGE  1.0  SYMMETRY SPECIES            S
 N. ELECTRONS    1.0  NUMBER OF PRIMITIVE GTOS    4
                      NUMBER OF CONTRACTED GTOS   2
                      NUMBER OF CLOSED SHELLS     0
                      OPEN SHELL OCCUPATION       1

  ZNUC  SCFIT    TOTAL HF ENERGY   KINETIC ENERGY   VIRIAL THEOREM ACCURACY
   1.0     1    -4.977266687E-01  5.190767460E-01 -1.958869132E+00  0.0E+00

 NUCLEAR CHARGE  6.0  SYMMETRY SPECIES            S    P
 N. ELECTRONS    6.0  NUMBER OF PRIMITIVE GTOS    8    4
                      NUMBER OF CONTRACTED GTOS   4    2
                      NUMBER OF CLOSED SHELLS     2    0
                      OPEN SHELL OCCUPATION       0    2

  ZNUC  SCFIT    TOTAL HF ENERGY   KINETIC ENERGY   VIRIAL THEOREM ACCURACY
   6.0     9    -3.766704647E+01  3.775180683E+01 -1.997754800E+00  1.1E-06

 NUCLEAR CHARGE  8.0  SYMMETRY SPECIES            S    P
 N. ELECTRONS    8.0  NUMBER OF PRIMITIVE GTOS    8    4
                      NUMBER OF CONTRACTED GTOS   4    2
                      NUMBER OF CLOSED SHELLS     2    0
                      OPEN SHELL OCCUPATION       0    4

  ZNUC  SCFIT    TOTAL HF ENERGY   KINETIC ENERGY   VIRIAL THEOREM ACCURACY
   8.0    12    -7.477373220E+01  7.477365593E+01 -2.000001020E+00  3.8E-06

 AAAAAAAAAAAAAAAAAAAAAAAAAAAAAAAAAAAAAAAAAAAAAAAAAAAAAAAAAAAAAAAAAAAAAAAAAAAAAAA

 CHARGE NORMALIZATION FACTOR   1.00000000
 TOTAL ATOMIC CHARGES:
   5.0000000   5.0000000   5.0000000   5.0000000   5.0000000   5.0000000
   1.0000000   1.0000000   1.0000000   1.0000000   1.0000000   1.0000000
   1.0000000   1.0000000   1.0000000   1.0000000   1.0000000   1.0000000
   6.0000000   6.0000000   6.0000000   6.0000000   6.0000000   6.0000000
   6.0000000   6.0000000   6.0000000   6.0000000   6.0000000   6.0000000
   6.0000000   6.0000000   6.0000000   6.0000000   6.0000000   6.0000000
   8.0000000   8.0000000   8.0000000   8.0000000   8.0000000   8.0000000
 TTTTTTTTTTTTTTTTTTTTTTTTTTTTTT MOQGAD      TELAPSE       15.70 TCPU       25.21
 TTTTTTTTTTTTTTTTTTTTTTTTTTTTTT SHELLXN     TELAPSE       32.24 TCPU      553.99
 TTTTTTTTTTTTTTTTTTTTTTTTTTTTTT MONMO3      TELAPSE       32.45 TCPU      560.62
 NUMERICALLY INTEGRATED DENSITY    197.9998606727
 TTTTTTTTTTTTTTTTTTTTTTTTTTTTTT NUMDFT      TELAPSE       33.18 TCPU      583.87
 CYC   0 ETOT(AU) -1.296149624862E+03 DETOT -1.30E+03 tst  0.00E+00 PX  1.00E+00
 TTTTTTTTTTTTTTTTTTTTTTTTTTTTTT DIIS        TELAPSE       33.22 TCPU      585.04
 TTTTTTTTTTTTTTTTTTTTTTTTTTTTTT FDIK        TELAPSE       33.74 TCPU      601.52
 INSULATING STATE
 TOP OF VALENCE BANDS -    BAND     99; K    1; EIG -2.5701261E-01 AU
 BOTTOM OF VIRTUAL BANDS - BAND    100; K   17; EIG -2.1162021E-01 AU
 INDIRECT ENERGY BAND GAP:   1.2352 eV
 BOTTOM OF VIRTUAL BANDS - BAND    100; K    1; EIG -9.0724820E-02 AU
 TTTTTTTTTTTTTTTTTTTTTTTTTTTTTT PDIG        TELAPSE       34.02 TCPU      607.31
 CHARGE NORMALIZATION FACTOR   1.00000000
 TOTAL ATOMIC CHARGES:
   4.0986207   4.0986215   4.0987183   4.0986405   4.0985177   4.0988287
   0.7862316   0.7863431   0.7861900   0.7863010   0.7862107   0.7863728
   0.7862029   0.7863324   0.7861908   0.7863701   0.7861835   0.7863328
   6.0638198   6.2767641   6.2766953   6.2767008   6.2765992   6.0629486
   6.0638610   6.2767485   6.2767973   6.2766648   6.2768048   6.0624308
   6.0642052   6.2764601   6.2770142   6.2763800   6.2769921   6.0624022
   8.7118675   8.7119640   8.7119027   8.7122037   8.7122092   8.7123552
 TTTTTTTTTTTTTTTTTTTTTTTTTTTTTT MOQGAD      TELAPSE       34.09 TCPU      607.38
 TTTTTTTTTTTTTTTTTTTTTTTTTTTTTT SHELLXN     TELAPSE       51.17 TCPU     1152.59
 TTTTTTTTTTTTTTTTTTTTTTTTTTTTTT MONMO3      TELAPSE       51.38 TCPU     1159.20
 NUMERICALLY INTEGRATED DENSITY    197.9999304487
 TTTTTTTTTTTTTTTTTTTTTTTTTTTTTT NUMDFT      TELAPSE       52.12 TCPU     1182.95
 CYC   1 ETOT(AU) -1.288724717259E+03 DETOT  7.42E+00 tst  0.00E+00 PX  1.00E+00
 TTTTTTTTTTTTTTTTTTTTTTTTTTTTTT DIIS        TELAPSE       52.17 TCPU     1184.47
 DIIS TEST: 0.11731E+01 AT SCF   CYCLE   1 - MIX   30 %
 TTTTTTTTTTTTTTTTTTTTTTTTTTTTTT FDIK        TELAPSE       52.69 TCPU     1201.12
 INSULATING STATE
 TOP OF VALENCE BANDS -    BAND     99; K    1; EIG -1.4273127E-01 AU
 BOTTOM OF VIRTUAL BANDS - BAND    100; K   17; EIG -1.3483113E-01 AU
 INDIRECT ENERGY BAND GAP:   0.2150 eV
 BOTTOM OF VIRTUAL BANDS - BAND    100; K    1; EIG  6.9736419E-04 AU
 TTTTTTTTTTTTTTTTTTTTTTTTTTTTTT PDIG        TELAPSE       52.98 TCPU     1206.91
 CHARGE NORMALIZATION FACTOR   1.00000000
 TOTAL ATOMIC CHARGES:
   4.6918127   4.6917611   4.6916917   4.6927248   4.6928385   4.6929511
   0.9348329   0.9349276   0.9348083   0.9348501   0.9348441   0.9349294
   0.9348271   0.9349043   0.9348025   0.9349335   0.9347851   0.9349225
   5.8572261   6.1125644   6.1131648   6.1124228   6.1131648   5.8604059
   5.8569824   6.1122375   6.1131975   6.1125316   6.1130326   5.8608782
   5.8571345   6.1124864   6.1130218   6.1127979   6.1129191   5.8606068
   8.3533713   8.3538008   8.3537534   8.3531484   8.3533753   8.3536283
 TTTTTTTTTTTTTTTTTTTTTTTTTTTTTT MOQGAD      TELAPSE       53.04 TCPU     1206.98
 TTTTTTTTTTTTTTTTTTTTTTTTTTTTTT SHELLXN     TELAPSE       70.09 TCPU     1751.20
 TTTTTTTTTTTTTTTTTTTTTTTTTTTTTT MONMO3      TELAPSE       70.30 TCPU     1757.82
 NUMERICALLY INTEGRATED DENSITY    197.9999175748
 TTTTTTTTTTTTTTTTTTTTTTTTTTTTTT NUMDFT      TELAPSE       71.05 TCPU     1781.71
 CYC   2 ETOT(AU) -1.288912461675E+03 DETOT -1.88E-01 tst  4.33E-03 PX  1.51E-01
 TTTTTTTTTTTTTTTTTTTTTTTTTTTTTT DIIS        TELAPSE       71.10 TCPU     1783.27
 DIIS TEST: 0.56484E+00 AT SCF   CYCLE   2 - DIIS ACTIVE - HISTORY:     2 CYCLES
 TTTTTTTTTTTTTTTTTTTTTTTTTTTTTT FDIK        TELAPSE       71.68 TCPU     1801.80
 INSULATING STATE
 TOP OF VALENCE BANDS -    BAND     99; K    1; EIG -1.6658145E-01 AU
 BOTTOM OF VIRTUAL BANDS - BAND    100; K   17; EIG -1.2574130E-01 AU
 INDIRECT ENERGY BAND GAP:   1.1113 eV
 BOTTOM OF VIRTUAL BANDS - BAND    100; K    1; EIG  1.1507545E-02 AU
 TTTTTTTTTTTTTTTTTTTTTTTTTTTTTT PDIG        TELAPSE       71.97 TCPU     1807.59
 CHARGE NORMALIZATION FACTOR   1.00000000
 TOTAL ATOMIC CHARGES:
   4.4418968   4.4416312   4.4417799   4.4408549   4.4407153   4.4407228
   0.8973986   0.8975216   0.8973612   0.8974509   0.8973476   0.8975761
   0.8974052   0.8974772   0.8973667   0.8975221   0.8974233   0.8974600
   5.9054950   6.1755614   6.1742330   6.1754713   6.1741535   5.9024235
   5.9057267   6.1756041   6.1741895   6.1756239   6.1741266   5.9019122
   5.9059016   6.1754080   6.1743575   6.1754471   6.1742574   5.9019319
   8.5101333   8.5102778   8.5102529   8.5101112   8.5102151   8.5102742
 TTTTTTTTTTTTTTTTTTTTTTTTTTTTTT MOQGAD      TELAPSE       72.04 TCPU     1807.66
 TTTTTTTTTTTTTTTTTTTTTTTTTTTTTT SHELLXN     TELAPSE       89.13 TCPU     2353.30
 TTTTTTTTTTTTTTTTTTTTTTTTTTTTTT MONMO3      TELAPSE       89.34 TCPU     2359.94
 NUMERICALLY INTEGRATED DENSITY    197.9999155995
 TTTTTTTTTTTTTTTTTTTTTTTTTTTTTT NUMDFT      TELAPSE       90.08 TCPU     2383.75
 CYC   3 ETOT(AU) -1.289030413578E+03 DETOT -1.18E-01 tst  8.49E-04 PX  5.61E-02
 TTTTTTTTTTTTTTTTTTTTTTTTTTTTTT DIIS        TELAPSE       90.14 TCPU     2385.59
 DIIS TEST: 0.13393E-01 AT SCF   CYCLE   3 - DIIS ACTIVE - HISTORY:     3 CYCLES
 TTTTTTTTTTTTTTTTTTTTTTTTTTTTTT FDIK        TELAPSE       90.67 TCPU     2402.36
 INSULATING STATE
 TOP OF VALENCE BANDS -    BAND     99; K    1; EIG -1.7155438E-01 AU
 BOTTOM OF VIRTUAL BANDS - BAND    100; K   17; EIG -1.3880885E-01 AU
 INDIRECT ENERGY BAND GAP:   0.8911 eV
 BOTTOM OF VIRTUAL BANDS - BAND    100; K    1; EIG -2.4838515E-03 AU
 TTTTTTTTTTTTTTTTTTTTTTTTTTTTTT PDIG        TELAPSE       90.96 TCPU     2408.14
 CHARGE NORMALIZATION FACTOR   1.00000000
 TOTAL ATOMIC CHARGES:
   4.4571144   4.4570233   4.4570518   4.4593772   4.4593664   4.4594560
   0.8864285   0.8865047   0.8864008   0.8864188   0.8864517   0.8864895
   0.8864537   0.8864413   0.8864231   0.8864770   0.8864273   0.8864556
   5.9594931   6.1502515   6.1531571   6.1501432   6.1532022   5.9683074
   5.9589682   6.1499274   6.1533717   6.1499523   6.1533961   5.9688016
   5.9593178   6.1500050   6.1533297   6.1500243   6.1533633   5.9685056
   8.5013013   8.5016692   8.5016277   8.5015020   8.5016573   8.5019641
 TTTTTTTTTTTTTTTTTTTTTTTTTTTTTT MOQGAD      TELAPSE       91.02 TCPU     2408.21
 TTTTTTTTTTTTTTTTTTTTTTTTTTTTTT SHELLXN     TELAPSE      108.17 TCPU     2955.56
 TTTTTTTTTTTTTTTTTTTTTTTTTTTTTT MONMO3      TELAPSE      108.38 TCPU     2962.16
 NUMERICALLY INTEGRATED DENSITY    197.9999181022
 TTTTTTTTTTTTTTTTTTTTTTTTTTTTTT NUMDFT      TELAPSE      109.12 TCPU     2985.94
 CYC   4 ETOT(AU) -1.289032601317E+03 DETOT -2.19E-03 tst  9.52E-05 PX  1.49E-02
 TTTTTTTTTTTTTTTTTTTTTTTTTTTTTT DIIS        TELAPSE      109.18 TCPU     2987.81
 DIIS TEST: 0.53010E-02 AT SCF   CYCLE   4 - DIIS ACTIVE - HISTORY:     4 CYCLES
 TTTTTTTTTTTTTTTTTTTTTTTTTTTTTT FDIK        TELAPSE      109.68 TCPU     3003.84
 INSULATING STATE
 TOP OF VALENCE BANDS -    BAND     99; K    1; EIG -1.7349957E-01 AU
 BOTTOM OF VIRTUAL BANDS - BAND    100; K   17; EIG -1.3622404E-01 AU
 INDIRECT ENERGY BAND GAP:   1.0143 eV
 BOTTOM OF VIRTUAL BANDS - BAND    100; K    1; EIG  8.7313098E-05 AU
 TTTTTTTTTTTTTTTTTTTTTTTTTTTTTT PDIG        TELAPSE      109.97 TCPU     3009.63
 CHARGE NORMALIZATION FACTOR   1.00000000
 TOTAL ATOMIC CHARGES:
   4.4593870   4.4591307   4.4592669   4.4570516   4.4569426   4.4569608
   0.8858880   0.8861097   0.8858453   0.8860428   0.8858431   0.8861600
   0.8858670   0.8860903   0.8858435   0.8861213   0.8858712   0.8860789
   5.9353085   6.1716431   6.1677346   6.1715536   6.1676966   5.9254255
   5.9356525   6.1716373   6.1676822   6.1718355   6.1674845   5.9249322
   5.9357459   6.1715070   6.1678151   6.1717424   6.1675820   5.9249549
   8.5003298   8.5004949   8.5004438   8.4999821   8.5001301   8.5001853
 TTTTTTTTTTTTTTTTTTTTTTTTTTTTTT MOQGAD      TELAPSE      110.04 TCPU     3009.69
 TTTTTTTTTTTTTTTTTTTTTTTTTTTTTT SHELLXN     TELAPSE      127.14 TCPU     3555.46
 TTTTTTTTTTTTTTTTTTTTTTTTTTTTTT MONMO3      TELAPSE      127.34 TCPU     3562.14
 NUMERICALLY INTEGRATED DENSITY    197.9999179943
 TTTTTTTTTTTTTTTTTTTTTTTTTTTTTT NUMDFT      TELAPSE      128.09 TCPU     3586.00
 CYC   5 ETOT(AU) -1.289033709249E+03 DETOT -1.11E-03 tst  2.65E-05 PX  8.40E-03
 TTTTTTTTTTTTTTTTTTTTTTTTTTTTTT DIIS        TELAPSE      128.16 TCPU     3588.35
 DIIS TEST: 0.68469E-03 AT SCF   CYCLE   5 - DIIS ACTIVE - HISTORY:     5 CYCLES
 TTTTTTTTTTTTTTTTTTTTTTTTTTTTTT FDIK        TELAPSE      128.68 TCPU     3604.93
 INSULATING STATE
 TOP OF VALENCE BANDS -    BAND     99; K    1; EIG -1.7271746E-01 AU
 BOTTOM OF VIRTUAL BANDS - BAND    100; K   17; EIG -1.3571354E-01 AU
 INDIRECT ENERGY BAND GAP:   1.0069 eV
 BOTTOM OF VIRTUAL BANDS - BAND    100; K    1; EIG  6.7941267E-04 AU
 TTTTTTTTTTTTTTTTTTTTTTTTTTTTTT PDIG        TELAPSE      128.98 TCPU     3610.73
 CHARGE NORMALIZATION FACTOR   1.00000000
 TOTAL ATOMIC CHARGES:
   4.4558485   4.4557076   4.4557651   4.4590470   4.4590130   4.4590725
   0.8876613   0.8876541   0.8876292   0.8875770   0.8876535   0.8876679
   0.8876821   0.8875956   0.8876431   0.8876425   0.8876736   0.8875986
   5.9246874   6.1647853   6.1696694   6.1647009   6.1696280   5.9385909
   5.9243462   6.1646243   6.1697674   6.1645223   6.1698657   5.9387926
   5.9246616   6.1646136   6.1697818   6.1644905   6.1699005   5.9385927
   8.5009131   8.5012277   8.5012081   8.5013380   8.5014557   8.5017041
 TTTTTTTTTTTTTTTTTTTTTTTTTTTTTT MOQGAD      TELAPSE      129.05 TCPU     3610.79
 TTTTTTTTTTTTTTTTTTTTTTTTTTTTTT SHELLXN     TELAPSE      146.14 TCPU     4156.47
 TTTTTTTTTTTTTTTTTTTTTTTTTTTTTT MONMO3      TELAPSE      146.35 TCPU     4163.18
 NUMERICALLY INTEGRATED DENSITY    197.9999179373
 TTTTTTTTTTTTTTTTTTTTTTTTTTTTTT NUMDFT      TELAPSE      147.10 TCPU     4186.99
 CYC   6 ETOT(AU) -1.289033666192E+03 DETOT  4.31E-05 tst  1.16E-05 PX  3.58E-03
 TTTTTTTTTTTTTTTTTTTTTTTTTTTTTT DIIS        TELAPSE      147.18 TCPU     4189.49
 DIIS TEST: 0.83522E-03 AT SCF   CYCLE   6 - DIIS ACTIVE - HISTORY:     6 CYCLES
 TTTTTTTTTTTTTTTTTTTTTTTTTTTTTT FDIK        TELAPSE      147.69 TCPU     4206.08
 INSULATING STATE
 TOP OF VALENCE BANDS -    BAND     99; K    1; EIG -1.7242475E-01 AU
 BOTTOM OF VIRTUAL BANDS - BAND    100; K   17; EIG -1.3571038E-01 AU
 INDIRECT ENERGY BAND GAP:   0.9990 eV
 BOTTOM OF VIRTUAL BANDS - BAND    100; K    1; EIG  7.0213826E-04 AU
 TTTTTTTTTTTTTTTTTTTTTTTTTTTTTT PDIG        TELAPSE      147.99 TCPU     4211.87
 CHARGE NORMALIZATION FACTOR   1.00000000
 TOTAL ATOMIC CHARGES:
   4.4574824   4.4573090   4.4573906   4.4574343   4.4573770   4.4574280
   0.8880831   0.8882286   0.8880506   0.8881510   0.8880728   0.8882454
   0.8880940   0.8881796   0.8880639   0.8882163   0.8880863   0.8881800
   5.9341308   6.1656924   6.1652912   6.1655847   6.1652809   5.9339147
   5.9339854   6.1655259   6.1653881   6.1655870   6.1653372   5.9339281
   5.9342441   6.1654802   6.1654425   6.1655528   6.1653774   5.9337798
   8.5012537   8.5015133   8.5014772   8.5012352   8.5013713   8.5015531
 TTTTTTTTTTTTTTTTTTTTTTTTTTTTTT MOQGAD      TELAPSE      148.05 TCPU     4211.93
 TTTTTTTTTTTTTTTTTTTTTTTTTTTTTT SHELLXN     TELAPSE      165.13 TCPU     4756.97
 TTTTTTTTTTTTTTTTTTTTTTTTTTTTTT MONMO3      TELAPSE      165.33 TCPU     4763.60
 NUMERICALLY INTEGRATED DENSITY    197.9999179135
 TTTTTTTTTTTTTTTTTTTTTTTTTTTTTT NUMDFT      TELAPSE      166.08 TCPU     4787.28
 CYC   7 ETOT(AU) -1.289033885306E+03 DETOT -2.19E-04 tst  3.95E-06 PX  2.31E-03
 TTTTTTTTTTTTTTTTTTTTTTTTTTTTTT DIIS        TELAPSE      166.16 TCPU     4790.06
 DIIS TEST: 0.84048E-05 AT SCF   CYCLE   7 - DIIS ACTIVE - HISTORY:     7 CYCLES
 TTTTTTTTTTTTTTTTTTTTTTTTTTTTTT FDIK        TELAPSE      166.67 TCPU     4806.29
 INSULATING STATE
 TOP OF VALENCE BANDS -    BAND     99; K    1; EIG -1.7262675E-01 AU
 BOTTOM OF VIRTUAL BANDS - BAND    100; K   17; EIG -1.3584914E-01 AU
 INDIRECT ENERGY BAND GAP:   1.0008 eV
 BOTTOM OF VIRTUAL BANDS - BAND    100; K    1; EIG  5.4960857E-04 AU
 TTTTTTTTTTTTTTTTTTTTTTTTTTTTTT PDIG        TELAPSE      166.96 TCPU     4812.08
 CHARGE NORMALIZATION FACTOR   1.00000000
 TOTAL ATOMIC CHARGES:
   4.4577800   4.4575679   4.4576742   4.4579113   4.4578303   4.4578665
   0.8877382   0.8878564   0.8877001   0.8877845   0.8877099   0.8878908
   0.8877343   0.8878217   0.8877054   0.8878577   0.8877326   0.8878163
   5.9336204   6.1659189   6.1659189   6.1658287   6.1658896   5.9343569
   5.9336968   6.1658405   6.1659320   6.1659421   6.1658346   5.9341466
   5.9338766   6.1657614   6.1660180   6.1658799   6.1659038   5.9340766
   8.5008002   8.5010263   8.5009834   8.5007842   8.5009262   8.5010595
 TTTTTTTTTTTTTTTTTTTTTTTTTTTTTT MOQGAD      TELAPSE      167.02 TCPU     4812.15
 TTTTTTTTTTTTTTTTTTTTTTTTTTTTTT SHELLXN     TELAPSE      184.09 TCPU     5356.96
 TTTTTTTTTTTTTTTTTTTTTTTTTTTTTT MONMO3      TELAPSE      184.30 TCPU     5363.56
 NUMERICALLY INTEGRATED DENSITY    197.9999178938
 TTTTTTTTTTTTTTTTTTTTTTTTTTTTTT NUMDFT      TELAPSE      185.04 TCPU     5387.31
 CYC   8 ETOT(AU) -1.289033887163E+03 DETOT -1.86E-06 tst  1.62E-08 PX  2.22E-04
 TTTTTTTTTTTTTTTTTTTTTTTTTTTTTT DIIS        TELAPSE      185.13 TCPU     5390.12
 DIIS TEST: 0.44974E-06 AT SCF   CYCLE   8 - DIIS ACTIVE - HISTORY:     8 CYCLES
 TTTTTTTTTTTTTTTTTTTTTTTTTTTTTT FDIK        TELAPSE      185.67 TCPU     5407.53
 INSULATING STATE
 TOP OF VALENCE BANDS -    BAND     99; K    1; EIG -1.7260174E-01 AU
 BOTTOM OF VIRTUAL BANDS - BAND    100; K   17; EIG -1.3585738E-01 AU
 INDIRECT ENERGY BAND GAP:   0.9999 eV
 BOTTOM OF VIRTUAL BANDS - BAND    100; K    1; EIG  5.5210136E-04 AU
 TTTTTTTTTTTTTTTTTTTTTTTTTTTTTT PDIG        TELAPSE      185.98 TCPU     5413.34
 CHARGE NORMALIZATION FACTOR   1.00000000
 TOTAL ATOMIC CHARGES:
   4.4577514   4.4575847   4.4576609   4.4578685   4.4578170   4.4578688
   0.8877553   0.8878928   0.8877219   0.8878162   0.8877431   0.8879112
   0.8877666   0.8878430   0.8877338   0.8878827   0.8877591   0.8878434
   5.9336276   6.1659632   6.1658186   6.1658675   6.1657953   5.9340522
   5.9334506   6.1658122   6.1659020   6.1658263   6.1658956   5.9340963
   5.9337133   6.1657757   6.1659461   6.1657911   6.1659371   5.9339437
   8.5009284   8.5012019   8.5011706   8.5009352   8.5010660   8.5012630
 TTTTTTTTTTTTTTTTTTTTTTTTTTTTTT MOQGAD      TELAPSE      186.04 TCPU     5413.40
 TTTTTTTTTTTTTTTTTTTTTTTTTTTTTT SHELLXN     TELAPSE      203.18 TCPU     5960.51
 TTTTTTTTTTTTTTTTTTTTTTTTTTTTTT MONMO3      TELAPSE      203.40 TCPU     5967.24
 NUMERICALLY INTEGRATED DENSITY    197.9999178930
 TTTTTTTTTTTTTTTTTTTTTTTTTTTTTT NUMDFT      TELAPSE      204.14 TCPU     5991.04
 CYC   9 ETOT(AU) -1.289033887238E+03 DETOT -7.52E-08 tst  1.32E-09 PX  7.98E-05
 TTTTTTTTTTTTTTTTTTTTTTTTTTTTTT DIIS        TELAPSE      204.24 TCPU     5994.16
 DIIS TEST: 0.96785E-07 AT SCF   CYCLE   9 - DIIS ACTIVE - HISTORY:     9 CYCLES
 TTTTTTTTTTTTTTTTTTTTTTTTTTTTTT FDIK        TELAPSE      204.76 TCPU     6011.02
 INSULATING STATE
 TOP OF VALENCE BANDS -    BAND     99; K    1; EIG -1.7260720E-01 AU
 BOTTOM OF VIRTUAL BANDS - BAND    100; K   17; EIG -1.3585358E-01 AU
 INDIRECT ENERGY BAND GAP:   1.0001 eV
 BOTTOM OF VIRTUAL BANDS - BAND    100; K    1; EIG  5.5441693E-04 AU
 TTTTTTTTTTTTTTTTTTTTTTTTTTTTTT PDIG        TELAPSE      205.06 TCPU     6016.82
 CHARGE NORMALIZATION FACTOR   1.00000000
 TOTAL ATOMIC CHARGES:
   4.4577382   4.4575312   4.4576350   4.4578610   4.4577820   4.4578211
   0.8877562   0.8878800   0.8877200   0.8878062   0.8877336   0.8879089
   0.8877549   0.8878429   0.8877282   0.8878764   0.8877516   0.8878390
   5.9335451   6.1659143   6.1658785   6.1658102   6.1658634   5.9342321
   5.9335951   6.1658038   6.1659223   6.1659322   6.1658001   5.9340484
   5.9337887   6.1657254   6.1660081   6.1658782   6.1658606   5.9339650
   8.5009497   8.5011721   8.5011276   8.5009314   8.5010753   8.5012061
 TTTTTTTTTTTTTTTTTTTTTTTTTTTTTT MOQGAD      TELAPSE      205.12 TCPU     6016.88
 TTTTTTTTTTTTTTTTTTTTTTTTTTTTTT SHELLXN     TELAPSE      222.23 TCPU     6562.74
 +++ ENERGIES IN A.U. +++
 ::: EXT EL-POLE                                  -1.6876607276873E+03
 ::: EXT EL-SPHEROPOLE                             1.8929586264945E+01
 ::: BIELET ZONE E-E                               2.7130897113532E+03
 ::: TOTAL E-E                                     1.0443585699308E+03
 ::: TOTAL E-N + N-E                              -3.9079851270855E+03
 ::: TOTAL N-N                                     4.2800453428047E+02
 ::: KINETIC ENERGY                                1.2804250216881E+03
 ::: PSEUDO TOTAL   ENERGY                        -1.1551970011862E+03
 ::: VIRIAL COEFFICIENT                            1.0514152111148E+00
 TTTTTTTTTTTTTTTTTTTTTTTTTTTTTT MONMO3      TELAPSE      222.44 TCPU     6569.38
 NUMERICALLY INTEGRATED DENSITY    197.9999178924
 EXCHANGE ENERGY: -0.126084115260E+03  CORRELATION ENERGY: -0.775277082830E+01
 TTTTTTTTTTTTTTTTTTTTTTTTTTTTTT NUMDFT      TELAPSE      223.18 TCPU     6593.18
 CYC  10 ETOT(AU) -1.289033887275E+03 DETOT -3.63E-08 tst  6.52E-10 PX  7.98E-05

 == SCF ENDED - CONVERGENCE ON ENERGY      E(AU) -1.2890338872746E+03 CYCLES  10


 ENERGY EXPRESSION=HARTREE+FOCK EXCH*0.00000+(HSESOL     EXCH)*1.00000+PBESOL     CORR


 TOTAL ENERGY(DFT)(AU)( 10) -1.2890338872746E+03 DE-3.6E-08 tester 6.5E-10
 TTTTTTTTTTTTTTTTTTTTTTTTTTTTTT EDFT        TELAPSE      223.30 TCPU     6596.80
 
 INFORMATION **** DFTD3 ENERGY **** CALCULATE DFTD3 ENERGY

           DFT-D V3(BJ)
 DF                                         hsesol3c  
 parameters
 s6       :    1.0000
 s8       :    0.0000
 a1       :    0.5196
 a2       :    4.9385
 k1 k3    :   16.0000   -4.0000
 Cutoff   :   50.2022
 CN-Cutoff:   21.1671
 ABC-Cutoff:   21.1671
 
 Edisp /kcal,au:   -36.1648 -0.05763233

 E6    /kcal :   -38.9779
 E8    /kcal :     0.0000
 E6(ABC) "   :   2.813048
 
 INFORMATION **** DFTD3 ENERGY **** NORMAL TERMINATION OF DFTD3 MODULE

 GCP ENERGY CALCULATION
  level        hsesol3c            basis:hsesol3c
  Nbf            474
  Atoms           42

  Parameters: 
  sigma     1.0000
  eta       1.4281
  alpha     0.2936
  beta      1.9467

  dmp_scal      4.0000
  dmp_exp       6.0000
 cutoffs: 
   distance [bohr] 60.0
   noise    [a.u.] 2.2E-16
 SR-damping   T
 ** gCP correction **
  Egcp:        0.0892084149 / (a.u.) ||      55.9791 / (kcal/mol)
 INFORMATION **** GCP **** NORMAL TERMINATION OF GCP MODULE

 *******************************************************************************

 DFT-D3-GCP DISPERSION AND COUNTERPOISE CORRECTION

 D3 DISPERSION ENERGY (AU)      -5.7632330145352E-02
 GCP ENERGY (AU)                 8.9208414850371E-02
 TOTAL ENERGY + DISP + GCP (AU) -1.2890023111899E+03

 *******************************************************************************

 EIGENVECTORS IN FORTRAN UNIT  8
 TTTTTTTTTTTTTTTTTTTTTTTTTTTTTT END         TELAPSE      225.09 TCPU     6600.48
 EEEEEEEEEE TERMINATION  DATE 19 02 2026 TIME 17:32:26.5
