 Default number of threads is:           32

         
 *******************************************************************************
 *                                                                             *
 *                               CRYSTAL23                                     *
 *                      public : 1.0.1 - October 2022                          *
 *                       HTTP://WWW.CRYSTAL.UNITO.IT                           *
 *                                                                             *
 *                              MAIN AUTHORS                                   *
 *                                                                             *
 *  R. DOVESI(1,11), V.R. SAUNDERS(2), C. ROETTI(1,11), R. ORLANDO(1,11),      *
 *  C.M. ZICOVICH-WILSON(1,3), F. PASCALE(4), B. CIVALLERI(1,11),              *
 *  K. DOLL(5), N.M. HARRISON(6), I.J. BUSH(7), Ph. D'ARCO(8),                 *
 *  M. LLUNELL(9), M. CAUSA'(10), Y. NOEL(8), L. MASCHIO(1,11), A. ERBA(1,11)  *
 *  M. RE'RAT(14), S. CASASSA(1,11), B.G. SEARLE(2), J.K. DESMARAIS(1)         *
 *                                                                             *
 *        CONTRIBUTIONS TO THE CODE HAVE ALSO BEEN GIVEN BY                    *
 *                                                                             *
 *  M. FERRABONE(1,11), M. DE LA PIERRE(1,11), M. FERRERO(1,11),               *
 *  J. BAIMA(1,11), E. ALBANESE(1,11), M.F. PEINTINGER(12), R. BAST(13),       *
 *  B. KIRTMAN(15), V. LACIVITA(1,11), R. DEMICHELIS(1,16)                     *
 *  G. BRANDEBURG(17), S. SALUSTRO(1,11), G. SANSONE(1,11)                     *
 *  M.T. RUGGIERO(18), L.E. DAGA(1), L. DONA'(1), A. COSSARD(1)                *
 *                                                                             *
 * (1) THEORETICAL CHEMISTRY GROUP - UNIVERSITA' DI TORINO - TORINO (ITALY)    *
 * (2) SCIENTIFIC COMPUTING DEPARTMENT - STFC DARESBURY (UK)                   *
 * (3) UNIVERSIDAD AUTONOMA DEL ESTADO DE MORELOS - CUERNAVACA (MEXICO)        *
 * (4) UNIVERSITE' DE LORRAINE - NANCY (FRANCE)                                *
 * (5) UNIVERSITAET STUTTGART- STUTTGART (GERMANY)                             *
 * (6) IMPERIAL COLLEGE - LONDON (UK)                                          *
 * (7) SCIENTIFIC COMPUTING DEPARTMENT - STFC RAL (UK)                         *
 * (8) UPMC - SORBONNE UNIVERSITES - PARIS (FRANCE)                            *
 * (9) UNIVERSIDAD DE BARCELONA - BARCELONA (SPAIN)                            *
 *(10) UNIVERSITA' DI NAPOLI "FEDERICO II" - NAPOLI (ITALY)                    *
 *(11) NIS - NANOSTRUCTURED INTERFACES AND SURFACES - TORINO (ITALY)           *
 *(12) MPI FUER CHEMISCHE ENERGIEKONVERSION - MUELHEIM AN DER RUHR (GERMANY)   *
 *(13) UNIVERSITY OF TROMSO - TROMSO (NORWAY)                                  *
 *(14) UNIVERSITE' DE PAU ET DES PAYS DE L'ADOUR - PAU (FRANCE)                *
 *(15) UNIVERSITY OF CALIFORNIA SANTA BARBARA - SANTA BARBARA (USA)            *
 *(16) CURTIN UNIVERSITY - PERTH (AUSTRALIA)                                   *
 *(17) UNIVERSITY COLLEGE LONDON - LONDON (UK)                                 *
 *(18) UNIVERSITY OF VERMONT - BURLINGTON (USA)                                *
 *                                                                             *
 *******************************************************************************
 EEEEEEEEEE STARTING  DATE 19 02 2026 TIME 19:55:15.3
 cof-1_z32_L080_serr                                                             

 CRYSTAL CALCULATION
 (INPUT ACCORDING TO THE INTERNATIONAL TABLES FOR X-RAY CRYSTALLOGRAPHY)
 CRYSTAL FAMILY                       :  TRICLINIC   
 CRYSTAL CLASS  (GROTH - 1921)        :  TRICLINIC PEDIAL                     

 SPACE GROUP (NONCENTROSYMMETRIC)     :  P 1             

 LATTICE PARAMETERS  (ANGSTROMS AND DEGREES) - CONVENTIONAL CELL
        A           B           C        ALPHA        BETA       GAMMA
    15.02361    15.02392     6.40000    90.00032    89.99994   119.99596


 NUMBER OF IRREDUCIBLE ATOMS IN THE CONVENTIONAL CELL:   84

 INPUT COORDINATES

 ATOM AT. N.              COORDINATES
   1   5     6.136805400000E-01  2.273182200000E-01  2.507463700000E-01
   2   5     9.210667600000E-01  8.421531600000E-01  7.507463700000E-01
   3   5     7.727362000000E-01  3.863778800000E-01  2.507463800000E-01
   4   5     8.012242000000E-02  1.212820000000E-03  7.507463800000E-01
   5   5     6.136762700000E-01  3.863606700000E-01  2.491771200000E-01
   6   5     9.210624900000E-01  1.195610000000E-03  7.491771300000E-01
   7   5     2.272552500000E-01  6.136332200000E-01  2.507463700000E-01
   8   5     5.346414700000E-01  2.284681600000E-01  7.507463700000E-01
   9   5     3.863632200000E-01  6.136124500000E-01  2.507463700000E-01
  10   5     6.937494400000E-01  2.284473900000E-01  7.507463700000E-01
  11   5     3.863435000000E-01  7.727516500000E-01  2.491771300000E-01
  12   5     6.937297200000E-01  3.875865900000E-01  7.491771200000E-01
  13   1     9.030436200000E-01  3.089300500000E-01  2.474930100000E-01
  14   1     2.104298400000E-01  9.237649900000E-01  7.474930000000E-01
  15   1     9.663453000000E-02  6.910534400000E-01  2.469955100000E-01
  16   1     4.040207500000E-01  3.058883800000E-01  7.469955100000E-01
  17   1     9.029714200000E-01  5.940724300000E-01  2.469189400000E-01
  18   1     2.103576400000E-01  2.089073700000E-01  7.469189400000E-01
  19   1     9.673618000000E-02  4.056849400000E-01  2.469380400000E-01
  20   1     4.041224000000E-01  2.051988000000E-02  7.469380400000E-01
  21   1     6.910324000000E-01  9.700412000000E-02  2.525070200000E-01
  22   1     9.984186200000E-01  7.118390600000E-01  7.525070200000E-01
  23   1     3.089297200000E-01  9.034373100000E-01  2.530045500000E-01
  24   1     6.163159400000E-01  5.182722500000E-01  7.530045500000E-01
  25   1     4.058699900000E-01  9.704998000000E-02  2.530811600000E-01
  26   1     7.132562100000E-01  7.118849200000E-01  7.530811600000E-01
  27   1     5.943122100000E-01  9.033473200000E-01  2.530619400000E-01
  28   1     9.016984300000E-01  5.181822600000E-01  7.530619400000E-01
  29   1     6.910727400000E-01  5.940542100000E-01  2.474930300000E-01
  30   1     9.984589600000E-01  2.088891500000E-01  7.474930300000E-01
  31   1     3.089618300000E-01  4.056093300000E-01  2.469954700000E-01
  32   1     6.163480500000E-01  2.044427000000E-02  7.469954700000E-01
  33   1     4.058405700000E-01  3.088232500000E-01  2.469188800000E-01
  34   1     7.132267900000E-01  9.236581900000E-01  7.469188800000E-01
  35   1     5.942908800000E-01  6.909579300000E-01  2.469381000000E-01
  36   1     9.016771000000E-01  3.057928700000E-01  7.469381000000E-01
  37   6     8.918903100000E-01  4.459436900000E-01  2.491197000000E-01
  38   6     1.992765300000E-01  6.077863000000E-02  7.491197100000E-01
  39   6     9.464891100000E-01  3.927856300000E-01  2.475695600000E-01
  40   6     2.538753300000E-01  7.620570000000E-03  7.475695700000E-01
  41   6     5.338812000000E-02  6.071853000000E-01  2.474356500000E-01
  42   6     3.607743400000E-01  2.220202400000E-01  7.474356500000E-01
  43   6     9.464521100000E-01  5.536921900000E-01  2.478375300000E-01
  44   6     2.538383300000E-01  1.685271300000E-01  7.478375300000E-01
  45   6     5.342634000000E-02  4.462499700000E-01  2.468040800000E-01
  46   6     3.608125600000E-01  6.108491000000E-02  7.468040800000E-01
  47   6     1.080358900000E-01  5.540356300000E-01  2.478566500000E-01
  48   6     4.154221100000E-01  1.688705700000E-01  7.478566500000E-01
  49   6     5.540394200000E-01  1.081684600000E-01  2.508803400000E-01
  50   6     8.614256400000E-01  7.230034000000E-01  7.508803400000E-01
  51   6     6.071778500000E-01  5.355594000000E-02  2.524304500000E-01
  52   6     9.145640700000E-01  6.683908800000E-01  7.524304500000E-01
  53   6     3.927986700000E-01  9.466631600000E-01  2.525644100000E-01
  54   6     7.001848900000E-01  5.614981000000E-01  7.525644100000E-01
  55   6     4.462875800000E-01  5.360286000000E-02  2.521625500000E-01
  56   6     7.536738000000E-01  6.684378000000E-01  7.521625500000E-01
  57   6     5.537168500000E-01  9.466235600000E-01  2.531959200000E-01
  58   6     8.611030700000E-01  5.614585000000E-01  7.531959200000E-01
  59   6     4.459279100000E-01  8.919920600000E-01  2.521433800000E-01
  60   6     7.533141300000E-01  5.068270000000E-01  7.521433800000E-01
  61   6     5.540448700000E-01  4.458745500000E-01  2.491197000000E-01
  62   6     8.614310900000E-01  6.070949000000E-02  7.491197000000E-01
  63   6     6.072102200000E-01  5.536257800000E-01  2.475696000000E-01
  64   6     9.145964400000E-01  1.684607200000E-01  7.475696000000E-01
  65   6     3.928233700000E-01  4.461720300000E-01  2.474356200000E-01
  66   6     7.002095900000E-01  6.100697000000E-02  7.474356200000E-01
  67   6     4.462872600000E-01  3.926899900000E-01  2.478374900000E-01
  68   6     7.536734800000E-01  7.524930000000E-03  7.478374900000E-01
  69   6     5.537429600000E-01  6.070980000000E-01  2.468041200000E-01
  70   6     8.611291800000E-01  2.219329400000E-01  7.468041200000E-01
  71   6     4.459599800000E-01  5.539582300000E-01  2.478566500000E-01
  72   6     7.533462000000E-01  1.687931700000E-01  7.478566500000E-01
  73   8     5.607366800000E-01  2.803706300000E-01  2.495981300000E-01
  74   8     8.681229000000E-01  8.952055700000E-01  7.495981400000E-01
  75   8     7.196817000000E-01  2.803783300000E-01  2.529088600000E-01
  76   8     2.706792000000E-02  8.952132700000E-01  7.529088700000E-01
  77   8     7.196794200000E-01  4.393234600000E-01  2.479140800000E-01
  78   8     2.706564000000E-02  5.415840000000E-02  7.479140800000E-01
  79   8     2.803245100000E-01  7.196511100000E-01  2.495981500000E-01
  80   8     5.877107300000E-01  3.344860500000E-01  7.495981500000E-01
  81   8     2.803439700000E-01  5.606956100000E-01  2.529088600000E-01
  82   8     5.877301900000E-01  1.755305500000E-01  7.529088700000E-01
  83   8     4.392638400000E-01  7.196354200000E-01  2.479140600000E-01
  84   8     7.466500600000E-01  3.344703600000E-01  7.479140700000E-01

 *******************************************************************************

 << INFORMATION >>: FROM NOW ON, ALL COORDINATES REFER TO THE PRIMITIVE CELL

 *******************************************************************************

 LATTICE PARAMETERS  (ANGSTROMS AND DEGREES) - PRIMITIVE CELL
       A          B          C        ALPHA      BETA     GAMMA        VOLUME
   15.02361   15.02392    6.40000    90.00032  89.99994 119.99596   1251.081907

 COORDINATES OF THE EQUIVALENT ATOMS (FRACTIONAL UNITS)

 N. ATOM EQUIV AT. N.          X                  Y                  Z

   1   1   1    5 B    -3.86319460000E-01  2.27318220000E-01  2.50746370000E-01

   2   2   1    5 B    -7.89332400000E-02 -1.57846840000E-01 -2.49253630000E-01

   3   3   1    5 B    -2.27263800000E-01  3.86377880000E-01  2.50746380000E-01

   4   4   1    5 B     8.01224200000E-02  1.21282000000E-03 -2.49253620000E-01

   5   5   1    5 B    -3.86323730000E-01  3.86360670000E-01  2.49177120000E-01

   6   6   1    5 B    -7.89375100000E-02  1.19561000000E-03 -2.50822870000E-01

   7   7   1    5 B     2.27255250000E-01 -3.86366780000E-01  2.50746370000E-01

   8   8   1    5 B    -4.65358530000E-01  2.28468160000E-01 -2.49253630000E-01

   9   9   1    5 B     3.86363220000E-01 -3.86387550000E-01  2.50746370000E-01

  10  10   1    5 B    -3.06250560000E-01  2.28447390000E-01 -2.49253630000E-01

  11  11   1    5 B     3.86343500000E-01 -2.27248350000E-01  2.49177130000E-01

  12  12   1    5 B    -3.06270280000E-01  3.87586590000E-01 -2.50822880000E-01

  13  13   1    1 H    -9.69563800000E-02  3.08930050000E-01  2.47493010000E-01

  14  14   1    1 H     2.10429840000E-01 -7.62350100000E-02 -2.52507000000E-01

  15  15   1    1 H     9.66345300000E-02 -3.08946560000E-01  2.46995510000E-01

  16  16   1    1 H     4.04020750000E-01  3.05888380000E-01 -2.53004490000E-01

  17  17   1    1 H    -9.70285800000E-02 -4.05927570000E-01  2.46918940000E-01

  18  18   1    1 H     2.10357640000E-01  2.08907370000E-01 -2.53081060000E-01

  19  19   1    1 H     9.67361800000E-02  4.05684940000E-01  2.46938040000E-01

  20  20   1    1 H     4.04122400000E-01  2.05198800000E-02 -2.53061960000E-01

  21  21   1    1 H    -3.08967600000E-01  9.70041200000E-02  2.52507020000E-01

  22  22   1    1 H    -1.58138000000E-03 -2.88160940000E-01 -2.47492980000E-01

  23  23   1    1 H     3.08929720000E-01 -9.65626900000E-02  2.53004550000E-01

  24  24   1    1 H    -3.83684060000E-01 -4.81727750000E-01 -2.46995450000E-01

  25  25   1    1 H     4.05869990000E-01  9.70499800000E-02  2.53081160000E-01

  26  26   1    1 H    -2.86743790000E-01 -2.88115080000E-01 -2.46918840000E-01

  27  27   1    1 H    -4.05687790000E-01 -9.66526800000E-02  2.53061940000E-01

  28  28   1    1 H    -9.83015700000E-02 -4.81817740000E-01 -2.46938060000E-01

  29  29   1    1 H    -3.08927260000E-01 -4.05945790000E-01  2.47493030000E-01

  30  30   1    1 H    -1.54104000000E-03  2.08889150000E-01 -2.52506970000E-01

  31  31   1    1 H     3.08961830000E-01  4.05609330000E-01  2.46995470000E-01

  32  32   1    1 H    -3.83651950000E-01  2.04442700000E-02 -2.53004530000E-01

  33  33   1    1 H     4.05840570000E-01  3.08823250000E-01  2.46918880000E-01

  34  34   1    1 H    -2.86773210000E-01 -7.63418100000E-02 -2.53081120000E-01

  35  35   1    1 H    -4.05709120000E-01 -3.09042070000E-01  2.46938100000E-01

  36  36   1    1 H    -9.83229000000E-02  3.05792870000E-01 -2.53061900000E-01

  37  37   1    6 C    -1.08109690000E-01  4.45943690000E-01  2.49119700000E-01

  38  38   1    6 C     1.99276530000E-01  6.07786300000E-02 -2.50880290000E-01

  39  39   1    6 C    -5.35108900000E-02  3.92785630000E-01  2.47569560000E-01

  40  40   1    6 C     2.53875330000E-01  7.62057000000E-03 -2.52430430000E-01

  41  41   1    6 C     5.33881200000E-02 -3.92814700000E-01  2.47435650000E-01

  42  42   1    6 C     3.60774340000E-01  2.22020240000E-01 -2.52564350000E-01

  43  43   1    6 C    -5.35478900000E-02 -4.46307810000E-01  2.47837530000E-01

  44  44   1    6 C     2.53838330000E-01  1.68527130000E-01 -2.52162470000E-01

  45  45   1    6 C     5.34263400000E-02  4.46249970000E-01  2.46804080000E-01

  46  46   1    6 C     3.60812560000E-01  6.10849100000E-02 -2.53195920000E-01

  47  47   1    6 C     1.08035890000E-01 -4.45964370000E-01  2.47856650000E-01

  48  48   1    6 C     4.15422110000E-01  1.68870570000E-01 -2.52143350000E-01

  49  49   1    6 C    -4.45960580000E-01  1.08168460000E-01  2.50880340000E-01

  50  50   1    6 C    -1.38574360000E-01 -2.76996600000E-01 -2.49119660000E-01

  51  51   1    6 C    -3.92822150000E-01  5.35559400000E-02  2.52430450000E-01

  52  52   1    6 C    -8.54359300000E-02 -3.31609120000E-01 -2.47569550000E-01

  53  53   1    6 C     3.92798670000E-01 -5.33368400000E-02  2.52564410000E-01

  54  54   1    6 C    -2.99815110000E-01 -4.38501900000E-01 -2.47435590000E-01

  55  55   1    6 C     4.46287580000E-01  5.36028600000E-02  2.52162550000E-01

  56  56   1    6 C    -2.46326200000E-01 -3.31562200000E-01 -2.47837450000E-01

  57  57   1    6 C    -4.46283150000E-01 -5.33764400000E-02  2.53195920000E-01

  58  58   1    6 C    -1.38896930000E-01 -4.38541500000E-01 -2.46804080000E-01

  59  59   1    6 C     4.45927910000E-01 -1.08007940000E-01  2.52143380000E-01

  60  60   1    6 C    -2.46685870000E-01 -4.93173000000E-01 -2.47856620000E-01

  61  61   1    6 C    -4.45955130000E-01  4.45874550000E-01  2.49119700000E-01

  62  62   1    6 C    -1.38568910000E-01  6.07094900000E-02 -2.50880300000E-01

  63  63   1    6 C    -3.92789780000E-01 -4.46374220000E-01  2.47569600000E-01

  64  64   1    6 C    -8.54035600000E-02  1.68460720000E-01 -2.52430400000E-01

  65  65   1    6 C     3.92823370000E-01  4.46172030000E-01  2.47435620000E-01

  66  66   1    6 C    -2.99790410000E-01  6.10069700000E-02 -2.52564380000E-01

  67  67   1    6 C     4.46287260000E-01  3.92689990000E-01  2.47837490000E-01

  68  68   1    6 C    -2.46326520000E-01  7.52493000000E-03 -2.52162510000E-01

  69  69   1    6 C    -4.46257040000E-01 -3.92902000000E-01  2.46804120000E-01

  70  70   1    6 C    -1.38870820000E-01  2.21932940000E-01 -2.53195880000E-01

  71  71   1    6 C     4.45959980000E-01 -4.46041770000E-01  2.47856650000E-01

  72  72   1    6 C    -2.46653800000E-01  1.68793170000E-01 -2.52143350000E-01

  73  73   1    8 O    -4.39263320000E-01  2.80370630000E-01  2.49598130000E-01

  74  74   1    8 O    -1.31877100000E-01 -1.04794430000E-01 -2.50401860000E-01

  75  75   1    8 O    -2.80318300000E-01  2.80378330000E-01  2.52908860000E-01

  76  76   1    8 O     2.70679200000E-02 -1.04786730000E-01 -2.47091130000E-01

  77  77   1    8 O    -2.80320580000E-01  4.39323460000E-01  2.47914080000E-01

  78  78   1    8 O     2.70656400000E-02  5.41584000000E-02 -2.52085920000E-01

  79  79   1    8 O     2.80324510000E-01 -2.80348890000E-01  2.49598150000E-01

  80  80   1    8 O    -4.12289270000E-01  3.34486050000E-01 -2.50401850000E-01

  81  81   1    8 O     2.80343970000E-01 -4.39304390000E-01  2.52908860000E-01

  82  82   1    8 O    -4.12269810000E-01  1.75530550000E-01 -2.47091130000E-01

  83  83   1    8 O     4.39263840000E-01 -2.80364580000E-01  2.47914060000E-01

  84  84   1    8 O    -2.53349940000E-01  3.34470360000E-01 -2.52085930000E-01

 NUMBER OF SYMMETRY OPERATORS         :    1
 *******************************************************************************
 * GEOMETRY EDITING - INPUT COORDINATES ARE GIVEN IN ANGSTROM         
 *******************************************************************************

 GCALCO - MAX INDICES DIRECT LATTICE VECTOR    11    11    24
 NO.OF VECTORS CREATED 6999 STARS 3500 RMAX   241.85967 BOHR

 GEOMETRY FOR WAVE FUNCTION - DIMENSIONALITY OF THE SYSTEM    3
 (NON PERIODIC DIRECTION: LATTICE PARAMETER FORMALLY SET TO 500)
 *******************************************************************************
 LATTICE PARAMETERS (ANGSTROMS AND DEGREES) - BOHR = 0.5291772083 ANGSTROM
 PRIMITIVE CELL - CENTRING CODE 1/0 VOLUME=  1251.081907 - DENSITY  1.036 g/cm^3
         A              B              C           ALPHA      BETA       GAMMA 
    15.02361100    15.02391600     6.40000000    90.000323  89.999944 119.995964
 *******************************************************************************
 ATOMS IN THE ASYMMETRIC UNIT   84 - ATOMS IN THE UNIT CELL:   84
     ATOM                 X/A                 Y/B                 Z/C    
 *******************************************************************************
      1 T   5 B    -3.863194600000E-01  2.273182200000E-01  2.507463700000E-01
      2 T   5 B    -7.893324000000E-02 -1.578468400000E-01 -2.492536300000E-01
      3 T   5 B    -2.272638000000E-01  3.863778800000E-01  2.507463800000E-01
      4 T   5 B     8.012242000000E-02  1.212820000000E-03 -2.492536200000E-01
      5 T   5 B    -3.863237300000E-01  3.863606700000E-01  2.491771200000E-01
      6 T   5 B    -7.893751000000E-02  1.195610000000E-03 -2.508228700000E-01
      7 T   5 B     2.272552500000E-01 -3.863667800000E-01  2.507463700000E-01
      8 T   5 B    -4.653585300000E-01  2.284681600000E-01 -2.492536300000E-01
      9 T   5 B     3.863632200000E-01 -3.863875500000E-01  2.507463700000E-01
     10 T   5 B    -3.062505600000E-01  2.284473900000E-01 -2.492536300000E-01
     11 T   5 B     3.863435000000E-01 -2.272483500000E-01  2.491771300000E-01
     12 T   5 B    -3.062702800000E-01  3.875865900000E-01 -2.508228800000E-01
     13 T   1 H    -9.695638000000E-02  3.089300500000E-01  2.474930100000E-01
     14 T   1 H     2.104298400000E-01 -7.623501000000E-02 -2.525070000000E-01
     15 T   1 H     9.663453000000E-02 -3.089465600000E-01  2.469955100000E-01
     16 T   1 H     4.040207500000E-01  3.058883800000E-01 -2.530044900000E-01
     17 T   1 H    -9.702858000000E-02 -4.059275700000E-01  2.469189400000E-01
     18 T   1 H     2.103576400000E-01  2.089073700000E-01 -2.530810600000E-01
     19 T   1 H     9.673618000000E-02  4.056849400000E-01  2.469380400000E-01
     20 T   1 H     4.041224000000E-01  2.051988000000E-02 -2.530619600000E-01
     21 T   1 H    -3.089676000000E-01  9.700412000000E-02  2.525070200000E-01
     22 T   1 H    -1.581380000000E-03 -2.881609400000E-01 -2.474929800000E-01
     23 T   1 H     3.089297200000E-01 -9.656269000000E-02  2.530045500000E-01
     24 T   1 H    -3.836840600000E-01 -4.817277500000E-01 -2.469954500000E-01
     25 T   1 H     4.058699900000E-01  9.704998000000E-02  2.530811600000E-01
     26 T   1 H    -2.867437900000E-01 -2.881150800000E-01 -2.469188400000E-01
     27 T   1 H    -4.056877900000E-01 -9.665268000000E-02  2.530619400000E-01
     28 T   1 H    -9.830157000000E-02 -4.818177400000E-01 -2.469380600000E-01
     29 T   1 H    -3.089272600000E-01 -4.059457900000E-01  2.474930300000E-01
     30 T   1 H    -1.541040000000E-03  2.088891500000E-01 -2.525069700000E-01
     31 T   1 H     3.089618300000E-01  4.056093300000E-01  2.469954700000E-01
     32 T   1 H    -3.836519500000E-01  2.044427000000E-02 -2.530045300000E-01
     33 T   1 H     4.058405700000E-01  3.088232500000E-01  2.469188800000E-01
     34 T   1 H    -2.867732100000E-01 -7.634181000000E-02 -2.530811200000E-01
     35 T   1 H    -4.057091200000E-01 -3.090420700000E-01  2.469381000000E-01
     36 T   1 H    -9.832290000000E-02  3.057928700000E-01 -2.530619000000E-01
     37 T   6 C    -1.081096900000E-01  4.459436900000E-01  2.491197000000E-01
     38 T   6 C     1.992765300000E-01  6.077863000000E-02 -2.508802900000E-01
     39 T   6 C    -5.351089000000E-02  3.927856300000E-01  2.475695600000E-01
     40 T   6 C     2.538753300000E-01  7.620570000000E-03 -2.524304300000E-01
     41 T   6 C     5.338812000000E-02 -3.928147000000E-01  2.474356500000E-01
     42 T   6 C     3.607743400000E-01  2.220202400000E-01 -2.525643500000E-01
     43 T   6 C    -5.354789000000E-02 -4.463078100000E-01  2.478375300000E-01
     44 T   6 C     2.538383300000E-01  1.685271300000E-01 -2.521624700000E-01
     45 T   6 C     5.342634000000E-02  4.462499700000E-01  2.468040800000E-01
     46 T   6 C     3.608125600000E-01  6.108491000000E-02 -2.531959200000E-01
     47 T   6 C     1.080358900000E-01 -4.459643700000E-01  2.478566500000E-01
     48 T   6 C     4.154221100000E-01  1.688705700000E-01 -2.521433500000E-01
     49 T   6 C    -4.459605800000E-01  1.081684600000E-01  2.508803400000E-01
     50 T   6 C    -1.385743600000E-01 -2.769966000000E-01 -2.491196600000E-01
     51 T   6 C    -3.928221500000E-01  5.355594000000E-02  2.524304500000E-01
     52 T   6 C    -8.543593000000E-02 -3.316091200000E-01 -2.475695500000E-01
     53 T   6 C     3.927986700000E-01 -5.333684000000E-02  2.525644100000E-01
     54 T   6 C    -2.998151100000E-01 -4.385019000000E-01 -2.474355900000E-01
     55 T   6 C     4.462875800000E-01  5.360286000000E-02  2.521625500000E-01
     56 T   6 C    -2.463262000000E-01 -3.315622000000E-01 -2.478374500000E-01
     57 T   6 C    -4.462831500000E-01 -5.337644000000E-02  2.531959200000E-01
     58 T   6 C    -1.388969300000E-01 -4.385415000000E-01 -2.468040800000E-01
     59 T   6 C     4.459279100000E-01 -1.080079400000E-01  2.521433800000E-01
     60 T   6 C    -2.466858700000E-01 -4.931730000000E-01 -2.478566200000E-01
     61 T   6 C    -4.459551300000E-01  4.458745500000E-01  2.491197000000E-01
     62 T   6 C    -1.385689100000E-01  6.070949000000E-02 -2.508803000000E-01
     63 T   6 C    -3.927897800000E-01 -4.463742200000E-01  2.475696000000E-01
     64 T   6 C    -8.540356000000E-02  1.684607200000E-01 -2.524304000000E-01
     65 T   6 C     3.928233700000E-01  4.461720300000E-01  2.474356200000E-01
     66 T   6 C    -2.997904100000E-01  6.100697000000E-02 -2.525643800000E-01
     67 T   6 C     4.462872600000E-01  3.926899900000E-01  2.478374900000E-01
     68 T   6 C    -2.463265200000E-01  7.524930000000E-03 -2.521625100000E-01
     69 T   6 C    -4.462570400000E-01 -3.929020000000E-01  2.468041200000E-01
     70 T   6 C    -1.388708200000E-01  2.219329400000E-01 -2.531958800000E-01
     71 T   6 C     4.459599800000E-01 -4.460417700000E-01  2.478566500000E-01
     72 T   6 C    -2.466538000000E-01  1.687931700000E-01 -2.521433500000E-01
     73 T   8 O    -4.392633200000E-01  2.803706300000E-01  2.495981300000E-01
     74 T   8 O    -1.318771000000E-01 -1.047944300000E-01 -2.504018600000E-01
     75 T   8 O    -2.803183000000E-01  2.803783300000E-01  2.529088600000E-01
     76 T   8 O     2.706792000000E-02 -1.047867300000E-01 -2.470911300000E-01
     77 T   8 O    -2.803205800000E-01  4.393234600000E-01  2.479140800000E-01
     78 T   8 O     2.706564000000E-02  5.415840000000E-02 -2.520859200000E-01
     79 T   8 O     2.803245100000E-01 -2.803488900000E-01  2.495981500000E-01
     80 T   8 O    -4.122892700000E-01  3.344860500000E-01 -2.504018500000E-01
     81 T   8 O     2.803439700000E-01 -4.393043900000E-01  2.529088600000E-01
     82 T   8 O    -4.122698100000E-01  1.755305500000E-01 -2.470911300000E-01
     83 T   8 O     4.392638400000E-01 -2.803645800000E-01  2.479140600000E-01
     84 T   8 O    -2.533499400000E-01  3.344703600000E-01 -2.520859300000E-01

 T = ATOM BELONGING TO THE ASYMMETRIC UNIT

 ****    1 SYMMOPS - TRANSLATORS IN FRACTIONAL UNITS
 **** MATRICES AND TRANSLATORS IN THE CRYSTALLOGRAPHIC REFERENCE FRAME
   V INV                    ROTATION MATRICES                   TRANSLATORS
   1   1  1.00 -0.00  0.00  0.00  1.00  0.00  0.00  0.00  1.00  0.00  0.00  0.00

 DIRECT LATTICE VECTORS CARTESIAN COMPONENTS (ANGSTROM)
          X                    Y                    Z
   0.130113578931E+02  -0.751088897922E+01   0.000000000000E+00
   0.000000000000E+00   0.150239160000E+02   0.000000000000E+00
  -0.136044311046E-04  -0.360794462958E-04   0.639999999988E+01


 CARTESIAN COORDINATES - PRIMITIVE CELL
 *******************************************************************************
 *      ATOM          X(ANGSTROM)         Y(ANGSTROM)         Z(ANGSTROM)
 *******************************************************************************
    1     5 B    -5.026544166374E+00  6.316803370330E+00  1.604776767971E+00
    2     5 B    -1.027025244345E+00 -1.778609869683E+00 -1.595223231971E+00
    3     5 B    -2.957014049198E+00  7.511852937382E+00  1.604776831971E+00
    4     5 B     1.042504872831E+00 -5.835603026304E-01 -1.595223167971E+00
    5     5 B    -5.026599703524E+00 -6.317640092322E+00  1.594733567971E+00
    6     5 B    -1.027080781494E+00  6.108626676648E-01 -1.605266367971E+00
    7     5 B     2.956895979564E+00 -7.511640047395E+00  1.604776767971E+00
    8     5 B     6.956414901594E+00 -5.831372874076E-01 -1.595223231971E+00
    9     5 B     5.027106720872E+00  6.316921607491E+00  1.604776767971E+00
   10     5 B    -3.984732250155E+00  5.732397346695E+00 -1.595223231971E+00
   11     5 B     5.026850158243E+00 -6.315952248053E+00  1.594733631971E+00
   12     5 B    -3.984988812784E+00 -6.900476508849E+00 -1.605266431971E+00
   13     1 H    -1.261537527197E+00  5.369558797672E+00  1.583955263971E+00
   14     1 H     2.737981394833E+00 -2.725854442341E+00 -1.616044799971E+00
   15     1 H     1.257343094424E+00 -5.367407303779E+00  1.580771263971E+00
   16     1 H     5.256862016453E+00  1.561095456208E+00 -1.619228735971E+00
   17     1 H    -1.262476939427E+00 -5.369859730272E+00  1.580281215971E+00
   18     1 H     2.737041982603E+00  1.558643029715E+00 -1.619718783971E+00
   19     1 H     1.258665699736E+00  5.368392843384E+00  1.580403455971E+00
   20     1 H     5.258184621765E+00 -2.727020396629E+00 -1.619596543971E+00
   21     1 H    -4.020091456173E+00  3.777993981995E+00  1.616044927971E+00
   22     1 H    -2.057253414373E-02 -4.317419258017E+00 -1.583955071971E+00
   23     1 H     4.019591708739E+00 -3.771095700859E+00  1.619229119971E+00
   24     1 H    -4.992247262288E+00 -4.355619961655E+00 -1.580770879971E+00
   25     1 H     5.280916254916E+00 -1.590382818592E+00  1.619719423971E+00
   26     1 H    -3.730922716111E+00 -2.174907079388E+00 -1.580280575971E+00
   27     1 H    -5.278552471297E+00  1.594965075084E+00  1.619596415971E+00
   28     1 H    -1.279033549268E+00 -6.500448164929E+00 -1.580403583971E+00
   29     1 H    -4.019566509783E+00 -3.778586026412E+00  1.583955391971E+00
   30     1 H    -2.004758775384E-02  3.149916733576E+00 -1.616044607971E+00
   31     1 H     4.020009585191E+00  3.773253587331E+00  1.580771007971E+00
   32     1 H    -4.991829385836E+00  3.188729326535E+00 -1.619228991971E+00
   33     1 H     5.280533544601E+00  1.591502193619E+00  1.580280831971E+00
   34     1 H    -3.731305426426E+00  1.006977932822E+00 -1.619719167971E+00
   35     1 H    -5.278829920249E+00 -1.595794851360E+00  1.580403839971E+00
   36     1 H    -1.279310998220E+00  5.332707908627E+00 -1.619596159971E+00
   37     6 C    -1.406657257429E+00  7.511811430357E+00  1.594366079971E+00
   38     6 C     2.592861664600E+00 -5.836018096565E-01 -1.605633855971E+00
   39     6 C    -6.962527090090E-01  6.303083732924E+00  1.584445183971E+00
   40     6 C     3.303266213020E+00 -1.792329507090E+00 -1.615554751971E+00
   41     6 C     6.946485703362E-01 -6.302616225836E+00  1.583588159971E+00
   42     6 C     4.694167492366E+00  6.258865341517E-01 -1.616411839971E+00
   43     6 C    -6.967341328966E-01 -6.303107732564E+00  1.586160191971E+00
   44     6 C     3.302784789133E+00  6.253950274237E-01 -1.613839807971E+00
   45     6 C     6.951458730270E-01  6.303133851422E+00  1.579546111971E+00
   46     6 C     4.694664795056E+00 -1.792279388591E+00 -1.620453887971E+00
   47     6 C     1.405690258136E+00 -7.511585751964E+00  1.586282559971E+00
   48     6 C     5.405209180166E+00 -5.830829919773E-01 -1.613717439971E+00
   49     6 C     7.208801767397E+00 -2.536223768464E+00  1.605634175971E+00
   50     6 C    -1.803037203630E+00 -3.120748029260E+00 -1.594365823971E+00
   51     6 C    -5.111153016143E+00  3.755054393537E+00  1.615554879971E+00
   52     6 C    -1.111634094113E+00 -4.340358846476E+00 -1.584445119971E+00
   53     6 C     5.110840639292E+00 -3.751604517803E+00  1.616412223971E+00
   54     6 C    -3.900998331736E+00 -4.336128778600E+00 -1.583587775971E+00
   55     6 C     5.806803996078E+00 -2.546700698069E+00  1.613840319971E+00
   56     6 C    -3.205034974949E+00 -3.131224958865E+00 -1.586159679971E+00
   57     6 C    -5.806753230877E+00  2.550050906837E+00  1.620453887971E+00
   58     6 C    -1.807234308848E+00 -5.545362333175E+00 -1.579546111971E+00
   59     6 C     5.802124201245E+00 -4.972026339831E+00  1.613717631971E+00
   60     6 C    -3.209714769782E+00 -5.556550600627E+00 -1.586282367971E+00
   61     6 C     7.208872703250E+00  2.537403289563E+00  1.594366079971E+00
   62     6 C    -1.802966267777E+00  1.952879028766E+00 -1.605633919971E+00
   63     6 C    -5.110731772359E+00 -3.756097288269E+00  1.584445439971E+00
   64     6 C    -1.111212850329E+00  3.172405471718E+00 -1.615554559971E+00
   65     6 C     5.111162089606E+00  3.752789452418E+00  1.583587967971E+00
   66     6 C    -3.900676881421E+00  3.168265191621E+00 -1.616412031971E+00
   67     6 C     5.806799891284E+00  2.547718419263E+00  1.586159935971E+00
   68     6 C    -3.205039079744E+00  1.963194158466E+00 -1.613840063971E+00
   69     6 C    -5.806413417366E+00 -2.551148465154E+00  1.579546367971E+00
   70     6 C    -1.806894495336E+00  4.377354294833E+00 -1.620453631971E+00
   71     6 C     5.802541533812E+00  4.973057073544E+00  1.586282559971E+00
   72     6 C    -3.209297437216E+00  4.388532812748E+00 -1.613717439971E+00
   73     8 O     7.295942231604E+00  6.248385703281E-04  1.597428031971E+00
   74     8 O    -1.715896739424E+00 -5.838994222264E-01 -1.602571903971E+00
   75     8 O    -3.647325165954E+00  6.317810983471E+00  1.618616703971E+00
   76     8 O     3.521937560749E-01 -1.777602256542E+00 -1.581383231971E+00
   77     8 O    -3.647354763899E+00 -6.318109429764E+00  1.586650111971E+00
   78     8 O     3.521641581302E-01  6.103933302234E-01 -1.613349887971E+00
   79     8 O     3.647399130165E+00 -6.317433452180E+00  1.597428159971E+00
   80     8 O     7.646918052194E+00  6.110693078076E-01 -1.602571839971E+00
   81     8 O     3.647652286149E+00  6.318202186734E+00  1.618616703971E+00
   82     8 O     7.647171208178E+00 -1.777211053279E+00 -1.581383231971E+00
   83     8 O    -7.295942234068E+00 -5.557995051377E-04  1.586649983971E+00
   84     8 O    -3.296423312039E+00  6.927946960482E+00 -1.613349951971E+00

 *******************************************************************************
 STARTING BASIS SET HANDLING 
 *******************************************************************************

 Loading internal basis set: SOLDEF2MSVP         

 Please cite in your publication:
 L. Dona', J. G. Brandenburg and B. Civalleri, J. Chem. Phys., 151, 121101 (2019
 )                                                                              
                                                                                
                    

 *******************************************************************************
 LOCAL ATOMIC FUNCTIONS BASIS SET
 *******************************************************************************
   ATOM   X(AU)   Y(AU)   Z(AU)  N. TYPE  EXPONENT  S COEF   P COEF   D/F/G COEF
 *******************************************************************************
   1 B   -9.499  11.937   3.033
                                  1 S  
                                         2.410E+03 1.755E-03 0.000E+00 0.000E+00
                                         3.619E+02 1.344E-02 0.000E+00 0.000E+00
                                         8.231E+01 6.637E-02 0.000E+00 0.000E+00
                                         2.311E+01 2.303E-01 0.000E+00 0.000E+00
                                         7.252E+00 5.150E-01 0.000E+00 0.000E+00
                                  2 S  
                                         2.367E+00 1.000E+00 0.000E+00 0.000E+00
                                  3 S  
                                         5.533E-01 1.000E+00 0.000E+00 0.000E+00
                                  4 S  
                                         1.716E-01 1.000E+00 0.000E+00 0.000E+00
                           5-     7 P  
                                         6.002E+00 0.000E+00-3.555E-02 0.000E+00
                                         1.240E+00 0.000E+00-1.983E-01 0.000E+00
                                         3.367E-01 0.000E+00-5.048E-01 0.000E+00
                           8-    10 P  
                                         1.256E-01 0.000E+00 1.000E+00 0.000E+00
                          11-    15 D  
                                         8.880E-01 0.000E+00 0.000E+00 1.000E+00
   2 B   -1.941  -3.361  -3.015
   3 B   -5.588  14.195   3.033
   4 B    1.970  -1.103  -3.015
   5 B   -9.499 -11.939   3.014
   6 B   -1.941   1.154  -3.034
   7 B    5.588 -14.195   3.033
   8 B   13.146  -1.102  -3.015
   9 B    9.500  11.937   3.033
  10 B   -7.530  10.833  -3.015
  11 B    9.499 -11.935   3.014
  12 B   -7.531 -13.040  -3.034
  13 H   -2.384  10.147   2.993
                                181 S  
                                         1.874E+01 1.968E-02 0.000E+00 0.000E+00
                                         2.826E+00 1.380E-01 0.000E+00 0.000E+00
                                         6.401E-01 4.783E-01 0.000E+00 0.000E+00
                                182 S  
                                         1.756E-01 1.000E+00 0.000E+00 0.000E+00
  14 H    5.174  -5.151  -3.054
  15 H    2.376 -10.143   2.987
  16 H    9.934   2.950  -3.060
  17 H   -2.386 -10.148   2.986
  18 H    5.172   2.945  -3.061
  19 H    2.379  10.145   2.987
  20 H    9.937  -5.153  -3.061
  21 H   -7.597   7.139   3.054
  22 H   -0.039  -8.159  -2.993
  23 H    7.596  -7.126   3.060
  24 H   -9.434  -8.231  -2.987
  25 H    9.979  -3.005   3.061
  26 H   -7.050  -4.110  -2.986
  27 H   -9.975   3.014   3.061
  28 H   -2.417 -12.284  -2.987
  29 H   -7.596  -7.140   2.993
  30 H   -0.038   5.952  -3.054
  31 H    7.597   7.130   2.987
  32 H   -9.433   6.026  -3.060
  33 H    9.979   3.008   2.986
  34 H   -7.051   1.903  -3.061
  35 H   -9.976  -3.016   2.987
  36 H   -2.418  10.077  -3.061
  37 C   -2.658  14.195   3.013
                                229 S  
                                         3.624E+03 1.634E-03 0.000E+00 0.000E+00
                                         5.440E+02 1.252E-02 0.000E+00 0.000E+00
                                         1.237E+02 6.211E-02 0.000E+00 0.000E+00
                                         3.476E+01 2.182E-01 0.000E+00 0.000E+00
                                         1.093E+01 4.980E-01 0.000E+00 0.000E+00
                                230 S  
                                         3.574E+00 1.000E+00 0.000E+00 0.000E+00
                                231 S  
                                         7.742E-01 1.000E+00 0.000E+00 0.000E+00
                                232 S  
                                         2.330E-01 1.000E+00 0.000E+00 0.000E+00
                         233-   235 P  
                                         9.443E+00 0.000E+00 3.790E-02 0.000E+00
                                         2.002E+00 0.000E+00 2.082E-01 0.000E+00
                                         5.463E-01 0.000E+00 5.047E-01 0.000E+00
                         236-   238 P  
                                         1.820E-01 0.000E+00 1.000E+00 0.000E+00
                         239-   243 D  
                                         8.880E-01 0.000E+00 0.000E+00 1.000E+00
  38 C    4.900  -1.103  -3.034
  39 C   -1.316  11.911   2.994
  40 C    6.242  -3.387  -3.053
  41 C    1.313 -11.910   2.993
  42 C    8.871   1.183  -3.055
  43 C   -1.317 -11.911   2.997
  44 C    6.241   1.182  -3.050
  45 C    1.314  11.911   2.985
  46 C    8.872  -3.387  -3.062
  47 C    2.656 -14.195   2.998
  48 C   10.214  -1.102  -3.049
  49 C   13.623  -4.793   3.034
  50 C   -3.407  -5.897  -3.013
  51 C   -9.659   7.096   3.053
  52 C   -2.101  -8.202  -2.994
  53 C    9.658  -7.090   3.055
  54 C   -7.372  -8.194  -2.993
  55 C   10.973  -4.813   3.050
  56 C   -6.057  -5.917  -2.997
  57 C  -10.973   4.819   3.062
  58 C   -3.415 -10.479  -2.985
  59 C   10.964  -9.396   3.049
  60 C   -6.065 -10.500  -2.998
  61 C   13.623   4.795   3.013
  62 C   -3.407   3.690  -3.034
  63 C   -9.658  -7.098   2.994
  64 C   -2.100   5.995  -3.053
  65 C    9.659   7.092   2.993
  66 C   -7.371   5.987  -3.055
  67 C   10.973   4.814   2.997
  68 C   -6.057   3.710  -3.050
  69 C  -10.973  -4.821   2.985
  70 C   -3.415   8.272  -3.062
  71 C   10.965   9.398   2.998
  72 C   -6.065   8.293  -3.049
  73 O   13.787   0.001   3.019
                                769 S  
                                         6.773E+03 1.727E-03 0.000E+00 0.000E+00
                                         1.017E+03 1.325E-02 0.000E+00 0.000E+00
                                         2.313E+02 6.603E-02 0.000E+00 0.000E+00
                                         6.501E+01 2.353E-01 0.000E+00 0.000E+00
                                         2.050E+01 5.498E-01 0.000E+00 0.000E+00
                                770 S  
                                         6.716E+00 1.000E+00 0.000E+00 0.000E+00
                                771 S  
                                         1.147E+00 1.000E+00 0.000E+00 0.000E+00
                                772 S  
                                         3.342E-01 1.000E+00 0.000E+00 0.000E+00
                         773-   775 P  
                                         1.769E+01 0.000E+00 4.359E-02 0.000E+00
                                         3.854E+00 0.000E+00 2.318E-01 0.000E+00
                                         1.047E+00 0.000E+00 5.146E-01 0.000E+00
                         776-   778 P  
                                         2.759E-01 0.000E+00 1.000E+00 0.000E+00
                         779-   783 D  
                                         8.000E-01 0.000E+00 0.000E+00 1.000E+00
  74 O   -3.243  -1.103  -3.028
  75 O   -6.892  11.939   3.059
  76 O    0.666  -3.359  -2.988
  77 O   -6.893 -11.939   2.998
  78 O    0.665   1.153  -3.049
  79 O    6.893 -11.938   3.019
  80 O   14.451   1.155  -3.028
  81 O    6.893  11.940   3.059
  82 O   14.451  -3.358  -2.988
  83 O  -13.787  -0.001   2.998
  84 O   -6.229  13.092  -3.049

 *******************************************************************************
 FINISHED BASIS SET HANDLING 
 *******************************************************************************

 INFORMATION **** SET_MPP **** PCRYSTAL CALCULATION
 INFORMATION **** READM2 **** NEW DEFAULT: FOCK/KS MATRIX MIXING SET TO 30 %
 INFORMATION **** READM2 **** NEW DEFAULT: FULL DIRECT SCF MODE
 INFORMATION **** READM2 **** NEW DEFAULT: COULOMB BIPOLAR BUFFER SET TO 32 Mb
 INFORMATION **** READM2 **** NEW DEFAULT: EXCHANGE BIPOLAR BUFFER SET TO 32 Mb

 *******************************************************************************
 NEW DEFAULT: DFT INTEGRATION GRID INCREASED TO XLGRID
 NEW DEFAULT: DIIS ACCELERATOR ACTIVE
 USE KEYWORD NODIIS TO TURN IT OFF
 *******************************************************************************

 WARNING **** RDDFTP **** HSEsol-HJS ACTIVE
 RANGE SEPARATION - OMEGA:   0.110000000000000     
 WARNING **** RDDFTP **** HSEsol-3c has to be combined with sol-def2-mSVP basis set
 *******************************************************************************
 N. OF ATOMS PER CELL        84  COULOMB OVERLAP TOL         (T1) 10**   -6
 NUMBER OF SHELLS           468  COULOMB PENETRATION TOL     (T2) 10**   -6
 NUMBER OF AO               948  EXCHANGE OVERLAP TOL        (T3) 10**   -6
 N. OF ELECTRONS PER CELL   396  EXCHANGE PSEUDO OVP (F(G))  (T4) 10**   -6
 CORE ELECTRONS PER CELL    120  EXCHANGE PSEUDO OVP (P(G))  (T5) 10**  -12
 N. OF SYMMETRY OPERATORS     1  POLE ORDER IN MONO ZONE                  4
 *******************************************************************************
 TYPE OF CALCULATION :  RESTRICTED CLOSED SHELL
 KOHN-SHAM HAMILTONIAN

 (EXCHANGE)[CORRELATION] FUNCTIONAL:(HSEsol GGA)[PBEsol]

 RANGE-SEPARATED HYBRID FUNCTIONAL 
 OMEGA (SHORT-RANGE)[LONG-RANGE]:(    0.1100)[    0.0000]

 HYBRID EXCHANGE - PERCENTAGE OF FOCK EXCHANGE    25.0000

 CAPPA:IS1  2;IS2  2;IS3  8; K PTS MONK NET  20; SYMMOPS:K SPACE   2;G SPACE   1

 *******************************************************************************
 MAX NUMBER OF SCF CYCLES      50  CONVERGENCE ON DELTAP        10**-16
 WEIGHT OF F(I) IN F(I+1)      30% CONVERGENCE ON ENERGY        10**- 6
 SHRINK. FACT.(MONKH.)    2  2  8  NUMBER OF K POINTS IN THE IBZ     20
 SHRINKING FACTOR(GILAT NET)    8  NUMBER OF K POINTS(GILAT NET)   1028
 *******************************************************************************
 *** K POINTS COORDINATES (OBLIQUE COORDINATES IN UNITS OF IS =  2)
   1-R(  0  0  0)   2-R(  1  0  0)   3-R(  0  1  0)   4-R(  1  1  0)
   5-C(  0  0  1)   6-C(  1  0  1)   7-C(  0  1  1)   8-C(  1  1  1)
   9-C(  0  0  2)  10-C(  1  0  2)  11-C(  0  1  2)  12-C(  1  1  2)
  13-C(  0  0  3)  14-C(  1  0  3)  15-C(  0  1  3)  16-C(  1  1  3)
  17-R(  0  0  4)  18-R(  1  0  4)  19-R(  0  1  4)  20-R(  1  1  4)

 DIRECT LATTICE VECTORS COMPON. (A.U.)     RECIP. LATTICE VECTORS COMPON. (A.U.) 
        X            Y            Z              X            Y            Z
   24.5879030  -14.1935232    0.0000000      0.2555397    0.0000000    0.0000005
    0.0000000   28.3910867    0.0000000      0.1277517    0.2213084    0.0000015
   -0.0000257   -0.0000682   12.0942473      0.0000000    0.0000000    0.5195185

 DISK SPACE FOR EIGENVECTORS (FTN 10)    28758528 REALS

 SYMMETRY ADAPTION OF THE BLOCH FUNCTIONS DISABLED
 TTTTTTTTTTTTTTTTTTTTTTTTTTTTTT gordsh1     TELAPSE        0.05 TCPU        0.05

 MATRIX SIZE: P(G)  771538, F(G)  138941, P(G) IRR  387935, F(G) IRR  140189
 MAX G-VECTOR INDEX FOR 1- AND 2-ELECTRON INTEGRALS  67

 TTTTTTTTTTTTTTTTTTTTTTTTTTTTTT INPUT       TELAPSE        2.68 TCPU        2.68

 NEIGHBORS OF THE NON-EQUIVALENT ATOMS

 N = NUMBER OF NEIGHBORS AT DISTANCE R
    ATOM  N     R/ANG      R/AU   NEIGHBORS (ATOM LABELS AND CELL INDICES)
   1 B    1     1.3791     2.6061   73 O   -1 0 0
   1 B    1     1.3793     2.6065   75 O    0 0 0
   1 B    1     1.5503     2.9297   49 C   -1 0 0
   1 B    1     2.3895     4.5155    5 B    0 1 0
   1 B    1     2.3898     4.5160    3 B    0 0 0
   1 B    1     2.5632     4.8437   51 C    0 0 0

   2 B    1     1.3791     2.6061   74 O    0 0 0
   2 B    1     1.3793     2.6065   76 O    0 0 0
   2 B    1     1.5503     2.9297   50 C    0 0 0
   2 B    1     2.3895     4.5155    6 B    0 0 0
   2 B    1     2.3898     4.5160    4 B    0 0 0
   2 B    1     2.5632     4.8437   52 C    0 0 0

   3 B    1     1.3793     2.6065   77 O    0 1 0
   3 B    1     1.3793     2.6065   75 O    0 0 0
   3 B    1     1.5504     2.9298   37 C    0 0 0
   3 B    1     2.3895     4.5156    5 B    0 1 0
   3 B    1     2.3898     4.5160    1 B    0 0 0
   3 B    1     2.5634     4.8440   43 C    0 1 0

   4 B    1     1.3793     2.6065   78 O    0 0 0
   4 B    1     1.3793     2.6065   76 O    0 0 0
   4 B    1     1.5504     2.9298   38 C    0 0 0
   4 B    1     2.3895     4.5156    6 B    0 0 0
   4 B    1     2.3898     4.5160    2 B    0 0 0
   4 B    1     2.5634     4.8440   44 C    0 0 0

   5 B    1     1.3791     2.6061   73 O   -1-1 0
   5 B    1     1.3793     2.6064   77 O    0 0 0
   5 B    1     1.5502     2.9294   61 C   -1-1 0
   5 B    1     2.3895     4.5155    1 B    0-1 0
   5 B    1     2.3895     4.5156    3 B    0-1 0
   5 B    1     2.5629     4.8433   63 C    0 0 0

   6 B    1     1.3791     2.6061   74 O    0 0 0
   6 B    1     1.3793     2.6064   78 O    0 0 0
   6 B    1     1.5502     2.9294   62 C    0 0 0
   6 B    1     2.3895     4.5155    2 B    0 0 0
   6 B    1     2.3895     4.5156    4 B    0 0 0
   6 B    1     2.5629     4.8433   64 C    0 0 0

   7 B    1     1.3795     2.6068   79 O    0 0 0
   7 B    1     1.3795     2.6070   81 O    0-1 0
   7 B    1     1.5513     2.9316   47 C    0 0 0
   7 B    1     2.3905     4.5174   11 B    0 0 0
   7 B    1     2.3905     4.5175    9 B    0-1 0
   7 B    1     2.5648     4.8468   45 C    0-1 0

   8 B    1     1.3795     2.6068   80 O    0 0 0
   8 B    1     1.3795     2.6070   82 O    0 0 0
   8 B    1     1.5513     2.9316   48 C    0 0 0
   8 B    1     2.3905     4.5174   12 B    1 1 0
   8 B    1     2.3905     4.5175   10 B    1 0 0
   8 B    1     2.5648     4.8468   46 C    0 0 0

   9 B    1     1.3795     2.6069   81 O    0 0 0
   9 B    1     1.3797     2.6072   83 O    1 1 0
   9 B    1     1.5516     2.9322   71 C    0 0 0
   9 B    1     2.3905     4.5175    7 B    0 1 0
   9 B    1     2.3911     4.5185   11 B    0 1 0
   9 B    1     2.5651     4.8473   69 C    1 1 0

  10 B    1     1.3795     2.6069   82 O   -1 0 0
  10 B    1     1.3797     2.6072   84 O    0 0 0
  10 B    1     1.5516     2.9322   72 C    0 0 0
  10 B    1     2.3905     4.5175    8 B   -1 0 0
  10 B    1     2.3911     4.5185   12 B    0 1 0
  10 B    1     2.5651     4.8473   70 C    0 0 0

  11 B    1     1.3795     2.6068   79 O    0 0 0
  11 B    1     1.3796     2.6071   83 O    1 0 0
  11 B    1     1.5516     2.9322   59 C    0 0 0
  11 B    1     2.3905     4.5174    7 B    0 0 0
  11 B    1     2.3911     4.5185    9 B    0-1 0
  11 B    1     2.5651     4.8473   57 C    1 0 0

  12 B    1     1.3795     2.6068   80 O   -1-1 0
  12 B    1     1.3796     2.6071   84 O    0-1 0
  12 B    1     1.5516     2.9322   60 C    0 0 0
  12 B    1     2.3905     4.5174    8 B   -1-1 0
  12 B    1     2.3911     4.5185   10 B    0-1 0
  12 B    1     2.5651     4.8473   58 C    0 0 0

  13 H    1     1.0913     2.0623   39 C    0 0 0
  13 H    1     2.1472     4.0576   37 C    0 0 0
  13 H    1     2.1680     4.0969   45 C    0 0 0
  13 H    1     2.5202     4.7625   19 H    0 0 0
  13 H    1     2.5676     4.8520   75 O    0 0 0
  13 H    1     2.7321     5.1630    3 B    0 0 0

  14 H    1     1.0913     2.0623   40 C    0 0 0
  14 H    1     2.1472     4.0576   38 C    0 0 0
  14 H    1     2.1680     4.0969   46 C    0 0 0
  14 H    1     2.5202     4.7625   20 H    0 0 0
  14 H    1     2.5676     4.8520   76 O    0 0 0
  14 H    1     2.7321     5.1630    4 B    0 0 0

  15 H    1     1.0914     2.0625   41 C    0 0 0
  15 H    1     2.1493     4.0616   47 C    0 0 0
  15 H    1     2.1666     4.0942   43 C    0 0 0
  15 H    1     2.5198     4.7618   17 H    0 0 0
  15 H    1     2.5720     4.8604   79 O    0 0 0
  15 H    1     2.7362     5.1707    7 B    0 0 0

  16 H    1     1.0914     2.0625   42 C    0 0 0
  16 H    1     2.1493     4.0616   48 C    0 0 0
  16 H    1     2.1666     4.0942   44 C    0 0 0
  16 H    1     2.5198     4.7618   18 H    0 0 0
  16 H    1     2.5720     4.8604   80 O    0 0 0
  16 H    1     2.7362     5.1707    8 B    0 0 0

  17 H    1     1.0914     2.0624   43 C    0 0 0
  17 H    1     2.1471     4.0575   37 C    0-1 0
  17 H    1     2.1680     4.0970   41 C    0 0 0
  17 H    1     2.5198     4.7618   15 H    0 0 0
  17 H    1     2.5665     4.8500   77 O    0 0 0
  17 H    1     2.7315     5.1618    3 B    0-1 0

  18 H    1     1.0914     2.0624   44 C    0 0 0
  18 H    1     2.1471     4.0575   38 C    0 0 0
  18 H    1     2.1680     4.0970   42 C    0 0 0
  18 H    1     2.5198     4.7618   16 H    0 0 0
  18 H    1     2.5665     4.8500   78 O    0 0 0
  18 H    1     2.7315     5.1618    4 B    0 0 0

  19 H    1     1.0915     2.0626   45 C    0 0 0
  19 H    1     2.1490     4.0610   47 C    0 1 0
  19 H    1     2.1669     4.0948   39 C    0 0 0
  19 H    1     2.5202     4.7625   13 H    0 0 0
  19 H    1     2.5712     4.8588   81 O    0 0 0
  19 H    1     2.7351     5.1686    7 B    0 1 0

  20 H    1     1.0915     2.0626   46 C    0 0 0
  20 H    1     2.1490     4.0610   48 C    0 0 0
  20 H    1     2.1669     4.0948   40 C    0 0 0
  20 H    1     2.5202     4.7625   14 H    0 0 0
  20 H    1     2.5712     4.8588   82 O    0 0 0
  20 H    1     2.7351     5.1686    8 B    0 0 0

  21 H    1     1.0913     2.0623   51 C    0 0 0
  21 H    1     2.1469     4.0571   49 C   -1 0 0
  21 H    1     2.1680     4.0968   57 C    0 0 0
  21 H    1     2.5198     4.7617   27 H    0 0 0
  21 H    1     2.5670     4.8510   75 O    0 0 0
  21 H    1     2.7310     5.1609    1 B    0 0 0

  22 H    1     1.0913     2.0623   52 C    0 0 0
  22 H    1     2.1469     4.0571   50 C    0 0 0
  22 H    1     2.1680     4.0968   58 C    0 0 0
  22 H    1     2.5198     4.7617   28 H    0 0 0
  22 H    1     2.5670     4.8510   76 O    0 0 0
  22 H    1     2.7310     5.1609    2 B    0 0 0

  23 H    1     1.0914     2.0625   53 C    0 0 0
  23 H    1     2.1493     4.0617   59 C    0 0 0
  23 H    1     2.1664     4.0939   55 C    0 0 0
  23 H    1     2.5192     4.7606   25 H    0 0 0
  23 H    1     2.5735     4.8632   79 O    0 0 0
  23 H    1     2.7371     5.1723   11 B    0 0 0

  24 H    1     1.0914     2.0625   54 C    0 0 0
  24 H    1     2.1493     4.0617   60 C    0 0 0
  24 H    1     2.1664     4.0939   56 C    0 0 0
  24 H    1     2.5192     4.7606   26 H    0 0 0
  24 H    1     2.5735     4.8632   80 O   -1-1 0
  24 H    1     2.7371     5.1723   12 B    0 0 0

  25 H    1     1.0914     2.0624   55 C    0 0 0
  25 H    1     2.1475     4.0581   49 C    0 0 0
  25 H    1     2.1679     4.0967   53 C    0 0 0
  25 H    1     2.5192     4.7606   23 H    0 0 0
  25 H    1     2.5675     4.8519   73 O    0 0 0
  25 H    1     2.7328     5.1643    1 B    1 0 0

  26 H    1     1.0914     2.0624   56 C    0 0 0
  26 H    1     2.1475     4.0581   50 C    0 0 0
  26 H    1     2.1679     4.0967   54 C    0 0 0
  26 H    1     2.5192     4.7606   24 H    0 0 0
  26 H    1     2.5675     4.8519   74 O    0 0 0
  26 H    1     2.7328     5.1643    2 B    0 0 0

  27 H    1     1.0914     2.0625   57 C    0 0 0
  27 H    1     2.1491     4.0612   59 C   -1 0 0
  27 H    1     2.1666     4.0942   51 C    0 0 0
  27 H    1     2.5198     4.7617   21 H    0 0 0
  27 H    1     2.5723     4.8609   83 O    0 0 0
  27 H    1     2.7355     5.1693   11 B   -1 0 0

  28 H    1     1.0914     2.0625   58 C    0 0 0
  28 H    1     2.1491     4.0612   60 C    0 0 0
  28 H    1     2.1666     4.0942   52 C    0 0 0
  28 H    1     2.5198     4.7617   22 H    0 0 0
  28 H    1     2.5723     4.8609   84 O    0-1 0
  28 H    1     2.7355     5.1693   12 B    0 0 0

  29 H    1     1.0914     2.0624   63 C    0 0 0
  29 H    1     2.1475     4.0582   61 C   -1-1 0
  29 H    1     2.1678     4.0966   69 C    0 0 0
  29 H    1     2.5200     4.7621   35 H    0 0 0
  29 H    1     2.5667     4.8503   77 O    0 0 0
  29 H    1     2.7315     5.1618    5 B    0 0 0

  30 H    1     1.0914     2.0624   64 C    0 0 0
  30 H    1     2.1475     4.0582   62 C    0 0 0
  30 H    1     2.1678     4.0966   70 C    0 0 0
  30 H    1     2.5200     4.7621   36 H    0 0 0
  30 H    1     2.5667     4.8503   78 O    0 0 0
  30 H    1     2.7315     5.1618    6 B    0 0 0

  31 H    1     1.0913     2.0623   65 C    0 0 0
  31 H    1     2.1487     4.0605   71 C    0 0 0
  31 H    1     2.1667     4.0945   67 C    0 0 0
  31 H    1     2.5197     4.7616   33 H    0 0 0
  31 H    1     2.5723     4.8610   81 O    0 0 0
  31 H    1     2.7359     5.1701    9 B    0 0 0

  32 H    1     1.0913     2.0623   66 C    0 0 0
  32 H    1     2.1487     4.0605   72 C    0 0 0
  32 H    1     2.1667     4.0945   68 C    0 0 0
  32 H    1     2.5197     4.7616   34 H    0 0 0
  32 H    1     2.5723     4.8610   82 O   -1 0 0
  32 H    1     2.7359     5.1701   10 B    0 0 0

  33 H    1     1.0915     2.0626   67 C    0 0 0
  33 H    1     2.1479     4.0589   61 C    0 0 0
  33 H    1     2.1679     4.0968   65 C    0 0 0
  33 H    1     2.5197     4.7616   31 H    0 0 0
  33 H    1     2.5677     4.8522   73 O    0 0 0
  33 H    1     2.7331     5.1648    5 B    1 1 0

  34 H    1     1.0915     2.0626   68 C    0 0 0
  34 H    1     2.1479     4.0589   62 C    0 0 0
  34 H    1     2.1679     4.0968   66 C    0 0 0
  34 H    1     2.5197     4.7616   32 H    0 0 0
  34 H    1     2.5677     4.8522   74 O    0 0 0
  34 H    1     2.7331     5.1648    6 B    0 0 0

  35 H    1     1.0914     2.0624   69 C    0 0 0
  35 H    1     2.1486     4.0602   71 C   -1-1 0
  35 H    1     2.1668     4.0947   63 C    0 0 0
  35 H    1     2.5200     4.7621   29 H    0 0 0
  35 H    1     2.5717     4.8598   83 O    0 0 0
  35 H    1     2.7349     5.1682    9 B   -1-1 0

  36 H    1     1.0914     2.0624   70 C    0 0 0
  36 H    1     2.1486     4.0602   72 C    0 0 0
  36 H    1     2.1668     4.0947   64 C    0 0 0
  36 H    1     2.5200     4.7621   30 H    0 0 0
  36 H    1     2.5717     4.8598   84 O    0 0 0
  36 H    1     2.7349     5.1682   10 B    0 0 0

  37 C    1     1.4020     2.6495   43 C    0 1 0
  37 C    1     1.4021     2.6495   39 C    0 0 0
  37 C    1     1.5504     2.9298    3 B    0 0 0
  37 C    1     2.1471     4.0575   17 H    0 1 0
  37 C    1     2.1472     4.0576   13 H    0 0 0
  37 C    1     2.4246     4.5817   41 C    0 1 0

  38 C    1     1.4020     2.6495   44 C    0 0 0
  38 C    1     1.4021     2.6495   40 C    0 0 0
  38 C    1     1.5504     2.9298    4 B    0 0 0
  38 C    1     2.1471     4.0575   18 H    0 0 0
  38 C    1     2.1472     4.0576   14 H    0 0 0
  38 C    1     2.4246     4.5817   42 C    0 0 0

  39 C    1     1.0913     2.0623   13 H    0 0 0
  39 C    1     1.3914     2.6294   45 C    0 0 0
  39 C    1     1.4021     2.6495   37 C    0 0 0
  39 C    1     2.1669     4.0948   19 H    0 0 0
  39 C    1     2.4177     4.5688   43 C    0 1 0
  39 C    1     2.4250     4.5825   47 C    0 1 0

  40 C    1     1.0913     2.0623   14 H    0 0 0
  40 C    1     1.3914     2.6294   46 C    0 0 0
  40 C    1     1.4021     2.6495   38 C    0 0 0
  40 C    1     2.1669     4.0948   20 H    0 0 0
  40 C    1     2.4177     4.5688   44 C    0 0 0
  40 C    1     2.4250     4.5825   48 C    0 0 0

  41 C    1     1.0914     2.0625   15 H    0 0 0
  41 C    1     1.3914     2.6293   43 C    0 0 0
  41 C    1     1.4026     2.6505   47 C    0 0 0
  41 C    1     2.1680     4.0970   17 H    0 0 0
  41 C    1     2.4182     4.5697   45 C    0-1 0
  41 C    1     2.4246     4.5817   37 C    0-1 0

  42 C    1     1.0914     2.0625   16 H    0 0 0
  42 C    1     1.3914     2.6293   44 C    0 0 0
  42 C    1     1.4026     2.6505   48 C    0 0 0
  42 C    1     2.1680     4.0970   18 H    0 0 0
  42 C    1     2.4182     4.5697   46 C    0 0 0
  42 C    1     2.4246     4.5817   38 C    0 0 0

  43 C    1     1.0914     2.0624   17 H    0 0 0
  43 C    1     1.3914     2.6293   41 C    0 0 0
  43 C    1     1.4020     2.6495   37 C    0-1 0
  43 C    1     2.1666     4.0942   15 H    0 0 0
  43 C    1     2.4177     4.5688   39 C    0-1 0
  43 C    1     2.4250     4.5826   47 C    0 0 0

  44 C    1     1.0914     2.0624   18 H    0 0 0
  44 C    1     1.3914     2.6293   42 C    0 0 0
  44 C    1     1.4020     2.6495   38 C    0 0 0
  44 C    1     2.1666     4.0942   16 H    0 0 0
  44 C    1     2.4177     4.5688   40 C    0 0 0
  44 C    1     2.4250     4.5826   48 C    0 0 0

  45 C    1     1.0915     2.0626   19 H    0 0 0
  45 C    1     1.3914     2.6294   39 C    0 0 0
  45 C    1     1.4025     2.6504   47 C    0 1 0
  45 C    1     2.1680     4.0969   13 H    0 0 0
  45 C    1     2.4182     4.5697   41 C    0 1 0
  45 C    1     2.4246     4.5818   37 C    0 0 0

  46 C    1     1.0915     2.0626   20 H    0 0 0
  46 C    1     1.3914     2.6294   40 C    0 0 0
  46 C    1     1.4025     2.6504   48 C    0 0 0
  46 C    1     2.1680     4.0969   14 H    0 0 0
  46 C    1     2.4182     4.5697   42 C    0 0 0
  46 C    1     2.4246     4.5818   38 C    0 0 0

  47 C    1     1.4025     2.6504   45 C    0-1 0
  47 C    1     1.4026     2.6505   41 C    0 0 0
  47 C    1     1.5513     2.9316    7 B    0 0 0
  47 C    1     2.1490     4.0610   19 H    0-1 0
  47 C    1     2.1493     4.0616   15 H    0 0 0
  47 C    1     2.4250     4.5825   39 C    0-1 0

  48 C    1     1.4025     2.6504   46 C    0 0 0
  48 C    1     1.4026     2.6505   42 C    0 0 0
  48 C    1     1.5513     2.9316    8 B    0 0 0
  48 C    1     2.1490     4.0610   20 H    0 0 0
  48 C    1     2.1493     4.0616   16 H    0 0 0
  48 C    1     2.4250     4.5825   40 C    0 0 0

  49 C    1     1.4020     2.6494   51 C    1 0 0
  49 C    1     1.4021     2.6495   55 C    0 0 0
  49 C    1     1.5503     2.9297    1 B    1 0 0
  49 C    1     2.1469     4.0571   21 H    1 0 0
  49 C    1     2.1475     4.0581   25 H    0 0 0
  49 C    1     2.4246     4.5818   53 C    0 0 0

  50 C    1     1.4020     2.6494   52 C    0 0 0
  50 C    1     1.4021     2.6495   56 C    0 0 0
  50 C    1     1.5503     2.9297    2 B    0 0 0
  50 C    1     2.1469     4.0571   22 H    0 0 0
  50 C    1     2.1475     4.0581   26 H    0 0 0
  50 C    1     2.4246     4.5818   54 C    0 0 0

  51 C    1     1.0913     2.0623   21 H    0 0 0
  51 C    1     1.3914     2.6293   57 C    0 0 0
  51 C    1     1.4020     2.6494   49 C   -1 0 0
  51 C    1     2.1666     4.0942   27 H    0 0 0
  51 C    1     2.4175     4.5684   55 C   -1 0 0
  51 C    1     2.4251     4.5828   59 C   -1 0 0

  52 C    1     1.0913     2.0623   22 H    0 0 0
  52 C    1     1.3914     2.6293   58 C    0 0 0
  52 C    1     1.4020     2.6494   50 C    0 0 0
  52 C    1     2.1666     4.0942   28 H    0 0 0
  52 C    1     2.4175     4.5684   56 C    0 0 0
  52 C    1     2.4251     4.5828   60 C    0 0 0

  53 C    1     1.0914     2.0625   23 H    0 0 0
  53 C    1     1.3915     2.6295   55 C    0 0 0
  53 C    1     1.4026     2.6505   59 C    0 0 0
  53 C    1     2.1679     4.0967   25 H    0 0 0
  53 C    1     2.4179     4.5691   57 C    1 0 0
  53 C    1     2.4246     4.5818   49 C    0 0 0

  54 C    1     1.0914     2.0625   24 H    0 0 0
  54 C    1     1.3915     2.6295   56 C    0 0 0
  54 C    1     1.4026     2.6505   60 C    0 0 0
  54 C    1     2.1679     4.0967   26 H    0 0 0
  54 C    1     2.4179     4.5691   58 C    0 0 0
  54 C    1     2.4246     4.5818   50 C    0 0 0

  55 C    1     1.0914     2.0624   25 H    0 0 0
  55 C    1     1.3915     2.6295   53 C    0 0 0
  55 C    1     1.4021     2.6495   49 C    0 0 0
  55 C    1     2.1664     4.0939   23 H    0 0 0
  55 C    1     2.4175     4.5684   51 C    1 0 0
  55 C    1     2.4253     4.5832   59 C    0 0 0

  56 C    1     1.0914     2.0624   26 H    0 0 0
  56 C    1     1.3915     2.6295   54 C    0 0 0
  56 C    1     1.4021     2.6495   50 C    0 0 0
  56 C    1     2.1664     4.0939   24 H    0 0 0
  56 C    1     2.4175     4.5684   52 C    0 0 0
  56 C    1     2.4253     4.5832   60 C    0 0 0

  57 C    1     1.0914     2.0625   27 H    0 0 0
  57 C    1     1.3914     2.6293   51 C    0 0 0
  57 C    1     1.4025     2.6504   59 C   -1 0 0
  57 C    1     2.1680     4.0968   21 H    0 0 0
  57 C    1     2.4179     4.5691   53 C   -1 0 0
  57 C    1     2.4247     4.5819   49 C   -1 0 0

  58 C    1     1.0914     2.0625   28 H    0 0 0
  58 C    1     1.3914     2.6293   52 C    0 0 0
  58 C    1     1.4025     2.6504   60 C    0 0 0
  58 C    1     2.1680     4.0968   22 H    0 0 0
  58 C    1     2.4179     4.5691   54 C    0 0 0
  58 C    1     2.4247     4.5819   50 C    0 0 0

  59 C    1     1.4025     2.6504   57 C    1 0 0
  59 C    1     1.4026     2.6505   53 C    0 0 0
  59 C    1     1.5516     2.9322   11 B    0 0 0
  59 C    1     2.1491     4.0612   27 H    1 0 0
  59 C    1     2.1493     4.0617   23 H    0 0 0
  59 C    1     2.4251     4.5828   51 C    1 0 0

  60 C    1     1.4025     2.6504   58 C    0 0 0
  60 C    1     1.4026     2.6505   54 C    0 0 0
  60 C    1     1.5516     2.9322   12 B    0 0 0
  60 C    1     2.1491     4.0612   28 H    0 0 0
  60 C    1     2.1493     4.0617   24 H    0 0 0
  60 C    1     2.4251     4.5828   52 C    0 0 0

  61 C    1     1.4021     2.6496   63 C    1 1 0
  61 C    1     1.4021     2.6497   67 C    0 0 0
  61 C    1     1.5502     2.9294    5 B    1 1 0
  61 C    1     2.1475     4.0582   29 H    1 1 0
  61 C    1     2.1479     4.0589   33 H    0 0 0
  61 C    1     2.4244     4.5814   65 C    0 0 0

  62 C    1     1.4021     2.6496   64 C    0 0 0
  62 C    1     1.4021     2.6497   68 C    0 0 0
  62 C    1     1.5502     2.9294    6 B    0 0 0
  62 C    1     2.1475     4.0582   30 H    0 0 0
  62 C    1     2.1479     4.0589   34 H    0 0 0
  62 C    1     2.4244     4.5814   66 C    0 0 0

  63 C    1     1.0914     2.0624   29 H    0 0 0
  63 C    1     1.3914     2.6293   69 C    0 0 0
  63 C    1     1.4021     2.6496   61 C   -1-1 0
  63 C    1     2.1668     4.0947   35 H    0 0 0
  63 C    1     2.4179     4.5692   67 C   -1-1 0
  63 C    1     2.4251     4.5827   71 C   -1-1 0

  64 C    1     1.0914     2.0624   30 H    0 0 0
  64 C    1     1.3914     2.6293   70 C    0 0 0
  64 C    1     1.4021     2.6496   62 C    0 0 0
  64 C    1     2.1668     4.0947   36 H    0 0 0
  64 C    1     2.4179     4.5692   68 C    0 0 0
  64 C    1     2.4251     4.5827   72 C    0 0 0

  65 C    1     1.0913     2.0623   31 H    0 0 0
  65 C    1     1.3914     2.6294   67 C    0 0 0
  65 C    1     1.4025     2.6504   71 C    0 0 0
  65 C    1     2.1679     4.0968   33 H    0 0 0
  65 C    1     2.4178     4.5690   69 C    1 1 0
  65 C    1     2.4244     4.5814   61 C    0 0 0

  66 C    1     1.0913     2.0623   32 H    0 0 0
  66 C    1     1.3914     2.6294   68 C    0 0 0
  66 C    1     1.4025     2.6504   72 C    0 0 0
  66 C    1     2.1679     4.0968   34 H    0 0 0
  66 C    1     2.4178     4.5690   70 C    0 0 0
  66 C    1     2.4244     4.5814   62 C    0 0 0

  67 C    1     1.0915     2.0626   33 H    0 0 0
  67 C    1     1.3914     2.6294   65 C    0 0 0
  67 C    1     1.4021     2.6497   61 C    0 0 0
  67 C    1     2.1667     4.0945   31 H    0 0 0
  67 C    1     2.4179     4.5692   63 C    1 1 0
  67 C    1     2.4253     4.5832   71 C    0 0 0

  68 C    1     1.0915     2.0626   34 H    0 0 0
  68 C    1     1.3914     2.6294   66 C    0 0 0
  68 C    1     1.4021     2.6497   62 C    0 0 0
  68 C    1     2.1667     4.0945   32 H    0 0 0
  68 C    1     2.4179     4.5692   64 C    0 0 0
  68 C    1     2.4253     4.5832   72 C    0 0 0

  69 C    1     1.0914     2.0624   35 H    0 0 0
  69 C    1     1.3914     2.6293   63 C    0 0 0
  69 C    1     1.4025     2.6503   71 C   -1-1 0
  69 C    1     2.1678     4.0966   29 H    0 0 0
  69 C    1     2.4178     4.5690   65 C   -1-1 0
  69 C    1     2.4245     4.5817   61 C   -1-1 0

  70 C    1     1.0914     2.0624   36 H    0 0 0
  70 C    1     1.3914     2.6293   64 C    0 0 0
  70 C    1     1.4025     2.6503   72 C    0 0 0
  70 C    1     2.1678     4.0966   30 H    0 0 0
  70 C    1     2.4178     4.5690   66 C    0 0 0
  70 C    1     2.4245     4.5817   62 C    0 0 0

  71 C    1     1.4025     2.6503   69 C    1 1 0
  71 C    1     1.4025     2.6504   65 C    0 0 0
  71 C    1     1.5516     2.9322    9 B    0 0 0
  71 C    1     2.1486     4.0602   35 H    1 1 0
  71 C    1     2.1487     4.0605   31 H    0 0 0
  71 C    1     2.4251     4.5827   63 C    1 1 0

  72 C    1     1.4025     2.6503   70 C    0 0 0
  72 C    1     1.4025     2.6504   66 C    0 0 0
  72 C    1     1.5516     2.9322   10 B    0 0 0
  72 C    1     2.1486     4.0602   36 H    0 0 0
  72 C    1     2.1487     4.0605   32 H    0 0 0
  72 C    1     2.4251     4.5827   64 C    0 0 0

  73 O    1     1.3791     2.6061    1 B    1 0 0
  73 O    1     1.3791     2.6061    5 B    1 1 0
  73 O    1     2.3880     4.5126   75 O    1 0 0
  73 O    1     2.3882     4.5130   77 O    1 1 0
  73 O    1     2.5383     4.7966   61 C    0 0 0
  73 O    1     2.5384     4.7968   49 C    0 0 0

  74 O    1     1.3791     2.6061    2 B    0 0 0
  74 O    1     1.3791     2.6061    6 B    0 0 0
  74 O    1     2.3880     4.5126   76 O    0 0 0
  74 O    1     2.3882     4.5130   78 O    0 0 0
  74 O    1     2.5383     4.7966   62 C    0 0 0
  74 O    1     2.5384     4.7968   50 C    0 0 0

  75 O    1     1.3793     2.6065    1 B    0 0 0
  75 O    1     1.3793     2.6065    3 B    0 0 0
  75 O    1     2.3880     4.5126   73 O   -1 0 0
  75 O    1     2.3882     4.5131   77 O    0 1 0
  75 O    1     2.5391     4.7981   37 C    0 0 0
  75 O    1     2.5395     4.7990   49 C   -1 0 0

  76 O    1     1.3793     2.6065    2 B    0 0 0
  76 O    1     1.3793     2.6065    4 B    0 0 0
  76 O    1     2.3880     4.5126   74 O    0 0 0
  76 O    1     2.3882     4.5131   78 O    0 0 0
  76 O    1     2.5391     4.7981   38 C    0 0 0
  76 O    1     2.5395     4.7990   50 C    0 0 0

  77 O    1     1.3793     2.6064    5 B    0 0 0
  77 O    1     1.3793     2.6065    3 B    0-1 0
  77 O    1     2.3882     4.5130   73 O   -1-1 0
  77 O    1     2.3882     4.5131   75 O    0-1 0
  77 O    1     2.5390     4.7980   37 C    0-1 0
  77 O    1     2.5391     4.7982   61 C   -1-1 0

  78 O    1     1.3793     2.6064    6 B    0 0 0
  78 O    1     1.3793     2.6065    4 B    0 0 0
  78 O    1     2.3882     4.5130   74 O    0 0 0
  78 O    1     2.3882     4.5131   76 O    0 0 0
  78 O    1     2.5390     4.7980   38 C    0 0 0
  78 O    1     2.5391     4.7982   62 C    0 0 0

  79 O    1     1.3795     2.6068   11 B    0 0 0
  79 O    1     1.3795     2.6068    7 B    0 0 0
  79 O    1     2.3880     4.5126   83 O    1 0 0
  79 O    1     2.3884     4.5134   81 O    0-1 0
  79 O    1     2.5400     4.7998   47 C    0 0 0
  79 O    1     2.5403     4.8005   59 C    0 0 0

  80 O    1     1.3795     2.6068   12 B    1 1 0
  80 O    1     1.3795     2.6068    8 B    0 0 0
  80 O    1     2.3880     4.5126   84 O    1 0 0
  80 O    1     2.3884     4.5134   82 O    0 0 0
  80 O    1     2.5400     4.7998   48 C    0 0 0
  80 O    1     2.5403     4.8005   60 C    1 1 0

  81 O    1     1.3795     2.6069    9 B    0 0 0
  81 O    1     1.3795     2.6070    7 B    0 1 0
  81 O    1     2.3881     4.5128   83 O    1 1 0
  81 O    1     2.3884     4.5134   79 O    0 1 0
  81 O    1     2.5404     4.8006   47 C    0 1 0
  81 O    1     2.5405     4.8008   71 C    0 0 0

  82 O    1     1.3795     2.6069   10 B    1 0 0
  82 O    1     1.3795     2.6070    8 B    0 0 0
  82 O    1     2.3881     4.5128   84 O    1 0 0
  82 O    1     2.3884     4.5134   80 O    0 0 0
  82 O    1     2.5404     4.8006   48 C    0 0 0
  82 O    1     2.5405     4.8008   72 C    1 0 0

  83 O    1     1.3796     2.6071   11 B   -1 0 0
  83 O    1     1.3797     2.6072    9 B   -1-1 0
  83 O    1     2.3880     4.5126   79 O   -1 0 0
  83 O    1     2.3881     4.5128   81 O   -1-1 0
  83 O    1     2.5409     4.8016   71 C   -1-1 0
  83 O    1     2.5410     4.8019   59 C   -1 0 0

  84 O    1     1.3796     2.6071   12 B    0 1 0
  84 O    1     1.3797     2.6072   10 B    0 0 0
  84 O    1     2.3880     4.5126   80 O   -1 0 0
  84 O    1     2.3881     4.5128   82 O   -1 0 0
  84 O    1     2.5409     4.8016   72 C    0 0 0
  84 O    1     2.5410     4.8019   60 C    0 1 0


 SYMMETRY ALLOWED INTERNAL DEGREE(S) OF FREEDOM: 249
 TTTTTTTTTTTTTTTTTTTTTTTTTTTTTT SYMM        TELAPSE        2.69 TCPU        2.69
 TTTTTTTTTTTTTTTTTTTTTTTTTTTTTT INT_SCREEN  TELAPSE        2.90 TCPU        2.90

 DFT PARAMETERS

     ATOM       ELECTRONS   NET CHARGE   R(ANGSTROM)
   1   5  B       5.0000      0.0000     0.89000000
  13   1  H       1.0000      0.0000     1.11000000
  37   6  C       6.0000      0.0000     0.77000000
  73   8  O       8.0000      0.0000     0.74000000

 SIZE OF GRID=    2533288
 TTTTTTTTTTTTTTTTTTTTTTTTTTTTTT MAKE_GRID2  TELAPSE       25.03 TCPU       25.01
 BECKE WEIGHT FUNCTION
 RADSAFE =     2.00
 TOLERANCES - DENSITY:10**- 6; POTENTIAL:10**- 9; GRID WGT:10**-14

 RADIAL INTEGRATION  - INTERVALS (POINTS,UPPER LIMIT):            1( 75,  4.0*R)

 ANGULAR INTEGRATION - INTERVALS (ACCURACY LEVEL [N. POINTS] UPPER LIMIT):
  1(  4[  86]   0.2)  2(  8[ 194]   0.5)  3( 12[ 350]   0.9)  4( 16[ 974]   3.5)
  5( 12[ 350]9999.0)
 TTTTTTTTTTTTTTTTTTTTTTTTTTTTTT INT_CALC    TELAPSE       25.30 TCPU       25.27
 EEEEEEEEEE INT_CALC TERMINATION  DATE 19 02 2026 TIME 19:55:40.6

 *******************************************************************************
 cof-1_z32_L080_serr                                                             
 CRYSTAL - SCF - TYPE OF CALCULATION :  RESTRICTED CLOSED SHELL
 *******************************************************************************

 CAPPA:IS1  2;IS2  2;IS3  8; K PTS MONK NET  20; SYMMOPS:K SPACE   2;G SPACE   1

 TTTTTTTTTTTTTTTTTTTTTTTTTTTTTT SDIK        TELAPSE       27.26 TCPU       53.52

 AAAAAAAAAAAAAAAAAAAAAAAAAAAAAAAAAAAAAAAAAAAAAAAAAAAAAAAAAAAAAAAAAAAAAAAAAAAAAAA
         ATOMIC WAVEFUNCTION(S)


 NUCLEAR CHARGE  5.0  SYMMETRY SPECIES            S    P
 N. ELECTRONS    5.0  NUMBER OF PRIMITIVE GTOS    8    4
                      NUMBER OF CONTRACTED GTOS   4    2
                      NUMBER OF CLOSED SHELLS     2    0
                      OPEN SHELL OCCUPATION       0    1

  ZNUC  SCFIT    TOTAL HF ENERGY   KINETIC ENERGY   VIRIAL THEOREM ACCURACY
   5.0    11    -2.451164084E+01  2.462155050E+01 -1.995536038E+00  1.5E-06

 NUCLEAR CHARGE  1.0  SYMMETRY SPECIES            S
 N. ELECTRONS    1.0  NUMBER OF PRIMITIVE GTOS    4
                      NUMBER OF CONTRACTED GTOS   2
                      NUMBER OF CLOSED SHELLS     0
                      OPEN SHELL OCCUPATION       1

  ZNUC  SCFIT    TOTAL HF ENERGY   KINETIC ENERGY   VIRIAL THEOREM ACCURACY
   1.0     1    -4.977266687E-01  5.190767460E-01 -1.958869132E+00  0.0E+00

 NUCLEAR CHARGE  6.0  SYMMETRY SPECIES            S    P
 N. ELECTRONS    6.0  NUMBER OF PRIMITIVE GTOS    8    4
                      NUMBER OF CONTRACTED GTOS   4    2
                      NUMBER OF CLOSED SHELLS     2    0
                      OPEN SHELL OCCUPATION       0    2

  ZNUC  SCFIT    TOTAL HF ENERGY   KINETIC ENERGY   VIRIAL THEOREM ACCURACY
   6.0     9    -3.766704647E+01  3.775180683E+01 -1.997754800E+00  1.1E-06

 NUCLEAR CHARGE  8.0  SYMMETRY SPECIES            S    P
 N. ELECTRONS    8.0  NUMBER OF PRIMITIVE GTOS    8    4
                      NUMBER OF CONTRACTED GTOS   4    2
                      NUMBER OF CLOSED SHELLS     2    0
                      OPEN SHELL OCCUPATION       0    4

  ZNUC  SCFIT    TOTAL HF ENERGY   KINETIC ENERGY   VIRIAL THEOREM ACCURACY
   8.0    12    -7.477373220E+01  7.477365593E+01 -2.000001020E+00  3.8E-06

 AAAAAAAAAAAAAAAAAAAAAAAAAAAAAAAAAAAAAAAAAAAAAAAAAAAAAAAAAAAAAAAAAAAAAAAAAAAAAAA

 CHARGE NORMALIZATION FACTOR   1.00000000
 TOTAL ATOMIC CHARGES:
   5.0000000   5.0000000   5.0000000   5.0000000   5.0000000   5.0000000
   5.0000000   5.0000000   5.0000000   5.0000000   5.0000000   5.0000000
   1.0000000   1.0000000   1.0000000   1.0000000   1.0000000   1.0000000
   1.0000000   1.0000000   1.0000000   1.0000000   1.0000000   1.0000000
   1.0000000   1.0000000   1.0000000   1.0000000   1.0000000   1.0000000
   1.0000000   1.0000000   1.0000000   1.0000000   1.0000000   1.0000000
   6.0000000   6.0000000   6.0000000   6.0000000   6.0000000   6.0000000
   6.0000000   6.0000000   6.0000000   6.0000000   6.0000000   6.0000000
   6.0000000   6.0000000   6.0000000   6.0000000   6.0000000   6.0000000
   6.0000000   6.0000000   6.0000000   6.0000000   6.0000000   6.0000000
   6.0000000   6.0000000   6.0000000   6.0000000   6.0000000   6.0000000
   6.0000000   6.0000000   6.0000000   6.0000000   6.0000000   6.0000000
   8.0000000   8.0000000   8.0000000   8.0000000   8.0000000   8.0000000
   8.0000000   8.0000000   8.0000000   8.0000000   8.0000000   8.0000000
 TTTTTTTTTTTTTTTTTTTTTTTTTTTTTT MOQGAD      TELAPSE       27.36 TCPU       56.50
 TTTTTTTTTTTTTTTTTTTTTTTTTTTTTT SHELLXN     TELAPSE       47.30 TCPU      691.63
 TTTTTTTTTTTTTTTTTTTTTTTTTTTTTT MONMO3      TELAPSE       47.88 TCPU      710.34
 NUMERICALLY INTEGRATED DENSITY    396.0001201645
 TTTTTTTTTTTTTTTTTTTTTTTTTTTTTT NUMDFT      TELAPSE       49.40 TCPU      758.88
 CYC   0 ETOT(AU) -2.591969774009E+03 DETOT -2.59E+03 tst  0.00E+00 PX  1.00E+00
 TTTTTTTTTTTTTTTTTTTTTTTTTTTTTT DIIS        TELAPSE       49.51 TCPU      762.30
 TTTTTTTTTTTTTTTTTTTTTTTTTTTTTT FDIK        TELAPSE       51.36 TCPU      821.25
 INSULATING STATE
 TOP OF VALENCE BANDS -    BAND    198; K    2; EIG -3.0370350E-01 AU
 TOP OF VALENCE BANDS -    BAND    198; K    1; EIG -3.0386157E-01 AU
 BOTTOM OF VIRTUAL BANDS - BAND    199; K    1; EIG -1.6076178E-01 AU
 INDIRECT ENERGY BAND GAP:   3.8896 eV
 TTTTTTTTTTTTTTTTTTTTTTTTTTTTTT PDIG        TELAPSE       52.91 TCPU      828.18
 CHARGE NORMALIZATION FACTOR   1.00000000
 TOTAL ATOMIC CHARGES:
   4.1127189   4.1657711   4.1319244   4.1658936   4.1321119   4.1661407
   4.1657248   4.1317774   4.1654988   4.1314971   4.1653750   4.1124925
   0.7862183   0.7851895   0.7853081   0.7863336   0.7864960   0.7850931
   0.7852129   0.7866202   0.7864148   0.7852293   0.7853987   0.7865816
   0.7864064   0.7852185   0.7853601   0.7865401   0.7865002   0.7850946
   0.7852779   0.7866902   0.7861742   0.7851419   0.7852999   0.7863269
   6.0432746   6.0419664   6.2715661   6.2661417   6.2661089   6.2715667
   6.2691985   6.2646573   6.2646102   6.2691412   6.0412511   6.0424935
   6.0546431   6.0419613   6.2711757   6.2666531   6.2667405   6.2713016
   6.2710959   6.2665557   6.2667696   6.2713003   6.0407647   6.0533016
   6.0436560   6.0423303   6.2689650   6.2644321   6.2649908   6.2695314
   6.2711926   6.2657642   6.2663963   6.2718406   6.0407840   6.0420377
   8.7140623   8.6907855   8.7141597   8.6908940   8.7113916   8.6908497
   8.6912143   8.7144332   8.6912549   8.7117658   8.6913907   8.7145849
 TTTTTTTTTTTTTTTTTTTTTTTTTTTTTT MOQGAD      TELAPSE       53.01 TCPU      828.28
 TTTTTTTTTTTTTTTTTTTTTTTTTTTTTT SHELLXN     TELAPSE       73.66 TCPU     1487.17
 TTTTTTTTTTTTTTTTTTTTTTTTTTTTTT MONMO3      TELAPSE       74.25 TCPU     1505.99
 NUMERICALLY INTEGRATED DENSITY    396.0000805178
 TTTTTTTTTTTTTTTTTTTTTTTTTTTTTT NUMDFT      TELAPSE       75.80 TCPU     1555.55
 CYC   1 ETOT(AU) -2.577647155547E+03 DETOT  1.43E+01 tst  0.00E+00 PX  1.00E+00
 TTTTTTTTTTTTTTTTTTTTTTTTTTTTTT DIIS        TELAPSE       75.94 TCPU     1559.98
 DIIS TEST: 0.22221E+01 AT SCF   CYCLE   1 - MIX   30 %
 TTTTTTTTTTTTTTTTTTTTTTTTTTTTTT FDIK        TELAPSE       77.84 TCPU     1620.67
 INSULATING STATE
 TOP OF VALENCE BANDS -    BAND    198; K    2; EIG -2.1331371E-01 AU
 TOP OF VALENCE BANDS -    BAND    198; K    1; EIG -2.1354735E-01 AU
 BOTTOM OF VIRTUAL BANDS - BAND    199; K    1; EIG -8.8422523E-02 AU
 INDIRECT ENERGY BAND GAP:   3.3985 eV
 TTTTTTTTTTTTTTTTTTTTTTTTTTTTTT PDIG        TELAPSE       79.39 TCPU     1627.59
 CHARGE NORMALIZATION FACTOR   1.00000000
 TOTAL ATOMIC CHARGES:
   4.6938221   4.7191149   4.6650735   4.7167135   4.6649945   4.7167297
   4.7168450   4.6648724   4.7168262   4.6649182   4.7191790   4.6938124
   0.8977442   0.9119548   0.9119117   0.8977653   0.8961829   0.9123933
   0.9123543   0.8963144   0.8975240   0.9117156   0.9116156   0.8975440
   0.8974859   0.9116957   0.9116056   0.8975387   0.8961870   0.9123921
   0.9124307   0.8964077   0.8976651   0.9119078   0.9119276   0.8977907
   5.8626808   5.8807206   6.1415848   6.1489925   6.1493650   6.1420874
   6.1121005   6.1494410   6.1500094   6.1127060   5.8832506   5.8650571
   5.8839718   5.8849614   6.1157821   6.1447591   6.1454775   6.1164489
   6.1159957   6.1450694   6.1453757   6.1164187   5.8881266   5.8868161
   5.8626333   5.8806706   6.1121370   6.1494797   6.1498908   6.1125742
   6.1417269   6.1491612   6.1491349   6.1418315   5.8834984   5.8652139
   8.3643994   8.3335351   8.3647165   8.3339087   8.3447590   8.3352300
   8.3333532   8.3642004   8.3349463   8.3444704   8.3337519   8.3646218
 TTTTTTTTTTTTTTTTTTTTTTTTTTTTTT MOQGAD      TELAPSE       79.48 TCPU     1627.69
 TTTTTTTTTTTTTTTTTTTTTTTTTTTTTT SHELLXN     TELAPSE      100.18 TCPU     2287.91
 TTTTTTTTTTTTTTTTTTTTTTTTTTTTTT MONMO3      TELAPSE      100.75 TCPU     2306.33
 NUMERICALLY INTEGRATED DENSITY    396.0001003672
 TTTTTTTTTTTTTTTTTTTTTTTTTTTTTT NUMDFT      TELAPSE      102.29 TCPU     2355.21
 CYC   2 ETOT(AU) -2.578028840229E+03 DETOT -3.82E-01 tst  2.77E-03 PX  1.58E-01
 TTTTTTTTTTTTTTTTTTTTTTTTTTTTTT DIIS        TELAPSE      102.44 TCPU     2360.30
 DIIS TEST: 0.93311E+00 AT SCF   CYCLE   2 - DIIS ACTIVE - HISTORY:     2 CYCLES
 TTTTTTTTTTTTTTTTTTTTTTTTTTTTTT FDIK        TELAPSE      104.33 TCPU     2420.64
 INSULATING STATE
 TOP OF VALENCE BANDS -    BAND    198; K    4; EIG -2.2842791E-01 AU
 TOP OF VALENCE BANDS -    BAND    198; K    1; EIG -2.2868153E-01 AU
 BOTTOM OF VIRTUAL BANDS - BAND    199; K    1; EIG -8.1588140E-02 AU
 INDIRECT ENERGY BAND GAP:   3.9957 eV
 TTTTTTTTTTTTTTTTTTTTTTTTTTTTTT PDIG        TELAPSE      105.89 TCPU     2427.58
 CHARGE NORMALIZATION FACTOR   1.00000000
 TOTAL ATOMIC CHARGES:
   4.4650134   4.5121163   4.4580306   4.5095213   4.4580705   4.5096425
   4.5093694   4.4579661   4.5092069   4.4578015   4.5117525   4.4647933
   0.8786259   0.8885722   0.8887763   0.8787033   0.8755297   0.8902654
   0.8904809   0.8755602   0.8750232   0.8867698   0.8870576   0.8751210
   0.8750396   0.8867797   0.8870130   0.8750641   0.8755195   0.8902852
   0.8905259   0.8756412   0.8785848   0.8885759   0.8887392   0.8786771
   5.9125225   5.8732192   6.1721322   6.1635027   6.1633923   6.1719310
   6.1799684   6.1521447   6.1518166   6.1795019   5.8727386   5.9124076
   5.9076558   5.8780509   6.1777006   6.1644921   6.1643680   6.1776147
   6.1778270   6.1645935   6.1643202   6.1775658   5.8773008   5.9071954
   5.9128734   5.8735479   6.1798952   6.1520565   6.1519583   6.1796520
   6.1720986   6.1633424   6.1633951   6.1719378   5.8724477   5.9120855
   8.5318942   8.5074398   8.5320085   8.5076394   8.5382968   8.5053263
   8.5077124   8.5321248   8.5054863   8.5384290   8.5079246   8.5322498
 TTTTTTTTTTTTTTTTTTTTTTTTTTTTTT MOQGAD      TELAPSE      105.99 TCPU     2427.68
 TTTTTTTTTTTTTTTTTTTTTTTTTTTTTT SHELLXN     TELAPSE      126.68 TCPU     3087.72
 TTTTTTTTTTTTTTTTTTTTTTTTTTTTTT MONMO3      TELAPSE      127.26 TCPU     3106.31
 NUMERICALLY INTEGRATED DENSITY    396.0000957059
 TTTTTTTTTTTTTTTTTTTTTTTTTTTTTT NUMDFT      TELAPSE      128.79 TCPU     3155.16
 CYC   3 ETOT(AU) -2.578219050477E+03 DETOT -1.90E-01 tst  6.25E-04 PX  6.69E-02
 TTTTTTTTTTTTTTTTTTTTTTTTTTTTTT DIIS        TELAPSE      128.97 TCPU     3160.93
 DIIS TEST: 0.30985E-01 AT SCF   CYCLE   3 - DIIS ACTIVE - HISTORY:     3 CYCLES
 TTTTTTTTTTTTTTTTTTTTTTTTTTTTTT FDIK        TELAPSE      130.83 TCPU     3220.47
 INSULATING STATE
 TOP OF VALENCE BANDS -    BAND    198; K    2; EIG -2.3505245E-01 AU
 TOP OF VALENCE BANDS -    BAND    198; K    1; EIG -2.3525820E-01 AU
 BOTTOM OF VIRTUAL BANDS - BAND    199; K    1; EIG -8.8287590E-02 AU
 INDIRECT ENERGY BAND GAP:   3.9937 eV
 TTTTTTTTTTTTTTTTTTTTTTTTTTTTTT PDIG        TELAPSE      132.38 TCPU     3227.40
 CHARGE NORMALIZATION FACTOR   1.00000000
 TOTAL ATOMIC CHARGES:
   4.4721688   4.5150221   4.4622756   4.5117394   4.4622818   4.5118560
   4.5116925   4.4620539   4.5115340   4.4619399   4.5147709   4.4719481
   0.8637301   0.8721321   0.8721781   0.8637848   0.8652155   0.8718143
   0.8718201   0.8653007   0.8653121   0.8726189   0.8726038   0.8654146
   0.8653115   0.8726195   0.8725578   0.8653660   0.8652374   0.8718290
   0.8718833   0.8653633   0.8636975   0.8721172   0.8721526   0.8637546
   5.9192799   5.9591193   6.1735175   6.1782461   6.1783874   6.1738298
   6.1454694   6.1873970   6.1878897   6.1461748   5.9608432   5.9205852
   5.9387465   5.9560427   6.1550415   6.1772765   6.1778590   6.1554947
   6.1550249   6.1774543   6.1778401   6.1556014   5.9580168   5.9402713
   5.9192876   5.9591562   6.1453733   6.1872580   6.1880008   6.1462809
   6.1733511   6.1781139   6.1784451   6.1739088   5.9609249   5.9206079
   8.5098624   8.4780268   8.5101392   8.4782958   8.4920951   8.4819579
   8.4780031   8.5098419   8.4819201   8.4921039   8.4783301   8.5102083
 TTTTTTTTTTTTTTTTTTTTTTTTTTTTTT MOQGAD      TELAPSE      132.48 TCPU     3227.50
 TTTTTTTTTTTTTTTTTTTTTTTTTTTTTT SHELLXN     TELAPSE      153.19 TCPU     3888.30
 TTTTTTTTTTTTTTTTTTTTTTTTTTTTTT MONMO3      TELAPSE      153.77 TCPU     3906.87
 NUMERICALLY INTEGRATED DENSITY    396.0000954406
 TTTTTTTTTTTTTTTTTTTTTTTTTTTTTT NUMDFT      TELAPSE      155.30 TCPU     3955.90
 CYC   4 ETOT(AU) -2.578223577197E+03 DETOT -4.53E-03 tst  7.48E-05 PX  2.07E-02
 TTTTTTTTTTTTTTTTTTTTTTTTTTTTTT DIIS        TELAPSE      155.50 TCPU     3962.18
 DIIS TEST: 0.15838E-01 AT SCF   CYCLE   4 - DIIS ACTIVE - HISTORY:     4 CYCLES
 TTTTTTTTTTTTTTTTTTTTTTTTTTTTTT FDIK        TELAPSE      157.34 TCPU     4021.05
 INSULATING STATE
 TOP OF VALENCE BANDS -    BAND    198; K    2; EIG -2.3559833E-01 AU
 TOP OF VALENCE BANDS -    BAND    198; K    1; EIG -2.3581985E-01 AU
 BOTTOM OF VIRTUAL BANDS - BAND    199; K    1; EIG -8.9826416E-02 AU
 INDIRECT ENERGY BAND GAP:   3.9667 eV
 TTTTTTTTTTTTTTTTTTTTTTTTTTTTTT PDIG        TELAPSE      158.90 TCPU     4028.00
 CHARGE NORMALIZATION FACTOR   1.00000000
 TOTAL ATOMIC CHARGES:
   4.4815267   4.5173666   4.4678726   4.5151563   4.4678987   4.5152726
   4.5151206   4.4677547   4.5149709   4.4676306   4.5171419   4.4813593
   0.8644979   0.8736332   0.8737491   0.8645554   0.8625150   0.8748931
   0.8750329   0.8626008   0.8624942   0.8726418   0.8727932   0.8625818
   0.8624897   0.8726374   0.8727568   0.8625380   0.8625134   0.8749088
   0.8750904   0.8626841   0.8644429   0.8736178   0.8737282   0.8645455
   5.9404237   5.9158982   6.1773071   6.1726229   6.1726803   6.1773913
   6.1704410   6.1645948   6.1645385   6.1703545   5.9163156   5.9409292
   5.9480255   5.9202542   6.1712799   6.1697851   6.1699656   6.1714662
   6.1714170   6.1699429   6.1699004   6.1714538   5.9207109   5.9484854
   5.9406586   5.9161194   6.1703695   6.1645205   6.1646222   6.1704363
   6.1773001   6.1725298   6.1726417   6.1773605   5.9161730   5.9407412
   8.5110809   8.4838036   8.5112442   8.4840484   8.5058983   8.4823424
   8.4839223   8.5111668   8.4823579   8.5058876   8.4841917   8.5113860
 TTTTTTTTTTTTTTTTTTTTTTTTTTTTTT MOQGAD      TELAPSE      159.00 TCPU     4028.09
 TTTTTTTTTTTTTTTTTTTTTTTTTTTTTT SHELLXN     TELAPSE      179.78 TCPU     4691.20
 TTTTTTTTTTTTTTTTTTTTTTTTTTTTTT MONMO3      TELAPSE      180.36 TCPU     4709.75
 NUMERICALLY INTEGRATED DENSITY    396.0000952194
 TTTTTTTTTTTTTTTTTTTTTTTTTTTTTT NUMDFT      TELAPSE      181.89 TCPU     4758.72
 CYC   5 ETOT(AU) -2.578226788682E+03 DETOT -3.21E-03 tst  5.34E-05 PX  1.06E-02
 TTTTTTTTTTTTTTTTTTTTTTTTTTTTTT DIIS        TELAPSE      182.12 TCPU     4765.54
 DIIS TEST: 0.31767E-02 AT SCF   CYCLE   5 - DIIS ACTIVE - HISTORY:     5 CYCLES
 TTTTTTTTTTTTTTTTTTTTTTTTTTTTTT FDIK        TELAPSE      183.96 TCPU     4824.26
 INSULATING STATE
 TOP OF VALENCE BANDS -    BAND    198; K    2; EIG -2.3469826E-01 AU
 TOP OF VALENCE BANDS -    BAND    198; K    1; EIG -2.3492480E-01 AU
 BOTTOM OF VIRTUAL BANDS - BAND    199; K    1; EIG -8.8683831E-02 AU
 INDIRECT ENERGY BAND GAP:   3.9733 eV
 TTTTTTTTTTTTTTTTTTTTTTTTTTTTTT PDIG        TELAPSE      185.50 TCPU     4831.18
 CHARGE NORMALIZATION FACTOR   1.00000000
 TOTAL ATOMIC CHARGES:
   4.4781426   4.5190300   4.4657854   4.5162204   4.4658049   4.5163349
   4.5161571   4.4656426   4.5160074   4.4655227   4.5187751   4.4779446
   0.8657702   0.8755462   0.8756636   0.8658396   0.8645000   0.8763035
   0.8764201   0.8645830   0.8643592   0.8746916   0.8748281   0.8644635
   0.8643604   0.8746913   0.8747866   0.8644164   0.8645035   0.8763186
   0.8764778   0.8646588   0.8657239   0.8755334   0.8756390   0.8658202
   5.9206542   5.9214221   6.1751654   6.1755103   6.1755349   6.1752151
   6.1660184   6.1718629   6.1719064   6.1660680   5.9219716   5.9212171
   5.9268855   5.9245038   6.1679261   6.1749033   6.1751072   6.1680882
   6.1679988   6.1750598   6.1750667   6.1681061   5.9250439   5.9273587
   5.9208423   5.9216106   6.1659417   6.1717632   6.1720124   6.1661780
   6.1750946   6.1753896   6.1755400   6.1752295   5.9218672   5.9210618
   8.5134092   8.4866126   8.5136045   8.4868513   8.5081874   8.4868369
   8.4867286   8.5135079   8.4868810   8.5082418   8.4870001   8.5137473
 TTTTTTTTTTTTTTTTTTTTTTTTTTTTTT MOQGAD      TELAPSE      185.60 TCPU     4831.28
 TTTTTTTTTTTTTTTTTTTTTTTTTTTTTT SHELLXN     TELAPSE      206.29 TCPU     5491.37
 TTTTTTTTTTTTTTTTTTTTTTTTTTTTTT MONMO3      TELAPSE      206.88 TCPU     5510.16
 NUMERICALLY INTEGRATED DENSITY    396.0000952369
 TTTTTTTTTTTTTTTTTTTTTTTTTTTTTT NUMDFT      TELAPSE      208.44 TCPU     5559.81
 CYC   6 ETOT(AU) -2.578227560648E+03 DETOT -7.72E-04 tst  1.07E-05 PX  4.93E-03
 TTTTTTTTTTTTTTTTTTTTTTTTTTTTTT DIIS        TELAPSE      208.68 TCPU     5566.66
 DIIS TEST: 0.35242E-03 AT SCF   CYCLE   6 - DIIS ACTIVE - HISTORY:     6 CYCLES
 TTTTTTTTTTTTTTTTTTTTTTTTTTTTTT FDIK        TELAPSE      210.57 TCPU     5626.58
 INSULATING STATE
 TOP OF VALENCE BANDS -    BAND    198; K    2; EIG -2.3469574E-01 AU
 TOP OF VALENCE BANDS -    BAND    198; K    1; EIG -2.3491472E-01 AU
 BOTTOM OF VIRTUAL BANDS - BAND    199; K    1; EIG -8.8736798E-02 AU
 INDIRECT ENERGY BAND GAP:   3.9717 eV
 TTTTTTTTTTTTTTTTTTTTTTTTTTTTTT PDIG        TELAPSE      212.15 TCPU     5633.54
 CHARGE NORMALIZATION FACTOR   1.00000000
 TOTAL ATOMIC CHARGES:
   4.4778680   4.5186595   4.4664217   4.5157835   4.4664403   4.5158990
   4.5157155   4.4662611   4.5155641   4.4661385   4.5183959   4.4776592
   0.8659063   0.8757450   0.8758488   0.8659669   0.8648312   0.8763957
   0.8764937   0.8649078   0.8647881   0.8750580   0.8751658   0.8648824
   0.8647887   0.8750587   0.8751246   0.8648352   0.8648364   0.8764119
   0.8765507   0.8649826   0.8658616   0.8757340   0.8758230   0.8659469
   5.9250658   5.9207144   6.1768910   6.1726393   6.1726943   6.1770074
   6.1638775   6.1721550   6.1722789   6.1640418   5.9214895   5.9257867
   5.9338597   5.9216740   6.1683551   6.1720827   6.1723709   6.1685968
   6.1684288   6.1722330   6.1723279   6.1686262   5.9225012   5.9345778
   5.9252349   5.9208845   6.1637940   6.1720519   6.1723890   6.1641509
   6.1768128   6.1725098   6.1727056   6.1770305   5.9214049   5.9256534
   8.5137941   8.4852787   8.5139951   8.4855245   8.5060254   8.4862992
   8.4853784   8.5138749   8.4863306   8.5060605   8.4856584   8.5141320
 TTTTTTTTTTTTTTTTTTTTTTTTTTTTTT MOQGAD      TELAPSE      212.25 TCPU     5633.64
 TTTTTTTTTTTTTTTTTTTTTTTTTTTTTT SHELLXN     TELAPSE      232.95 TCPU     6294.15
 TTTTTTTTTTTTTTTTTTTTTTTTTTTTTT MONMO3      TELAPSE      233.54 TCPU     6312.98
 NUMERICALLY INTEGRATED DENSITY    396.0000953093
 TTTTTTTTTTTTTTTTTTTTTTTTTTTTTT NUMDFT      TELAPSE      235.10 TCPU     6362.65
 CYC   7 ETOT(AU) -2.578227632234E+03 DETOT -7.16E-05 tst  1.19E-06 PX  1.65E-03
 TTTTTTTTTTTTTTTTTTTTTTTTTTTTTT DIIS        TELAPSE      235.37 TCPU     6369.52
 DIIS TEST: 0.49567E-04 AT SCF   CYCLE   7 - DIIS ACTIVE - HISTORY:     7 CYCLES
 TTTTTTTTTTTTTTTTTTTTTTTTTTTTTT FDIK        TELAPSE      237.23 TCPU     6428.93
 INSULATING STATE
 TOP OF VALENCE BANDS -    BAND    198; K    2; EIG -2.3477227E-01 AU
 TOP OF VALENCE BANDS -    BAND    198; K    1; EIG -2.3499583E-01 AU
 BOTTOM OF VIRTUAL BANDS - BAND    199; K    1; EIG -8.8697158E-02 AU
 INDIRECT ENERGY BAND GAP:   3.9749 eV
 TTTTTTTTTTTTTTTTTTTTTTTTTTTTTT PDIG        TELAPSE      238.77 TCPU     6435.84
 CHARGE NORMALIZATION FACTOR   1.00000000
 TOTAL ATOMIC CHARGES:
   4.4782196   4.5185833   4.4663016   4.5158358   4.4663216   4.5159512
   4.5157733   4.4661555   4.5156224   4.4660330   4.5183268   4.4780220
   0.8660332   0.8756443   0.8757544   0.8660957   0.8647417   0.8764810
   0.8765926   0.8648209   0.8646415   0.8748963   0.8750210   0.8647375
   0.8646420   0.8748956   0.8749806   0.8646906   0.8647452   0.8764969
   0.8766497   0.8648974   0.8659869   0.8756321   0.8757297   0.8660771
   5.9251964   5.9208702   6.1754646   6.1740430   6.1740900   6.1755564
   6.1653890   6.1705287   6.1705913   6.1654706   5.9215149   5.9258289
   5.9329330   5.9232630   6.1679855   6.1728092   6.1730525   6.1681933
   6.1680685   6.1729663   6.1730055   6.1682105   5.9239420   5.9335310
   5.9253832   5.9210560   6.1653106   6.1704304   6.1706958   6.1655751
   6.1754003   6.1739243   6.1740905   6.1755669   5.9214137   5.9256790
   8.5131691   8.4855498   8.5133619   8.4857927   8.5067047   8.4856248
   8.4856569   8.5132556   8.4856558   8.5067351   8.4859327   8.5135009
 TTTTTTTTTTTTTTTTTTTTTTTTTTTTTT MOQGAD      TELAPSE      238.87 TCPU     6435.94
 TTTTTTTTTTTTTTTTTTTTTTTTTTTTTT SHELLXN     TELAPSE      259.51 TCPU     7094.28
 TTTTTTTTTTTTTTTTTTTTTTTTTTTTTT MONMO3      TELAPSE      260.08 TCPU     7112.74
 NUMERICALLY INTEGRATED DENSITY    396.0000953008
 TTTTTTTTTTTTTTTTTTTTTTTTTTTTTT NUMDFT      TELAPSE      261.63 TCPU     7162.28
 CYC   8 ETOT(AU) -2.578227644564E+03 DETOT -1.23E-05 tst  9.95E-08 PX  4.24E-04
 TTTTTTTTTTTTTTTTTTTTTTTTTTTTTT DIIS        TELAPSE      261.93 TCPU     7169.12
 DIIS TEST: 0.18906E-05 AT SCF   CYCLE   8 - DIIS ACTIVE - HISTORY:     8 CYCLES
 TTTTTTTTTTTTTTTTTTTTTTTTTTTTTT FDIK        TELAPSE      263.80 TCPU     7228.88
 INSULATING STATE
 TOP OF VALENCE BANDS -    BAND    198; K    2; EIG -2.3476606E-01 AU
 TOP OF VALENCE BANDS -    BAND    198; K    1; EIG -2.3498866E-01 AU
 BOTTOM OF VIRTUAL BANDS - BAND    199; K    1; EIG -8.8722405E-02 AU
 INDIRECT ENERGY BAND GAP:   3.9741 eV
 TTTTTTTTTTTTTTTTTTTTTTTTTTTTTT PDIG        TELAPSE      265.37 TCPU     7235.83
 CHARGE NORMALIZATION FACTOR   1.00000000
 TOTAL ATOMIC CHARGES:
   4.4784482   4.5186295   4.4663705   4.5158442   4.4663902   4.5159594
   4.5157821   4.4662248   4.5156315   4.4661032   4.5183739   4.4782508
   0.8659634   0.8756402   0.8757518   0.8660269   0.8647354   0.8764216
   0.8765332   0.8648145   0.8646383   0.8748559   0.8749823   0.8647359
   0.8646390   0.8748556   0.8749415   0.8646889   0.8647391   0.8764373
   0.8765906   0.8648907   0.8659171   0.8756280   0.8757271   0.8660080
   5.9250675   5.9208173   6.1758075   6.1737325   6.1737738   6.1758903
   6.1651786   6.1708477   6.1709117   6.1652602   5.9214486   5.9256915
   5.9327879   5.9231933   6.1680233   6.1727966   6.1730314   6.1682205
   6.1681037   6.1729514   6.1729869   6.1682404   5.9238480   5.9333640
   5.9252528   5.9210015   6.1650999   6.1707498   6.1710158   6.1653653
   6.1757418   6.1736125   6.1737756   6.1759025   5.9213489   5.9255428
   8.5131576   8.4855277   8.5133518   8.4857707   8.5067673   8.4858760
   8.4856356   8.5132446   8.4859096   8.5068036   8.4859110   8.5134899
 TTTTTTTTTTTTTTTTTTTTTTTTTTTTTT MOQGAD      TELAPSE      265.47 TCPU     7235.92
 TTTTTTTTTTTTTTTTTTTTTTTTTTTTTT SHELLXN     TELAPSE      286.18 TCPU     7896.55
 TTTTTTTTTTTTTTTTTTTTTTTTTTTTTT MONMO3      TELAPSE      286.76 TCPU     7915.10
 NUMERICALLY INTEGRATED DENSITY    396.0000953011
 TTTTTTTTTTTTTTTTTTTTTTTTTTTTTT NUMDFT      TELAPSE      288.29 TCPU     7964.00
 CYC   9 ETOT(AU) -2.578227644800E+03 DETOT -2.36E-07 tst  3.80E-09 PX  9.65E-05
 TTTTTTTTTTTTTTTTTTTTTTTTTTTTTT DIIS        TELAPSE      288.60 TCPU     7970.91
 DIIS TEST: 0.11922E-06 AT SCF   CYCLE   9 - DIIS ACTIVE - HISTORY:     9 CYCLES
 TTTTTTTTTTTTTTTTTTTTTTTTTTTTTT FDIK        TELAPSE      290.48 TCPU     8030.76
 INSULATING STATE
 TOP OF VALENCE BANDS -    BAND    198; K    2; EIG -2.3476601E-01 AU
 TOP OF VALENCE BANDS -    BAND    198; K    1; EIG -2.3498882E-01 AU
 BOTTOM OF VIRTUAL BANDS - BAND    199; K    1; EIG -8.8720230E-02 AU
 INDIRECT ENERGY BAND GAP:   3.9741 eV
 TTTTTTTTTTTTTTTTTTTTTTTTTTTTTT PDIG        TELAPSE      292.02 TCPU     8037.67
 CHARGE NORMALIZATION FACTOR   1.00000000
 TOTAL ATOMIC CHARGES:
   4.4783468   4.5186361   4.4663631   4.5158685   4.4663827   4.5159837
   4.5158055   4.4662143   4.5156548   4.4660923   4.5183795   4.4781476
   0.8659742   0.8756271   0.8757366   0.8660369   0.8647253   0.8764251
   0.8765346   0.8648045   0.8646284   0.8748712   0.8749937   0.8647246
   0.8646289   0.8748707   0.8749531   0.8646777   0.8647291   0.8764410
   0.8765918   0.8648806   0.8659281   0.8756150   0.8757119   0.8660180
   5.9250404   5.9208392   6.1757230   6.1738326   6.1738793   6.1758160
   6.1651941   6.1708127   6.1708848   6.1652878   5.9214979   5.9256824
   5.9328410   5.9230618   6.1680681   6.1727595   6.1730082   6.1682792
   6.1681494   6.1729153   6.1729624   6.1682984   5.9237549   5.9334499
   5.9252245   5.9210226   6.1651150   6.1707139   6.1709899   6.1653931
   6.1756565   6.1737122   6.1738817   6.1758287   5.9213992   5.9255347
   8.5132353   8.4855434   8.5134295   8.4857866   8.5066809   8.4857994
   8.4856499   8.5133220   8.4858312   8.5067138   8.4859260   8.5135686
 TTTTTTTTTTTTTTTTTTTTTTTTTTTTTT MOQGAD      TELAPSE      292.12 TCPU     8037.77
 TTTTTTTTTTTTTTTTTTTTTTTTTTTTTT SHELLXN     TELAPSE      312.10 TCPU     8675.40
 +++ ENERGIES IN A.U. +++
 ::: EXT EL-POLE                                  -3.1145152815945E+03
 ::: EXT EL-SPHEROPOLE                             3.5798056180698E+01
 ::: BIELET ZONE E-E                               4.4271076854811E+03
 ::: TOTAL E-E                                     1.3483904600673E+03
 ::: TOTAL E-N + N-E                              -6.3424023453906E+03
 ::: TOTAL N-N                                     1.2329848627272E+02
 ::: KINETIC ENERGY                                2.5599380136672E+03
 ::: PSEUDO TOTAL   ENERGY                        -2.3107753853834E+03
 ::: VIRIAL COEFFICIENT                            1.0511552636894E+00
 TTTTTTTTTTTTTTTTTTTTTTTTTTTTTT MONMO3      TELAPSE      312.67 TCPU     8693.54
 NUMERICALLY INTEGRATED DENSITY    396.0000953009
 EXCHANGE ENERGY: -0.252050571393E+03  CORRELATION ENERGY: -0.154016880391E+02
 TTTTTTTTTTTTTTTTTTTTTTTTTTTTTT NUMDFT      TELAPSE      314.18 TCPU     8741.81
 CYC  10 ETOT(AU) -2.578227644816E+03 DETOT -1.57E-08 tst  1.92E-10 PX  9.65E-05

 == SCF ENDED - CONVERGENCE ON ENERGY      E(AU) -2.5782276448159E+03 CYCLES  10


 ENERGY EXPRESSION=HARTREE+FOCK EXCH*0.00000+(HSESOL     EXCH)*1.00000+PBESOL     CORR


 TOTAL ENERGY(DFT)(AU)( 10) -2.5782276448159E+03 DE-1.6E-08 tester 1.9E-10
 TTTTTTTTTTTTTTTTTTTTTTTTTTTTTT EDFT        TELAPSE      314.18 TCPU     8741.82
 
 INFORMATION **** DFTD3 ENERGY **** CALCULATE DFTD3 ENERGY

           DFT-D V3(BJ)
 DF                                         hsesol3c  
 parameters
 s6       :    1.0000
 s8       :    0.0000
 a1       :    0.5196
 a2       :    4.9385
 k1 k3    :   16.0000   -4.0000
 Cutoff   :   50.2022
 CN-Cutoff:   21.1671
 ABC-Cutoff:   21.1671
 
 Edisp /kcal,au:   -56.3449 -0.08979132

 E6    /kcal :   -60.4366
 E8    /kcal :     0.0000
 E6(ABC) "   :   4.091715
 
 INFORMATION **** DFTD3 ENERGY **** NORMAL TERMINATION OF DFTD3 MODULE

 GCP ENERGY CALCULATION
  level        hsesol3c            basis:hsesol3c
  Nbf            948
  Atoms           84

  Parameters: 
  sigma     1.0000
  eta       1.4281
  alpha     0.2936
  beta      1.9467

  dmp_scal      4.0000
  dmp_exp       6.0000
 cutoffs: 
   distance [bohr] 60.0
   noise    [a.u.] 2.2E-16
 SR-damping   T
 ** gCP correction **
  Egcp:        0.1684705793 / (a.u.) ||     105.7169 / (kcal/mol)
 INFORMATION **** GCP **** NORMAL TERMINATION OF GCP MODULE

 *******************************************************************************

 DFT-D3-GCP DISPERSION AND COUNTERPOISE CORRECTION

 D3 DISPERSION ENERGY (AU)      -8.9791322856939E-02
 GCP ENERGY (AU)                 1.6847057931329E-01
 TOTAL ENERGY + DISP + GCP (AU) -2.5781489655594E+03

 *******************************************************************************

 EIGENVECTORS IN FORTRAN UNIT  8
 TTTTTTTTTTTTTTTTTTTTTTTTTTTTTT END         TELAPSE      317.86 TCPU     8751.40
 EEEEEEEEEE TERMINATION  DATE 19 02 2026 TIME 20:00:33.2
