 Default number of threads is:           32

         
 *******************************************************************************
 *                                                                             *
 *                               CRYSTAL23                                     *
 *                      public : 1.0.1 - October 2022                          *
 *                       HTTP://WWW.CRYSTAL.UNITO.IT                           *
 *                                                                             *
 *                              MAIN AUTHORS                                   *
 *                                                                             *
 *  R. DOVESI(1,11), V.R. SAUNDERS(2), C. ROETTI(1,11), R. ORLANDO(1,11),      *
 *  C.M. ZICOVICH-WILSON(1,3), F. PASCALE(4), B. CIVALLERI(1,11),              *
 *  K. DOLL(5), N.M. HARRISON(6), I.J. BUSH(7), Ph. D'ARCO(8),                 *
 *  M. LLUNELL(9), M. CAUSA'(10), Y. NOEL(8), L. MASCHIO(1,11), A. ERBA(1,11)  *
 *  M. RE'RAT(14), S. CASASSA(1,11), B.G. SEARLE(2), J.K. DESMARAIS(1)         *
 *                                                                             *
 *        CONTRIBUTIONS TO THE CODE HAVE ALSO BEEN GIVEN BY                    *
 *                                                                             *
 *  M. FERRABONE(1,11), M. DE LA PIERRE(1,11), M. FERRERO(1,11),               *
 *  J. BAIMA(1,11), E. ALBANESE(1,11), M.F. PEINTINGER(12), R. BAST(13),       *
 *  B. KIRTMAN(15), V. LACIVITA(1,11), R. DEMICHELIS(1,16)                     *
 *  G. BRANDEBURG(17), S. SALUSTRO(1,11), G. SANSONE(1,11)                     *
 *  M.T. RUGGIERO(18), L.E. DAGA(1), L. DONA'(1), A. COSSARD(1)                *
 *                                                                             *
 * (1) THEORETICAL CHEMISTRY GROUP - UNIVERSITA' DI TORINO - TORINO (ITALY)    *
 * (2) SCIENTIFIC COMPUTING DEPARTMENT - STFC DARESBURY (UK)                   *
 * (3) UNIVERSIDAD AUTONOMA DEL ESTADO DE MORELOS - CUERNAVACA (MEXICO)        *
 * (4) UNIVERSITE' DE LORRAINE - NANCY (FRANCE)                                *
 * (5) UNIVERSITAET STUTTGART- STUTTGART (GERMANY)                             *
 * (6) IMPERIAL COLLEGE - LONDON (UK)                                          *
 * (7) SCIENTIFIC COMPUTING DEPARTMENT - STFC RAL (UK)                         *
 * (8) UPMC - SORBONNE UNIVERSITES - PARIS (FRANCE)                            *
 * (9) UNIVERSIDAD DE BARCELONA - BARCELONA (SPAIN)                            *
 *(10) UNIVERSITA' DI NAPOLI "FEDERICO II" - NAPOLI (ITALY)                    *
 *(11) NIS - NANOSTRUCTURED INTERFACES AND SURFACES - TORINO (ITALY)           *
 *(12) MPI FUER CHEMISCHE ENERGIEKONVERSION - MUELHEIM AN DER RUHR (GERMANY)   *
 *(13) UNIVERSITY OF TROMSO - TROMSO (NORWAY)                                  *
 *(14) UNIVERSITE' DE PAU ET DES PAYS DE L'ADOUR - PAU (FRANCE)                *
 *(15) UNIVERSITY OF CALIFORNIA SANTA BARBARA - SANTA BARBARA (USA)            *
 *(16) CURTIN UNIVERSITY - PERTH (AUSTRALIA)                                   *
 *(17) UNIVERSITY COLLEGE LONDON - LONDON (UK)                                 *
 *(18) UNIVERSITY OF VERMONT - BURLINGTON (USA)                                *
 *                                                                             *
 *******************************************************************************
 EEEEEEEEEE STARTING  DATE 19 02 2026 TIME 20:26:57.9
 cof-1_z42_L070_serr                                                             

 CRYSTAL CALCULATION
 (INPUT ACCORDING TO THE INTERNATIONAL TABLES FOR X-RAY CRYSTALLOGRAPHY)
 CRYSTAL FAMILY                       :  TRICLINIC   
 CRYSTAL CLASS  (GROTH - 1921)        :  TRICLINIC PEDIAL                     

 SPACE GROUP (NONCENTROSYMMETRIC)     :  P 1             

 LATTICE PARAMETERS  (ANGSTROMS AND DEGREES) - CONVENTIONAL CELL
        A           B           C        ALPHA        BETA       GAMMA
    15.02361    15.02392     8.40000    90.00032    89.99994   119.99596


 NUMBER OF IRREDUCIBLE ATOMS IN THE CONVENTIONAL CELL:   84

 INPUT COORDINATES

 ATOM AT. N.              COORDINATES
   1   5     6.136805400000E-01  2.273182200000E-01  2.505686600000E-01
   2   5     8.826434800000E-01  7.652987900000E-01  7.505686600000E-01
   3   5     7.727362000000E-01  3.863778800000E-01  2.505686700000E-01
   4   5     4.169914000000E-02  9.243584500000E-01  7.505686600000E-01
   5   5     6.136762700000E-01  3.863606700000E-01  2.493730400000E-01
   6   5     8.826392100000E-01  9.243412400000E-01  7.493730400000E-01
   7   5     2.272552500000E-01  6.136332200000E-01  2.505686700000E-01
   8   5     4.962181900000E-01  1.516137900000E-01  7.505686600000E-01
   9   5     3.863632200000E-01  6.136124500000E-01  2.505686600000E-01
  10   5     6.553261600000E-01  1.515930200000E-01  7.505686600000E-01
  11   5     3.863435000000E-01  7.727516500000E-01  2.493730400000E-01
  12   5     6.553064400000E-01  3.107322200000E-01  7.493730500000E-01
  13   1     9.030436200000E-01  3.089300500000E-01  2.480899000000E-01
  14   1     1.720065600000E-01  8.469106200000E-01  7.480899100000E-01
  15   1     9.663453000000E-02  6.910534400000E-01  2.477108700000E-01
  16   1     3.655974700000E-01  2.290340100000E-01  7.477108600000E-01
  17   1     9.029714200000E-01  5.940724300000E-01  2.476525200000E-01
  18   1     1.719343600000E-01  1.320530000000E-01  7.476525300000E-01
  19   1     9.673618000000E-02  4.056849400000E-01  2.476670700000E-01
  20   1     3.656991200000E-01  9.436655100000E-01  7.476670700000E-01
  21   1     6.910324000000E-01  9.700412000000E-02  2.519101100000E-01
  22   1     9.599953400000E-01  6.349846900000E-01  7.519101100000E-01
  23   1     3.089297200000E-01  9.034373100000E-01  2.522891800000E-01
  24   1     5.778926600000E-01  4.414178800000E-01  7.522891800000E-01
  25   1     4.058699900000E-01  9.704998000000E-02  2.523475500000E-01
  26   1     6.748329300000E-01  6.350305500000E-01  7.523475500000E-01
  27   1     5.943122100000E-01  9.033473200000E-01  2.523329000000E-01
  28   1     8.632751500000E-01  4.413278900000E-01  7.523329000000E-01
  29   1     6.910727400000E-01  5.940542100000E-01  2.480899300000E-01
  30   1     9.600356800000E-01  1.320347800000E-01  7.480899300000E-01
  31   1     3.089618300000E-01  4.056093300000E-01  2.477108400000E-01
  32   1     5.779247700000E-01  9.435899000000E-01  7.477108400000E-01
  33   1     4.058405700000E-01  3.088232500000E-01  2.476524800000E-01
  34   1     6.748035100000E-01  8.468038200000E-01  7.476524800000E-01
  35   1     5.942908800000E-01  6.909579300000E-01  2.476671200000E-01
  36   1     8.632538200000E-01  2.289385000000E-01  7.476671200000E-01
  37   6     8.918903100000E-01  4.459436900000E-01  2.493293000000E-01
  38   6     1.608532500000E-01  9.839242600000E-01  7.493293000000E-01
  39   6     9.464891100000E-01  3.927856300000E-01  2.481482400000E-01
  40   6     2.154520500000E-01  9.307662000000E-01  7.481482400000E-01
  41   6     5.338812000000E-02  6.071853000000E-01  2.480462100000E-01
  42   6     3.223510600000E-01  1.451658700000E-01  7.480462100000E-01
  43   6     9.464521100000E-01  5.536921900000E-01  2.483524000000E-01
  44   6     2.154150500000E-01  9.167276000000E-02  7.483524000000E-01
  45   6     5.342634000000E-02  4.462499700000E-01  2.475650100000E-01
  46   6     3.223892800000E-01  9.842305400000E-01  7.475650100000E-01
  47   6     1.080358900000E-01  5.540356300000E-01  2.483669700000E-01
  48   6     3.769988300000E-01  9.201620000000E-02  7.483669700000E-01
  49   6     5.540394200000E-01  1.081684600000E-01  2.506707300000E-01
  50   6     8.230023600000E-01  6.461490300000E-01  7.506707300000E-01
  51   6     6.071778500000E-01  5.355594000000E-02  2.518517700000E-01
  52   6     8.761407900000E-01  5.915365100000E-01  7.518517700000E-01
  53   6     3.927986700000E-01  9.466631600000E-01  2.519538400000E-01
  54   6     6.617616100000E-01  4.846437300000E-01  7.519538400000E-01
  55   6     4.462875800000E-01  5.360286000000E-02  2.516476600000E-01
  56   6     7.152505200000E-01  5.915834300000E-01  7.516476500000E-01
  57   6     5.537168500000E-01  9.466235600000E-01  2.524349900000E-01
  58   6     8.226797900000E-01  4.846041300000E-01  7.524349900000E-01
  59   6     4.459279100000E-01  8.919920600000E-01  2.516330500000E-01
  60   6     7.148908500000E-01  4.299726300000E-01  7.516330500000E-01
  61   6     5.540448700000E-01  4.458745500000E-01  2.493293000000E-01
  62   6     8.230078100000E-01  9.838551200000E-01  7.493293000000E-01
  63   6     6.072102200000E-01  5.536257800000E-01  2.481482600000E-01
  64   6     8.761731600000E-01  9.160635000000E-02  7.481482600000E-01
  65   6     3.928233700000E-01  4.461720300000E-01  2.480461900000E-01
  66   6     6.617863100000E-01  9.841526000000E-01  7.480461900000E-01
  67   6     4.462872600000E-01  3.926899900000E-01  2.483523700000E-01
  68   6     7.152502000000E-01  9.306705600000E-01  7.483523700000E-01
  69   6     5.537429600000E-01  6.070980000000E-01  2.475650500000E-01
  70   6     8.227059000000E-01  1.450785700000E-01  7.475650400000E-01
  71   6     4.459599800000E-01  5.539582300000E-01  2.483669700000E-01
  72   6     7.149229200000E-01  9.193880000000E-02  7.483669700000E-01
  73   8     5.607366800000E-01  2.803706300000E-01  2.496938200000E-01
  74   8     8.296996200000E-01  8.183512000000E-01  7.496938100000E-01
  75   8     7.196817000000E-01  2.803783300000E-01  2.522162800000E-01
  76   8     9.886446400000E-01  8.183589000000E-01  7.522162800000E-01
  77   8     7.196794200000E-01  4.393234600000E-01  2.484107200000E-01
  78   8     9.886423600000E-01  9.773040300000E-01  7.484107200000E-01
  79   8     2.803245100000E-01  7.196511100000E-01  2.496938300000E-01
  80   8     5.492874500000E-01  2.576316800000E-01  7.496938300000E-01
  81   8     2.803439700000E-01  5.606956100000E-01  2.522162700000E-01
  82   8     5.493069100000E-01  9.867618000000E-02  7.522162700000E-01
  83   8     4.392638400000E-01  7.196354200000E-01  2.484107200000E-01
  84   8     7.082267800000E-01  2.576159900000E-01  7.484107200000E-01

 *******************************************************************************

 << INFORMATION >>: FROM NOW ON, ALL COORDINATES REFER TO THE PRIMITIVE CELL

 *******************************************************************************

 LATTICE PARAMETERS  (ANGSTROMS AND DEGREES) - PRIMITIVE CELL
       A          B          C        ALPHA      BETA     GAMMA        VOLUME
   15.02361   15.02392    8.40000    90.00032  89.99994 119.99596   1642.045003

 COORDINATES OF THE EQUIVALENT ATOMS (FRACTIONAL UNITS)

 N. ATOM EQUIV AT. N.          X                  Y                  Z

   1   1   1    5 B    -3.86319460000E-01  2.27318220000E-01  2.50568660000E-01

   2   2   1    5 B    -1.17356520000E-01 -2.34701210000E-01 -2.49431340000E-01

   3   3   1    5 B    -2.27263800000E-01  3.86377880000E-01  2.50568670000E-01

   4   4   1    5 B     4.16991400000E-02 -7.56415500000E-02 -2.49431340000E-01

   5   5   1    5 B    -3.86323730000E-01  3.86360670000E-01  2.49373040000E-01

   6   6   1    5 B    -1.17360790000E-01 -7.56587600000E-02 -2.50626960000E-01

   7   7   1    5 B     2.27255250000E-01 -3.86366780000E-01  2.50568670000E-01

   8   8   1    5 B     4.96218190000E-01  1.51613790000E-01 -2.49431340000E-01

   9   9   1    5 B     3.86363220000E-01 -3.86387550000E-01  2.50568660000E-01

  10  10   1    5 B    -3.44673840000E-01  1.51593020000E-01 -2.49431340000E-01

  11  11   1    5 B     3.86343500000E-01 -2.27248350000E-01  2.49373040000E-01

  12  12   1    5 B    -3.44693560000E-01  3.10732220000E-01 -2.50626950000E-01

  13  13   1    1 H    -9.69563800000E-02  3.08930050000E-01  2.48089900000E-01

  14  14   1    1 H     1.72006560000E-01 -1.53089380000E-01 -2.51910090000E-01

  15  15   1    1 H     9.66345300000E-02 -3.08946560000E-01  2.47710870000E-01

  16  16   1    1 H     3.65597470000E-01  2.29034010000E-01 -2.52289140000E-01

  17  17   1    1 H    -9.70285800000E-02 -4.05927570000E-01  2.47652520000E-01

  18  18   1    1 H     1.71934360000E-01  1.32053000000E-01 -2.52347470000E-01

  19  19   1    1 H     9.67361800000E-02  4.05684940000E-01  2.47667070000E-01

  20  20   1    1 H     3.65699120000E-01 -5.63344900000E-02 -2.52332930000E-01

  21  21   1    1 H    -3.08967600000E-01  9.70041200000E-02  2.51910110000E-01

  22  22   1    1 H    -4.00046600000E-02 -3.65015310000E-01 -2.48089890000E-01

  23  23   1    1 H     3.08929720000E-01 -9.65626900000E-02  2.52289180000E-01

  24  24   1    1 H    -4.22107340000E-01  4.41417880000E-01 -2.47710820000E-01

  25  25   1    1 H     4.05869990000E-01  9.70499800000E-02  2.52347550000E-01

  26  26   1    1 H    -3.25167070000E-01 -3.64969450000E-01 -2.47652450000E-01

  27  27   1    1 H    -4.05687790000E-01 -9.66526800000E-02  2.52332900000E-01

  28  28   1    1 H    -1.36724850000E-01  4.41327890000E-01 -2.47667100000E-01

  29  29   1    1 H    -3.08927260000E-01 -4.05945790000E-01  2.48089930000E-01

  30  30   1    1 H    -3.99643200000E-02  1.32034780000E-01 -2.51910070000E-01

  31  31   1    1 H     3.08961830000E-01  4.05609330000E-01  2.47710840000E-01

  32  32   1    1 H    -4.22075230000E-01 -5.64101000000E-02 -2.52289160000E-01

  33  33   1    1 H     4.05840570000E-01  3.08823250000E-01  2.47652480000E-01

  34  34   1    1 H    -3.25196490000E-01 -1.53196180000E-01 -2.52347520000E-01

  35  35   1    1 H    -4.05709120000E-01 -3.09042070000E-01  2.47667120000E-01

  36  36   1    1 H    -1.36746180000E-01  2.28938500000E-01 -2.52332880000E-01

  37  37   1    6 C    -1.08109690000E-01  4.45943690000E-01  2.49329300000E-01

  38  38   1    6 C     1.60853250000E-01 -1.60757400000E-02 -2.50670700000E-01

  39  39   1    6 C    -5.35108900000E-02  3.92785630000E-01  2.48148240000E-01

  40  40   1    6 C     2.15452050000E-01 -6.92338000000E-02 -2.51851760000E-01

  41  41   1    6 C     5.33881200000E-02 -3.92814700000E-01  2.48046210000E-01

  42  42   1    6 C     3.22351060000E-01  1.45165870000E-01 -2.51953790000E-01

  43  43   1    6 C    -5.35478900000E-02 -4.46307810000E-01  2.48352400000E-01

  44  44   1    6 C     2.15415050000E-01  9.16727600000E-02 -2.51647600000E-01

  45  45   1    6 C     5.34263400000E-02  4.46249970000E-01  2.47565010000E-01

  46  46   1    6 C     3.22389280000E-01 -1.57694600000E-02 -2.52434990000E-01

  47  47   1    6 C     1.08035890000E-01 -4.45964370000E-01  2.48366970000E-01

  48  48   1    6 C     3.76998830000E-01  9.20162000000E-02 -2.51633030000E-01

  49  49   1    6 C    -4.45960580000E-01  1.08168460000E-01  2.50670730000E-01

  50  50   1    6 C    -1.76997640000E-01 -3.53850970000E-01 -2.49329270000E-01

  51  51   1    6 C    -3.92822150000E-01  5.35559400000E-02  2.51851770000E-01

  52  52   1    6 C    -1.23859210000E-01 -4.08463490000E-01 -2.48148230000E-01

  53  53   1    6 C     3.92798670000E-01 -5.33368400000E-02  2.51953840000E-01

  54  54   1    6 C    -3.38238390000E-01  4.84643730000E-01 -2.48046160000E-01

  55  55   1    6 C     4.46287580000E-01  5.36028600000E-02  2.51647660000E-01

  56  56   1    6 C    -2.84749480000E-01 -4.08416570000E-01 -2.48352350000E-01

  57  57   1    6 C    -4.46283150000E-01 -5.33764400000E-02  2.52434990000E-01

  58  58   1    6 C    -1.77320210000E-01  4.84604130000E-01 -2.47565010000E-01

  59  59   1    6 C     4.45927910000E-01 -1.08007940000E-01  2.51633050000E-01

  60  60   1    6 C    -2.85109150000E-01  4.29972630000E-01 -2.48366950000E-01

  61  61   1    6 C    -4.45955130000E-01  4.45874550000E-01  2.49329300000E-01

  62  62   1    6 C    -1.76992190000E-01 -1.61448800000E-02 -2.50670700000E-01

  63  63   1    6 C    -3.92789780000E-01 -4.46374220000E-01  2.48148260000E-01

  64  64   1    6 C    -1.23826840000E-01  9.16063500000E-02 -2.51851740000E-01

  65  65   1    6 C     3.92823370000E-01  4.46172030000E-01  2.48046190000E-01

  66  66   1    6 C    -3.38213690000E-01 -1.58474000000E-02 -2.51953810000E-01

  67  67   1    6 C     4.46287260000E-01  3.92689990000E-01  2.48352370000E-01

  68  68   1    6 C    -2.84749800000E-01 -6.93294400000E-02 -2.51647630000E-01

  69  69   1    6 C    -4.46257040000E-01 -3.92902000000E-01  2.47565050000E-01

  70  70   1    6 C    -1.77294100000E-01  1.45078570000E-01 -2.52434960000E-01

  71  71   1    6 C     4.45959980000E-01 -4.46041770000E-01  2.48366970000E-01

  72  72   1    6 C    -2.85077080000E-01  9.19388000000E-02 -2.51633030000E-01

  73  73   1    8 O    -4.39263320000E-01  2.80370630000E-01  2.49693820000E-01

  74  74   1    8 O    -1.70300380000E-01 -1.81648800000E-01 -2.50306190000E-01

  75  75   1    8 O    -2.80318300000E-01  2.80378330000E-01  2.52216280000E-01

  76  76   1    8 O    -1.13553600000E-02 -1.81641100000E-01 -2.47783720000E-01

  77  77   1    8 O    -2.80320580000E-01  4.39323460000E-01  2.48410720000E-01

  78  78   1    8 O    -1.13576400000E-02 -2.26959700000E-02 -2.51589280000E-01

  79  79   1    8 O     2.80324510000E-01 -2.80348890000E-01  2.49693830000E-01

  80  80   1    8 O    -4.50712550000E-01  2.57631680000E-01 -2.50306170000E-01

  81  81   1    8 O     2.80343970000E-01 -4.39304390000E-01  2.52216270000E-01

  82  82   1    8 O    -4.50693090000E-01  9.86761800000E-02 -2.47783730000E-01

  83  83   1    8 O     4.39263840000E-01 -2.80364580000E-01  2.48410720000E-01

  84  84   1    8 O    -2.91773220000E-01  2.57615990000E-01 -2.51589280000E-01

 NUMBER OF SYMMETRY OPERATORS         :    1
 *******************************************************************************
 * GEOMETRY EDITING - INPUT COORDINATES ARE GIVEN IN ANGSTROM         
 *******************************************************************************

 GCALCO - MAX INDICES DIRECT LATTICE VECTOR    12    12    20
 NO.OF VECTORS CREATED 6999 STARS 3500 RMAX   264.54886 BOHR

 GEOMETRY FOR WAVE FUNCTION - DIMENSIONALITY OF THE SYSTEM    3
 (NON PERIODIC DIRECTION: LATTICE PARAMETER FORMALLY SET TO 500)
 *******************************************************************************
 LATTICE PARAMETERS (ANGSTROMS AND DEGREES) - BOHR = 0.5291772083 ANGSTROM
 PRIMITIVE CELL - CENTRING CODE 1/0 VOLUME=  1642.045003 - DENSITY  0.789 g/cm^3
         A              B              C           ALPHA      BETA       GAMMA 
    15.02361100    15.02391600     8.40000000    90.000323  89.999944 119.995964
 *******************************************************************************
 ATOMS IN THE ASYMMETRIC UNIT   84 - ATOMS IN THE UNIT CELL:   84
     ATOM                 X/A                 Y/B                 Z/C    
 *******************************************************************************
      1 T   5 B    -3.863194600000E-01  2.273182200000E-01  2.505686600000E-01
      2 T   5 B    -1.173565200000E-01 -2.347012100000E-01 -2.494313400000E-01
      3 T   5 B    -2.272638000000E-01  3.863778800000E-01  2.505686700000E-01
      4 T   5 B     4.169914000000E-02 -7.564155000000E-02 -2.494313400000E-01
      5 T   5 B    -3.863237300000E-01  3.863606700000E-01  2.493730400000E-01
      6 T   5 B    -1.173607900000E-01 -7.565876000000E-02 -2.506269600000E-01
      7 T   5 B     2.272552500000E-01 -3.863667800000E-01  2.505686700000E-01
      8 T   5 B     4.962181900000E-01  1.516137900000E-01 -2.494313400000E-01
      9 T   5 B     3.863632200000E-01 -3.863875500000E-01  2.505686600000E-01
     10 T   5 B    -3.446738400000E-01  1.515930200000E-01 -2.494313400000E-01
     11 T   5 B     3.863435000000E-01 -2.272483500000E-01  2.493730400000E-01
     12 T   5 B    -3.446935600000E-01  3.107322200000E-01 -2.506269500000E-01
     13 T   1 H    -9.695638000000E-02  3.089300500000E-01  2.480899000000E-01
     14 T   1 H     1.720065600000E-01 -1.530893800000E-01 -2.519100900000E-01
     15 T   1 H     9.663453000000E-02 -3.089465600000E-01  2.477108700000E-01
     16 T   1 H     3.655974700000E-01  2.290340100000E-01 -2.522891400000E-01
     17 T   1 H    -9.702858000000E-02 -4.059275700000E-01  2.476525200000E-01
     18 T   1 H     1.719343600000E-01  1.320530000000E-01 -2.523474700000E-01
     19 T   1 H     9.673618000000E-02  4.056849400000E-01  2.476670700000E-01
     20 T   1 H     3.656991200000E-01 -5.633449000000E-02 -2.523329300000E-01
     21 T   1 H    -3.089676000000E-01  9.700412000000E-02  2.519101100000E-01
     22 T   1 H    -4.000466000000E-02 -3.650153100000E-01 -2.480898900000E-01
     23 T   1 H     3.089297200000E-01 -9.656269000000E-02  2.522891800000E-01
     24 T   1 H    -4.221073400000E-01  4.414178800000E-01 -2.477108200000E-01
     25 T   1 H     4.058699900000E-01  9.704998000000E-02  2.523475500000E-01
     26 T   1 H    -3.251670700000E-01 -3.649694500000E-01 -2.476524500000E-01
     27 T   1 H    -4.056877900000E-01 -9.665268000000E-02  2.523329000000E-01
     28 T   1 H    -1.367248500000E-01  4.413278900000E-01 -2.476671000000E-01
     29 T   1 H    -3.089272600000E-01 -4.059457900000E-01  2.480899300000E-01
     30 T   1 H    -3.996432000000E-02  1.320347800000E-01 -2.519100700000E-01
     31 T   1 H     3.089618300000E-01  4.056093300000E-01  2.477108400000E-01
     32 T   1 H    -4.220752300000E-01 -5.641010000000E-02 -2.522891600000E-01
     33 T   1 H     4.058405700000E-01  3.088232500000E-01  2.476524800000E-01
     34 T   1 H    -3.251964900000E-01 -1.531961800000E-01 -2.523475200000E-01
     35 T   1 H    -4.057091200000E-01 -3.090420700000E-01  2.476671200000E-01
     36 T   1 H    -1.367461800000E-01  2.289385000000E-01 -2.523328800000E-01
     37 T   6 C    -1.081096900000E-01  4.459436900000E-01  2.493293000000E-01
     38 T   6 C     1.608532500000E-01 -1.607574000000E-02 -2.506707000000E-01
     39 T   6 C    -5.351089000000E-02  3.927856300000E-01  2.481482400000E-01
     40 T   6 C     2.154520500000E-01 -6.923380000000E-02 -2.518517600000E-01
     41 T   6 C     5.338812000000E-02 -3.928147000000E-01  2.480462100000E-01
     42 T   6 C     3.223510600000E-01  1.451658700000E-01 -2.519537900000E-01
     43 T   6 C    -5.354789000000E-02 -4.463078100000E-01  2.483524000000E-01
     44 T   6 C     2.154150500000E-01  9.167276000000E-02 -2.516476000000E-01
     45 T   6 C     5.342634000000E-02  4.462499700000E-01  2.475650100000E-01
     46 T   6 C     3.223892800000E-01 -1.576946000000E-02 -2.524349900000E-01
     47 T   6 C     1.080358900000E-01 -4.459643700000E-01  2.483669700000E-01
     48 T   6 C     3.769988300000E-01  9.201620000000E-02 -2.516330300000E-01
     49 T   6 C    -4.459605800000E-01  1.081684600000E-01  2.506707300000E-01
     50 T   6 C    -1.769976400000E-01 -3.538509700000E-01 -2.493292700000E-01
     51 T   6 C    -3.928221500000E-01  5.355594000000E-02  2.518517700000E-01
     52 T   6 C    -1.238592100000E-01 -4.084634900000E-01 -2.481482300000E-01
     53 T   6 C     3.927986700000E-01 -5.333684000000E-02  2.519538400000E-01
     54 T   6 C    -3.382383900000E-01  4.846437300000E-01 -2.480461600000E-01
     55 T   6 C     4.462875800000E-01  5.360286000000E-02  2.516476600000E-01
     56 T   6 C    -2.847494800000E-01 -4.084165700000E-01 -2.483523500000E-01
     57 T   6 C    -4.462831500000E-01 -5.337644000000E-02  2.524349900000E-01
     58 T   6 C    -1.773202100000E-01  4.846041300000E-01 -2.475650100000E-01
     59 T   6 C     4.459279100000E-01 -1.080079400000E-01  2.516330500000E-01
     60 T   6 C    -2.851091500000E-01  4.299726300000E-01 -2.483669500000E-01
     61 T   6 C    -4.459551300000E-01  4.458745500000E-01  2.493293000000E-01
     62 T   6 C    -1.769921900000E-01 -1.614488000000E-02 -2.506707000000E-01
     63 T   6 C    -3.927897800000E-01 -4.463742200000E-01  2.481482600000E-01
     64 T   6 C    -1.238268400000E-01  9.160635000000E-02 -2.518517400000E-01
     65 T   6 C     3.928233700000E-01  4.461720300000E-01  2.480461900000E-01
     66 T   6 C    -3.382136900000E-01 -1.584740000000E-02 -2.519538100000E-01
     67 T   6 C     4.462872600000E-01  3.926899900000E-01  2.483523700000E-01
     68 T   6 C    -2.847498000000E-01 -6.932944000000E-02 -2.516476300000E-01
     69 T   6 C    -4.462570400000E-01 -3.929020000000E-01  2.475650500000E-01
     70 T   6 C    -1.772941000000E-01  1.450785700000E-01 -2.524349600000E-01
     71 T   6 C     4.459599800000E-01 -4.460417700000E-01  2.483669700000E-01
     72 T   6 C    -2.850770800000E-01  9.193880000000E-02 -2.516330300000E-01
     73 T   8 O    -4.392633200000E-01  2.803706300000E-01  2.496938200000E-01
     74 T   8 O    -1.703003800000E-01 -1.816488000000E-01 -2.503061900000E-01
     75 T   8 O    -2.803183000000E-01  2.803783300000E-01  2.522162800000E-01
     76 T   8 O    -1.135536000000E-02 -1.816411000000E-01 -2.477837200000E-01
     77 T   8 O    -2.803205800000E-01  4.393234600000E-01  2.484107200000E-01
     78 T   8 O    -1.135764000000E-02 -2.269597000000E-02 -2.515892800000E-01
     79 T   8 O     2.803245100000E-01 -2.803488900000E-01  2.496938300000E-01
     80 T   8 O    -4.507125500000E-01  2.576316800000E-01 -2.503061700000E-01
     81 T   8 O     2.803439700000E-01 -4.393043900000E-01  2.522162700000E-01
     82 T   8 O    -4.506930900000E-01  9.867618000000E-02 -2.477837300000E-01
     83 T   8 O     4.392638400000E-01 -2.803645800000E-01  2.484107200000E-01
     84 T   8 O    -2.917732200000E-01  2.576159900000E-01 -2.515892800000E-01

 T = ATOM BELONGING TO THE ASYMMETRIC UNIT

 ****    1 SYMMOPS - TRANSLATORS IN FRACTIONAL UNITS
 **** MATRICES AND TRANSLATORS IN THE CRYSTALLOGRAPHIC REFERENCE FRAME
   V INV                    ROTATION MATRICES                   TRANSLATORS
   1   1  1.00  0.00  0.00  0.00  1.00  0.00 -0.00  0.00  1.00  0.00  0.00  0.00

 DIRECT LATTICE VECTORS CARTESIAN COMPONENTS (ANGSTROM)
          X                    Y                    Z
   0.130113578931E+02  -0.751088897922E+01   0.000000000000E+00
   0.000000000000E+00   0.150239160000E+02   0.000000000000E+00
  -0.178558158248E-04  -0.473542732632E-04   0.839999999985E+01


 CARTESIAN COORDINATES - PRIMITIVE CELL
 *******************************************************************************
 *      ATOM          X(ANGSTROM)         Y(ANGSTROM)         Z(ANGSTROM)
 *******************************************************************************
    1     5 B    -5.026545229220E+00  6.316800551624E+00  2.104776743962E+00
    2     5 B    -1.526963229004E+00 -2.644667659791E+00 -2.095223255962E+00
    3     5 B    -2.957015112044E+00  7.511850118676E+00  2.104776827962E+00
    4     5 B     5.425668881727E-01 -1.449618092739E+00 -2.095223255962E+00
    5     5 B    -5.026600766370E+00 -6.317642911029E+00  2.094733535962E+00
    6     5 B    -1.527018766153E+00 -2.551951224435E-01 -2.105266463962E+00
    7     5 B     2.956894916718E+00 -7.511642866102E+00  2.104776827962E+00
    8     5 B     6.456476916935E+00 -1.449195077516E+00 -2.095223255962E+00
    9     5 B     5.027105658026E+00  6.316918788785E+00  2.104776743962E+00
   10     5 B    -4.484670234814E+00  4.866339556586E+00 -2.095223255962E+00
   11     5 B     5.026849095397E+00 -6.315955066760E+00  2.094733535962E+00
   12     5 B     8.526431095613E+00 -2.535072781750E-01 -2.105266379962E+00
   13     1 H    -1.261538590043E+00  5.369555978966E+00  2.083955159962E+00
   14     1 H     2.238043410174E+00 -3.591912232450E+00 -2.116044755962E+00
   15     1 H     1.257342031578E+00 -5.367410122486E+00  2.080771307962E+00
   16     1 H     4.756924031794E+00  6.950376660996E-01 -2.119228775962E+00
   17     1 H    -1.262478002273E+00 -5.369862548978E+00  2.080281167962E+00
   18     1 H     2.237103997944E+00  6.925852396064E-01 -2.119718747962E+00
   19     1 H     1.258664636890E+00  5.368390024677E+00  2.080403387962E+00
   20     1 H     4.758246637106E+00 -3.593078186737E+00 -2.119596611962E+00
   21     1 H    -4.020092519019E+00  3.777991163289E+00  2.116044923962E+00
   22     1 H    -5.205105188027E-01 -5.183477048126E+00 -2.083955075962E+00
   23     1 H     4.019590645893E+00 -3.771098519565E+00  2.119229111962E+00
   24     1 H    -5.492185246947E+00 -5.221677751764E+00 -2.080770887962E+00
   25     1 H     5.280915192070E+00 -1.590385637299E+00  2.119719419962E+00
   26     1 H    -4.230860700770E+00 -3.040964869497E+00 -2.080280579962E+00
   27     1 H    -5.278553534143E+00  1.594962256378E+00  2.119596359962E+00
   28     1 H    -1.778971533926E+00 -7.366505955037E+00 -2.080403639962E+00
   29     1 H    -4.019567572629E+00 -3.778588845118E+00  2.083955411962E+00
   30     1 H    -5.199855724128E-01  2.283858943467E+00 -2.116044587962E+00
   31     1 H     4.020008522345E+00  3.773250768624E+00  2.080771055962E+00
   32     1 H    -5.491767370495E+00  2.322671536425E+00 -2.119228943962E+00
   33     1 H     5.280532481755E+00  1.591499374912E+00  2.080280831962E+00
   34     1 H    -4.231243411085E+00  1.409201427134E-01 -2.119719167962E+00
   35     1 H    -5.278830983096E+00 -1.595797670067E+00  2.080403807962E+00
   36     1 H    -1.779248982879E+00  4.466650118518E+00 -2.119596191962E+00
   37     6 C    -1.406658320275E+00  7.511808611650E+00  2.094366119962E+00
   38     6 C     2.092923679941E+00 -1.449659599765E+00 -2.105633879962E+00
   39     6 C    -6.962537718553E-01  6.303080914217E+00  2.084445215962E+00
   40     6 C     2.803328228361E+00 -2.658387297198E+00 -2.115554783962E+00
   41     6 C     6.946475074900E-01 -6.302619044542E+00  2.083588163962E+00
   42     6 C     4.194229507707E+00 -2.401712559572E-01 -2.116411835962E+00
   43     6 C    -6.967351957427E-01 -6.303110551270E+00  2.086160159962E+00
   44     6 C     2.802846804474E+00 -2.406627626850E-01 -2.113839839962E+00
   45     6 C     6.951448101809E-01  6.303131032716E+00  2.079546083962E+00
   46     6 C     4.194726810398E+00 -2.658337178699E+00 -2.120453915962E+00
   47     6 C     1.405689195290E+00 -7.511588570671E+00  2.086282547962E+00
   48     6 C     4.905271195507E+00 -1.449140782086E+00 -2.113717451962E+00
   49     6 C     7.208800704551E+00 -2.536226587170E+00  2.105634131962E+00
   50     6 C    -2.302975188289E+00 -3.986805819369E+00 -2.094365867962E+00
   51     6 C    -5.111154078989E+00  3.755051574831E+00  2.115554867962E+00
   52     6 C    -1.611572078772E+00 -5.206416636584E+00 -2.084445131962E+00
   53     6 C     5.110839576445E+00 -3.751607336510E+00  2.116412255962E+00
   54     6 C    -4.400936316395E+00 -5.202186568709E+00 -2.083587743962E+00
   55     6 C     5.806802933232E+00 -2.546703516775E+00  2.113840343962E+00
   56     6 C    -3.704972959608E+00 -3.997282748973E+00 -2.086159739962E+00
   57     6 C    -5.806754293723E+00  2.550048088130E+00  2.120453915962E+00
   58     6 C    -2.307172293507E+00 -6.411420123284E+00 -2.079546083962E+00
   59     6 C     5.802123138399E+00 -4.972029158537E+00  2.113717619962E+00
   60     6 C    -3.709652754441E+00 -6.422608390736E+00 -2.086282379962E+00
   61     6 C     7.208871640404E+00  2.537400470856E+00  2.094366119962E+00
   62     6 C    -2.302904252436E+00  1.086821238657E+00 -2.105633879962E+00
   63     6 C    -5.110732835205E+00 -3.756100106975E+00  2.084445383962E+00
   64     6 C    -1.611150834988E+00  2.306347681610E+00 -2.115554615962E+00
   65     6 C     5.111161026760E+00  3.752786633711E+00  2.083587995962E+00
   66     6 C    -4.400614866080E+00  2.302207401512E+00 -2.116412003962E+00
   67     6 C     5.806798828437E+00  2.547715600556E+00  2.086159907962E+00
   68     6 C    -3.704977064403E+00  1.097136368358E+00 -2.113840091962E+00
   69     6 C    -5.806414480212E+00 -2.551151283861E+00  2.079546419962E+00
   70     6 C    -2.306832479995E+00  3.511296504724E+00 -2.120453663962E+00
   71     6 C     5.802540470965E+00  4.973054254838E+00  2.086282547962E+00
   72     6 C    -3.709235421874E+00  3.522475022639E+00 -2.113717451962E+00
   73     8 O     7.295941168757E+00  6.220198632697E-04  2.097428087962E+00
   74     8 O    -2.215834724082E+00 -1.449957212335E+00 -2.102571995962E+00
   75     8 O    -3.647326228801E+00  6.317808164764E+00  2.118616751962E+00
   76     8 O    -1.477442285840E-01 -2.643660046651E+00 -2.081383247962E+00
   77     8 O    -3.647355826745E+00 -6.318112248470E+00  2.086650047962E+00
   78     8 O    -1.477738265286E-01 -2.556644598851E-01 -2.113349951962E+00
   79     8 O     3.647398067319E+00 -6.317436270886E+00  2.097428171962E+00
   80     8 O     7.146980067535E+00 -2.549884823013E-01 -2.102571827962E+00
   81     8 O     3.647651223303E+00  6.318199368028E+00  2.118616667962E+00
   82     8 O     7.147233223520E+00 -2.643268843387E+00 -2.081383331962E+00
   83     8 O    -7.295943296914E+00 -5.586182122386E-04  2.086650047962E+00
   84     8 O    -3.796361296698E+00  6.061889170373E+00 -2.113349951962E+00

 *******************************************************************************
 STARTING BASIS SET HANDLING 
 *******************************************************************************

 Loading internal basis set: SOLDEF2MSVP         

 Please cite in your publication:
 L. Dona', J. G. Brandenburg and B. Civalleri, J. Chem. Phys., 151, 121101 (2019
 )                                                                              
                                                                                
                    

 *******************************************************************************
 LOCAL ATOMIC FUNCTIONS BASIS SET
 *******************************************************************************
   ATOM   X(AU)   Y(AU)   Z(AU)  N. TYPE  EXPONENT  S COEF   P COEF   D/F/G COEF
 *******************************************************************************
   1 B   -9.499  11.937   3.977
                                  1 S  
                                         2.410E+03 1.755E-03 0.000E+00 0.000E+00
                                         3.619E+02 1.344E-02 0.000E+00 0.000E+00
                                         8.231E+01 6.637E-02 0.000E+00 0.000E+00
                                         2.311E+01 2.303E-01 0.000E+00 0.000E+00
                                         7.252E+00 5.150E-01 0.000E+00 0.000E+00
                                  2 S  
                                         2.367E+00 1.000E+00 0.000E+00 0.000E+00
                                  3 S  
                                         5.533E-01 1.000E+00 0.000E+00 0.000E+00
                                  4 S  
                                         1.716E-01 1.000E+00 0.000E+00 0.000E+00
                           5-     7 P  
                                         6.002E+00 0.000E+00-3.555E-02 0.000E+00
                                         1.240E+00 0.000E+00-1.983E-01 0.000E+00
                                         3.367E-01 0.000E+00-5.048E-01 0.000E+00
                           8-    10 P  
                                         1.256E-01 0.000E+00 1.000E+00 0.000E+00
                          11-    15 D  
                                         8.880E-01 0.000E+00 0.000E+00 1.000E+00
   2 B   -2.886  -4.998  -3.959
   3 B   -5.588  14.195   3.977
   4 B    1.025  -2.739  -3.959
   5 B   -9.499 -11.939   3.958
   6 B   -2.886  -0.482  -3.978
   7 B    5.588 -14.195   3.977
   8 B   12.201  -2.739  -3.959
   9 B    9.500  11.937   3.977
  10 B   -8.475   9.196  -3.959
  11 B    9.499 -11.935   3.958
  12 B   16.113  -0.479  -3.978
  13 H   -2.384  10.147   3.938
                                181 S  
                                         1.874E+01 1.968E-02 0.000E+00 0.000E+00
                                         2.826E+00 1.380E-01 0.000E+00 0.000E+00
                                         6.401E-01 4.783E-01 0.000E+00 0.000E+00
                                182 S  
                                         1.756E-01 1.000E+00 0.000E+00 0.000E+00
  14 H    4.229  -6.788  -3.999
  15 H    2.376 -10.143   3.932
  16 H    8.989   1.313  -4.005
  17 H   -2.386 -10.148   3.931
  18 H    4.228   1.309  -4.006
  19 H    2.379  10.145   3.931
  20 H    8.992  -6.790  -4.005
  21 H   -7.597   7.139   3.999
  22 H   -0.984  -9.795  -3.938
  23 H    7.596  -7.126   4.005
  24 H  -10.379  -9.868  -3.932
  25 H    9.979  -3.005   4.006
  26 H   -7.995  -5.747  -3.931
  27 H   -9.975   3.014   4.005
  28 H   -3.362 -13.921  -3.931
  29 H   -7.596  -7.140   3.938
  30 H   -0.983   4.316  -3.999
  31 H    7.597   7.130   3.932
  32 H  -10.378   4.389  -4.005
  33 H    9.979   3.007   3.931
  34 H   -7.996   0.266  -4.006
  35 H   -9.976  -3.016   3.931
  36 H   -3.362   8.441  -4.005
  37 C   -2.658  14.195   3.958
                                229 S  
                                         3.624E+03 1.634E-03 0.000E+00 0.000E+00
                                         5.440E+02 1.252E-02 0.000E+00 0.000E+00
                                         1.237E+02 6.211E-02 0.000E+00 0.000E+00
                                         3.476E+01 2.182E-01 0.000E+00 0.000E+00
                                         1.093E+01 4.980E-01 0.000E+00 0.000E+00
                                230 S  
                                         3.574E+00 1.000E+00 0.000E+00 0.000E+00
                                231 S  
                                         7.742E-01 1.000E+00 0.000E+00 0.000E+00
                                232 S  
                                         2.330E-01 1.000E+00 0.000E+00 0.000E+00
                         233-   235 P  
                                         9.443E+00 0.000E+00 3.790E-02 0.000E+00
                                         2.002E+00 0.000E+00 2.082E-01 0.000E+00
                                         5.463E-01 0.000E+00 5.047E-01 0.000E+00
                         236-   238 P  
                                         1.820E-01 0.000E+00 1.000E+00 0.000E+00
                         239-   243 D  
                                         8.880E-01 0.000E+00 0.000E+00 1.000E+00
  38 C    3.955  -2.739  -3.979
  39 C   -1.316  11.911   3.939
  40 C    5.298  -5.024  -3.998
  41 C    1.313 -11.910   3.937
  42 C    7.926  -0.454  -3.999
  43 C   -1.317 -11.911   3.942
  44 C    5.297  -0.455  -3.995
  45 C    1.314  11.911   3.930
  46 C    7.927  -5.024  -4.007
  47 C    2.656 -14.195   3.943
  48 C    9.270  -2.738  -3.994
  49 C   13.623  -4.793   3.979
  50 C   -4.352  -7.534  -3.958
  51 C   -9.659   7.096   3.998
  52 C   -3.045  -9.839  -3.939
  53 C    9.658  -7.090   3.999
  54 C   -8.317  -9.831  -3.937
  55 C   10.973  -4.813   3.995
  56 C   -7.001  -7.554  -3.942
  57 C  -10.973   4.819   4.007
  58 C   -4.360 -12.116  -3.930
  59 C   10.964  -9.396   3.994
  60 C   -7.010 -12.137  -3.943
  61 C   13.623   4.795   3.958
  62 C   -4.352   2.054  -3.979
  63 C   -9.658  -7.098   3.939
  64 C   -3.045   4.358  -3.998
  65 C    9.659   7.092   3.937
  66 C   -8.316   4.351  -3.999
  67 C   10.973   4.814   3.942
  68 C   -7.001   2.073  -3.995
  69 C  -10.973  -4.821   3.930
  70 C   -4.359   6.635  -4.007
  71 C   10.965   9.398   3.943
  72 C   -7.009   6.657  -3.994
  73 O   13.787   0.001   3.964
                                769 S  
                                         6.773E+03 1.727E-03 0.000E+00 0.000E+00
                                         1.017E+03 1.325E-02 0.000E+00 0.000E+00
                                         2.313E+02 6.603E-02 0.000E+00 0.000E+00
                                         6.501E+01 2.353E-01 0.000E+00 0.000E+00
                                         2.050E+01 5.498E-01 0.000E+00 0.000E+00
                                770 S  
                                         6.716E+00 1.000E+00 0.000E+00 0.000E+00
                                771 S  
                                         1.147E+00 1.000E+00 0.000E+00 0.000E+00
                                772 S  
                                         3.342E-01 1.000E+00 0.000E+00 0.000E+00
                         773-   775 P  
                                         1.769E+01 0.000E+00 4.359E-02 0.000E+00
                                         3.854E+00 0.000E+00 2.318E-01 0.000E+00
                                         1.047E+00 0.000E+00 5.146E-01 0.000E+00
                         776-   778 P  
                                         2.759E-01 0.000E+00 1.000E+00 0.000E+00
                         779-   783 D  
                                         8.000E-01 0.000E+00 0.000E+00 1.000E+00
  74 O   -4.187  -2.740  -3.973
  75 O   -6.892  11.939   4.004
  76 O   -0.279  -4.996  -3.933
  77 O   -6.893 -11.940   3.943
  78 O   -0.279  -0.483  -3.994
  79 O    6.893 -11.938   3.964
  80 O   13.506  -0.482  -3.973
  81 O    6.893  11.940   4.004
  82 O   13.506  -4.995  -3.933
  83 O  -13.787  -0.001   3.943
  84 O   -7.174  11.455  -3.994

 *******************************************************************************
 FINISHED BASIS SET HANDLING 
 *******************************************************************************

 INFORMATION **** SET_MPP **** PCRYSTAL CALCULATION
 INFORMATION **** READM2 **** NEW DEFAULT: FOCK/KS MATRIX MIXING SET TO 30 %
 INFORMATION **** READM2 **** NEW DEFAULT: FULL DIRECT SCF MODE
 INFORMATION **** READM2 **** NEW DEFAULT: COULOMB BIPOLAR BUFFER SET TO 32 Mb
 INFORMATION **** READM2 **** NEW DEFAULT: EXCHANGE BIPOLAR BUFFER SET TO 32 Mb

 *******************************************************************************
 NEW DEFAULT: DFT INTEGRATION GRID INCREASED TO XLGRID
 NEW DEFAULT: DIIS ACCELERATOR ACTIVE
 USE KEYWORD NODIIS TO TURN IT OFF
 *******************************************************************************

 WARNING **** RDDFTP **** HSEsol-HJS ACTIVE
 RANGE SEPARATION - OMEGA:   0.110000000000000     
 WARNING **** RDDFTP **** HSEsol-3c has to be combined with sol-def2-mSVP basis set
 *******************************************************************************
 N. OF ATOMS PER CELL        84  COULOMB OVERLAP TOL         (T1) 10**   -6
 NUMBER OF SHELLS           468  COULOMB PENETRATION TOL     (T2) 10**   -6
 NUMBER OF AO               948  EXCHANGE OVERLAP TOL        (T3) 10**   -6
 N. OF ELECTRONS PER CELL   396  EXCHANGE PSEUDO OVP (F(G))  (T4) 10**   -6
 CORE ELECTRONS PER CELL    120  EXCHANGE PSEUDO OVP (P(G))  (T5) 10**  -12
 N. OF SYMMETRY OPERATORS     1  POLE ORDER IN MONO ZONE                  4
 *******************************************************************************
 TYPE OF CALCULATION :  RESTRICTED CLOSED SHELL
 KOHN-SHAM HAMILTONIAN

 (EXCHANGE)[CORRELATION] FUNCTIONAL:(HSEsol GGA)[PBEsol]

 RANGE-SEPARATED HYBRID FUNCTIONAL 
 OMEGA (SHORT-RANGE)[LONG-RANGE]:(    0.1100)[    0.0000]

 HYBRID EXCHANGE - PERCENTAGE OF FOCK EXCHANGE    25.0000

 CAPPA:IS1  2;IS2  2;IS3  8; K PTS MONK NET  20; SYMMOPS:K SPACE   2;G SPACE   1

 *******************************************************************************
 MAX NUMBER OF SCF CYCLES      50  CONVERGENCE ON DELTAP        10**-16
 WEIGHT OF F(I) IN F(I+1)      30% CONVERGENCE ON ENERGY        10**- 6
 SHRINK. FACT.(MONKH.)    2  2  8  NUMBER OF K POINTS IN THE IBZ     20
 SHRINKING FACTOR(GILAT NET)    8  NUMBER OF K POINTS(GILAT NET)   1028
 *******************************************************************************
 *** K POINTS COORDINATES (OBLIQUE COORDINATES IN UNITS OF IS =  2)
   1-R(  0  0  0)   2-R(  1  0  0)   3-R(  0  1  0)   4-R(  1  1  0)
   5-C(  0  0  1)   6-C(  1  0  1)   7-C(  0  1  1)   8-C(  1  1  1)
   9-C(  0  0  2)  10-C(  1  0  2)  11-C(  0  1  2)  12-C(  1  1  2)
  13-C(  0  0  3)  14-C(  1  0  3)  15-C(  0  1  3)  16-C(  1  1  3)
  17-R(  0  0  4)  18-R(  1  0  4)  19-R(  0  1  4)  20-R(  1  1  4)

 DIRECT LATTICE VECTORS COMPON. (A.U.)     RECIP. LATTICE VECTORS COMPON. (A.U.) 
        X            Y            Z              X            Y            Z
   24.5879030  -14.1935232    0.0000000      0.2555397    0.0000000    0.0000005
    0.0000000   28.3910867    0.0000000      0.1277517    0.2213084    0.0000015
   -0.0000337   -0.0000895   15.8736995      0.0000000    0.0000000    0.3958236

 DISK SPACE FOR EIGENVECTORS (FTN 10)    28758528 REALS

 SYMMETRY ADAPTION OF THE BLOCH FUNCTIONS DISABLED
 TTTTTTTTTTTTTTTTTTTTTTTTTTTTTT gordsh1     TELAPSE        0.07 TCPU        0.06

 MATRIX SIZE: P(G)  570868, F(G)  112522, P(G) IRR  287336, F(G) IRR  113482
 MAX G-VECTOR INDEX FOR 1- AND 2-ELECTRON INTEGRALS  43

 TTTTTTTTTTTTTTTTTTTTTTTTTTTTTT INPUT       TELAPSE        2.83 TCPU        2.82

 NEIGHBORS OF THE NON-EQUIVALENT ATOMS

 N = NUMBER OF NEIGHBORS AT DISTANCE R
    ATOM  N     R/ANG      R/AU   NEIGHBORS (ATOM LABELS AND CELL INDICES)
   1 B    1     1.3791     2.6061   73 O   -1 0 0
   1 B    1     1.3793     2.6065   75 O    0 0 0
   1 B    1     1.5503     2.9297   49 C   -1 0 0
   1 B    1     2.3895     4.5155    5 B    0 1 0
   1 B    1     2.3898     4.5160    3 B    0 0 0
   1 B    1     2.5632     4.8437   51 C    0 0 0

   2 B    1     1.3791     2.6061   74 O    0 0 0
   2 B    1     1.3793     2.6065   76 O    0 0 0
   2 B    1     1.5503     2.9297   50 C    0 0 0
   2 B    1     2.3895     4.5155    6 B    0 0 0
   2 B    1     2.3898     4.5160    4 B    0 0 0
   2 B    1     2.5632     4.8437   52 C    0 0 0

   3 B    1     1.3793     2.6065   77 O    0 1 0
   3 B    1     1.3793     2.6065   75 O    0 0 0
   3 B    1     1.5504     2.9298   37 C    0 0 0
   3 B    1     2.3895     4.5156    5 B    0 1 0
   3 B    1     2.3898     4.5160    1 B    0 0 0
   3 B    1     2.5634     4.8440   43 C    0 1 0

   4 B    1     1.3793     2.6065   78 O    0 0 0
   4 B    1     1.3793     2.6065   76 O    0 0 0
   4 B    1     1.5504     2.9298   38 C    0 0 0
   4 B    1     2.3895     4.5156    6 B    0 0 0
   4 B    1     2.3898     4.5160    2 B    0 0 0
   4 B    1     2.5634     4.8440   44 C    0 0 0

   5 B    1     1.3791     2.6061   73 O   -1-1 0
   5 B    1     1.3793     2.6064   77 O    0 0 0
   5 B    1     1.5502     2.9294   61 C   -1-1 0
   5 B    1     2.3895     4.5155    1 B    0-1 0
   5 B    1     2.3895     4.5156    3 B    0-1 0
   5 B    1     2.5629     4.8433   63 C    0 0 0

   6 B    1     1.3791     2.6061   74 O    0 0 0
   6 B    1     1.3793     2.6064   78 O    0 0 0
   6 B    1     1.5502     2.9294   62 C    0 0 0
   6 B    1     2.3895     4.5155    2 B    0 0 0
   6 B    1     2.3895     4.5156    4 B    0 0 0
   6 B    1     2.5629     4.8433   64 C    0 0 0

   7 B    1     1.3795     2.6068   79 O    0 0 0
   7 B    1     1.3795     2.6070   81 O    0-1 0
   7 B    1     1.5513     2.9316   47 C    0 0 0
   7 B    1     2.3905     4.5174   11 B    0 0 0
   7 B    1     2.3905     4.5175    9 B    0-1 0
   7 B    1     2.5648     4.8468   45 C    0-1 0

   8 B    1     1.3795     2.6068   80 O    0 0 0
   8 B    1     1.3795     2.6070   82 O    0 0 0
   8 B    1     1.5513     2.9316   48 C    0 0 0
   8 B    1     2.3905     4.5174   12 B    0 0 0
   8 B    1     2.3905     4.5175   10 B    1 0 0
   8 B    1     2.5648     4.8468   46 C    0 0 0

   9 B    1     1.3795     2.6069   81 O    0 0 0
   9 B    1     1.3797     2.6072   83 O    1 1 0
   9 B    1     1.5516     2.9322   71 C    0 0 0
   9 B    1     2.3905     4.5175    7 B    0 1 0
   9 B    1     2.3911     4.5185   11 B    0 1 0
   9 B    1     2.5651     4.8473   69 C    1 1 0

  10 B    1     1.3795     2.6069   82 O   -1 0 0
  10 B    1     1.3797     2.6072   84 O    0 0 0
  10 B    1     1.5516     2.9322   72 C    0 0 0
  10 B    1     2.3905     4.5175    8 B   -1 0 0
  10 B    1     2.3911     4.5185   12 B   -1 0 0
  10 B    1     2.5651     4.8473   70 C    0 0 0

  11 B    1     1.3795     2.6068   79 O    0 0 0
  11 B    1     1.3796     2.6071   83 O    1 0 0
  11 B    1     1.5516     2.9322   59 C    0 0 0
  11 B    1     2.3905     4.5174    7 B    0 0 0
  11 B    1     2.3911     4.5185    9 B    0-1 0
  11 B    1     2.5651     4.8473   57 C    1 0 0

  12 B    1     1.3795     2.6068   80 O    0 0 0
  12 B    1     1.3796     2.6071   84 O    1 0 0
  12 B    1     1.5516     2.9322   60 C    1 1 0
  12 B    1     2.3905     4.5174    8 B    0 0 0
  12 B    1     2.3911     4.5185   10 B    1 0 0
  12 B    1     2.5651     4.8473   58 C    1 1 0

  13 H    1     1.0913     2.0623   39 C    0 0 0
  13 H    1     2.1472     4.0576   37 C    0 0 0
  13 H    1     2.1680     4.0969   45 C    0 0 0
  13 H    1     2.5202     4.7625   19 H    0 0 0
  13 H    1     2.5676     4.8520   75 O    0 0 0
  13 H    1     2.7321     5.1630    3 B    0 0 0

  14 H    1     1.0913     2.0623   40 C    0 0 0
  14 H    1     2.1472     4.0576   38 C    0 0 0
  14 H    1     2.1680     4.0969   46 C    0 0 0
  14 H    1     2.5202     4.7625   20 H    0 0 0
  14 H    1     2.5676     4.8520   76 O    0 0 0
  14 H    1     2.7321     5.1630    4 B    0 0 0

  15 H    1     1.0914     2.0625   41 C    0 0 0
  15 H    1     2.1493     4.0616   47 C    0 0 0
  15 H    1     2.1666     4.0942   43 C    0 0 0
  15 H    1     2.5198     4.7618   17 H    0 0 0
  15 H    1     2.5720     4.8604   79 O    0 0 0
  15 H    1     2.7362     5.1707    7 B    0 0 0

  16 H    1     1.0914     2.0625   42 C    0 0 0
  16 H    1     2.1493     4.0616   48 C    0 0 0
  16 H    1     2.1666     4.0942   44 C    0 0 0
  16 H    1     2.5198     4.7618   18 H    0 0 0
  16 H    1     2.5720     4.8604   80 O    0 0 0
  16 H    1     2.7362     5.1707    8 B    0 0 0

  17 H    1     1.0914     2.0624   43 C    0 0 0
  17 H    1     2.1471     4.0575   37 C    0-1 0
  17 H    1     2.1680     4.0970   41 C    0 0 0
  17 H    1     2.5198     4.7618   15 H    0 0 0
  17 H    1     2.5665     4.8500   77 O    0 0 0
  17 H    1     2.7315     5.1618    3 B    0-1 0

  18 H    1     1.0914     2.0624   44 C    0 0 0
  18 H    1     2.1471     4.0575   38 C    0 0 0
  18 H    1     2.1680     4.0970   42 C    0 0 0
  18 H    1     2.5198     4.7618   16 H    0 0 0
  18 H    1     2.5665     4.8500   78 O    0 0 0
  18 H    1     2.7315     5.1618    4 B    0 0 0

  19 H    1     1.0915     2.0626   45 C    0 0 0
  19 H    1     2.1490     4.0610   47 C    0 1 0
  19 H    1     2.1669     4.0948   39 C    0 0 0
  19 H    1     2.5202     4.7625   13 H    0 0 0
  19 H    1     2.5712     4.8588   81 O    0 0 0
  19 H    1     2.7351     5.1686    7 B    0 1 0

  20 H    1     1.0915     2.0626   46 C    0 0 0
  20 H    1     2.1490     4.0610   48 C    0 0 0
  20 H    1     2.1669     4.0948   40 C    0 0 0
  20 H    1     2.5202     4.7625   14 H    0 0 0
  20 H    1     2.5712     4.8588   82 O    0 0 0
  20 H    1     2.7351     5.1686    8 B    0 0 0

  21 H    1     1.0913     2.0623   51 C    0 0 0
  21 H    1     2.1469     4.0571   49 C   -1 0 0
  21 H    1     2.1680     4.0968   57 C    0 0 0
  21 H    1     2.5198     4.7617   27 H    0 0 0
  21 H    1     2.5670     4.8510   75 O    0 0 0
  21 H    1     2.7310     5.1609    1 B    0 0 0

  22 H    1     1.0913     2.0623   52 C    0 0 0
  22 H    1     2.1469     4.0571   50 C    0 0 0
  22 H    1     2.1680     4.0968   58 C    0 0 0
  22 H    1     2.5198     4.7617   28 H    0 0 0
  22 H    1     2.5670     4.8510   76 O    0 0 0
  22 H    1     2.7310     5.1609    2 B    0 0 0

  23 H    1     1.0914     2.0625   53 C    0 0 0
  23 H    1     2.1493     4.0617   59 C    0 0 0
  23 H    1     2.1664     4.0939   55 C    0 0 0
  23 H    1     2.5192     4.7606   25 H    0 0 0
  23 H    1     2.5735     4.8632   79 O    0 0 0
  23 H    1     2.7371     5.1723   11 B    0 0 0

  24 H    1     1.0914     2.0625   54 C    0 0 0
  24 H    1     2.1493     4.0617   60 C    0 0 0
  24 H    1     2.1664     4.0939   56 C    0 0 0
  24 H    1     2.5192     4.7606   26 H    0 0 0
  24 H    1     2.5735     4.8632   80 O   -1-1 0
  24 H    1     2.7371     5.1723   12 B   -1-1 0

  25 H    1     1.0914     2.0624   55 C    0 0 0
  25 H    1     2.1475     4.0581   49 C    0 0 0
  25 H    1     2.1679     4.0967   53 C    0 0 0
  25 H    1     2.5192     4.7606   23 H    0 0 0
  25 H    1     2.5675     4.8519   73 O    0 0 0
  25 H    1     2.7328     5.1643    1 B    1 0 0

  26 H    1     1.0914     2.0624   56 C    0 0 0
  26 H    1     2.1475     4.0581   50 C    0 0 0
  26 H    1     2.1679     4.0967   54 C    0 0 0
  26 H    1     2.5192     4.7606   24 H    0 0 0
  26 H    1     2.5675     4.8519   74 O    0 0 0
  26 H    1     2.7328     5.1643    2 B    0 0 0

  27 H    1     1.0914     2.0625   57 C    0 0 0
  27 H    1     2.1491     4.0612   59 C   -1 0 0
  27 H    1     2.1666     4.0942   51 C    0 0 0
  27 H    1     2.5198     4.7617   21 H    0 0 0
  27 H    1     2.5723     4.8609   83 O    0 0 0
  27 H    1     2.7355     5.1693   11 B   -1 0 0

  28 H    1     1.0914     2.0625   58 C    0 0 0
  28 H    1     2.1491     4.0612   60 C    0 0 0
  28 H    1     2.1666     4.0942   52 C    0 0 0
  28 H    1     2.5198     4.7617   22 H    0 0 0
  28 H    1     2.5723     4.8609   84 O    0-1 0
  28 H    1     2.7355     5.1693   12 B   -1-1 0

  29 H    1     1.0914     2.0624   63 C    0 0 0
  29 H    1     2.1475     4.0582   61 C   -1-1 0
  29 H    1     2.1678     4.0966   69 C    0 0 0
  29 H    1     2.5200     4.7621   35 H    0 0 0
  29 H    1     2.5667     4.8503   77 O    0 0 0
  29 H    1     2.7315     5.1618    5 B    0 0 0

  30 H    1     1.0914     2.0624   64 C    0 0 0
  30 H    1     2.1475     4.0582   62 C    0 0 0
  30 H    1     2.1678     4.0966   70 C    0 0 0
  30 H    1     2.5200     4.7621   36 H    0 0 0
  30 H    1     2.5667     4.8503   78 O    0 0 0
  30 H    1     2.7315     5.1618    6 B    0 0 0

  31 H    1     1.0913     2.0623   65 C    0 0 0
  31 H    1     2.1487     4.0605   71 C    0 0 0
  31 H    1     2.1667     4.0945   67 C    0 0 0
  31 H    1     2.5197     4.7616   33 H    0 0 0
  31 H    1     2.5723     4.8610   81 O    0 0 0
  31 H    1     2.7359     5.1701    9 B    0 0 0

  32 H    1     1.0913     2.0623   66 C    0 0 0
  32 H    1     2.1487     4.0605   72 C    0 0 0
  32 H    1     2.1667     4.0945   68 C    0 0 0
  32 H    1     2.5197     4.7616   34 H    0 0 0
  32 H    1     2.5723     4.8610   82 O   -1 0 0
  32 H    1     2.7359     5.1701   10 B    0 0 0

  33 H    1     1.0915     2.0626   67 C    0 0 0
  33 H    1     2.1479     4.0589   61 C    0 0 0
  33 H    1     2.1679     4.0968   65 C    0 0 0
  33 H    1     2.5197     4.7616   31 H    0 0 0
  33 H    1     2.5677     4.8522   73 O    0 0 0
  33 H    1     2.7331     5.1648    5 B    1 1 0

  34 H    1     1.0915     2.0626   68 C    0 0 0
  34 H    1     2.1479     4.0589   62 C    0 0 0
  34 H    1     2.1679     4.0968   66 C    0 0 0
  34 H    1     2.5197     4.7616   32 H    0 0 0
  34 H    1     2.5677     4.8522   74 O    0 0 0
  34 H    1     2.7331     5.1648    6 B    0 0 0

  35 H    1     1.0914     2.0624   69 C    0 0 0
  35 H    1     2.1486     4.0602   71 C   -1-1 0
  35 H    1     2.1668     4.0947   63 C    0 0 0
  35 H    1     2.5200     4.7621   29 H    0 0 0
  35 H    1     2.5717     4.8598   83 O    0 0 0
  35 H    1     2.7349     5.1682    9 B   -1-1 0

  36 H    1     1.0914     2.0624   70 C    0 0 0
  36 H    1     2.1486     4.0602   72 C    0 0 0
  36 H    1     2.1668     4.0947   64 C    0 0 0
  36 H    1     2.5200     4.7621   30 H    0 0 0
  36 H    1     2.5717     4.8598   84 O    0 0 0
  36 H    1     2.7349     5.1682   10 B    0 0 0

  37 C    1     1.4020     2.6495   43 C    0 1 0
  37 C    1     1.4021     2.6495   39 C    0 0 0
  37 C    1     1.5504     2.9298    3 B    0 0 0
  37 C    1     2.1471     4.0575   17 H    0 1 0
  37 C    1     2.1472     4.0576   13 H    0 0 0
  37 C    1     2.4246     4.5817   41 C    0 1 0

  38 C    1     1.4020     2.6495   44 C    0 0 0
  38 C    1     1.4021     2.6495   40 C    0 0 0
  38 C    1     1.5504     2.9298    4 B    0 0 0
  38 C    1     2.1471     4.0575   18 H    0 0 0
  38 C    1     2.1472     4.0576   14 H    0 0 0
  38 C    1     2.4246     4.5817   42 C    0 0 0

  39 C    1     1.0913     2.0623   13 H    0 0 0
  39 C    1     1.3914     2.6294   45 C    0 0 0
  39 C    1     1.4021     2.6495   37 C    0 0 0
  39 C    1     2.1669     4.0948   19 H    0 0 0
  39 C    1     2.4177     4.5688   43 C    0 1 0
  39 C    1     2.4250     4.5825   47 C    0 1 0

  40 C    1     1.0913     2.0623   14 H    0 0 0
  40 C    1     1.3914     2.6294   46 C    0 0 0
  40 C    1     1.4021     2.6495   38 C    0 0 0
  40 C    1     2.1669     4.0948   20 H    0 0 0
  40 C    1     2.4177     4.5688   44 C    0 0 0
  40 C    1     2.4250     4.5825   48 C    0 0 0

  41 C    1     1.0914     2.0625   15 H    0 0 0
  41 C    1     1.3914     2.6293   43 C    0 0 0
  41 C    1     1.4026     2.6505   47 C    0 0 0
  41 C    1     2.1680     4.0970   17 H    0 0 0
  41 C    1     2.4182     4.5697   45 C    0-1 0
  41 C    1     2.4246     4.5817   37 C    0-1 0

  42 C    1     1.0914     2.0625   16 H    0 0 0
  42 C    1     1.3914     2.6293   44 C    0 0 0
  42 C    1     1.4026     2.6505   48 C    0 0 0
  42 C    1     2.1680     4.0970   18 H    0 0 0
  42 C    1     2.4182     4.5697   46 C    0 0 0
  42 C    1     2.4246     4.5817   38 C    0 0 0

  43 C    1     1.0914     2.0624   17 H    0 0 0
  43 C    1     1.3914     2.6293   41 C    0 0 0
  43 C    1     1.4020     2.6495   37 C    0-1 0
  43 C    1     2.1666     4.0942   15 H    0 0 0
  43 C    1     2.4177     4.5688   39 C    0-1 0
  43 C    1     2.4250     4.5826   47 C    0 0 0

  44 C    1     1.0914     2.0624   18 H    0 0 0
  44 C    1     1.3914     2.6293   42 C    0 0 0
  44 C    1     1.4020     2.6495   38 C    0 0 0
  44 C    1     2.1666     4.0942   16 H    0 0 0
  44 C    1     2.4177     4.5688   40 C    0 0 0
  44 C    1     2.4250     4.5826   48 C    0 0 0

  45 C    1     1.0915     2.0626   19 H    0 0 0
  45 C    1     1.3914     2.6294   39 C    0 0 0
  45 C    1     1.4025     2.6504   47 C    0 1 0
  45 C    1     2.1680     4.0969   13 H    0 0 0
  45 C    1     2.4182     4.5697   41 C    0 1 0
  45 C    1     2.4246     4.5818   37 C    0 0 0

  46 C    1     1.0915     2.0626   20 H    0 0 0
  46 C    1     1.3914     2.6294   40 C    0 0 0
  46 C    1     1.4025     2.6504   48 C    0 0 0
  46 C    1     2.1680     4.0969   14 H    0 0 0
  46 C    1     2.4182     4.5697   42 C    0 0 0
  46 C    1     2.4246     4.5818   38 C    0 0 0

  47 C    1     1.4025     2.6504   45 C    0-1 0
  47 C    1     1.4026     2.6505   41 C    0 0 0
  47 C    1     1.5513     2.9316    7 B    0 0 0
  47 C    1     2.1490     4.0610   19 H    0-1 0
  47 C    1     2.1493     4.0616   15 H    0 0 0
  47 C    1     2.4250     4.5825   39 C    0-1 0

  48 C    1     1.4025     2.6504   46 C    0 0 0
  48 C    1     1.4026     2.6505   42 C    0 0 0
  48 C    1     1.5513     2.9316    8 B    0 0 0
  48 C    1     2.1490     4.0610   20 H    0 0 0
  48 C    1     2.1493     4.0616   16 H    0 0 0
  48 C    1     2.4250     4.5825   40 C    0 0 0

  49 C    1     1.4020     2.6494   51 C    1 0 0
  49 C    1     1.4021     2.6495   55 C    0 0 0
  49 C    1     1.5503     2.9297    1 B    1 0 0
  49 C    1     2.1469     4.0571   21 H    1 0 0
  49 C    1     2.1475     4.0581   25 H    0 0 0
  49 C    1     2.4246     4.5818   53 C    0 0 0

  50 C    1     1.4020     2.6494   52 C    0 0 0
  50 C    1     1.4021     2.6495   56 C    0 0 0
  50 C    1     1.5503     2.9297    2 B    0 0 0
  50 C    1     2.1469     4.0571   22 H    0 0 0
  50 C    1     2.1475     4.0581   26 H    0 0 0
  50 C    1     2.4246     4.5818   54 C    0 0 0

  51 C    1     1.0913     2.0623   21 H    0 0 0
  51 C    1     1.3914     2.6293   57 C    0 0 0
  51 C    1     1.4020     2.6494   49 C   -1 0 0
  51 C    1     2.1666     4.0942   27 H    0 0 0
  51 C    1     2.4175     4.5684   55 C   -1 0 0
  51 C    1     2.4251     4.5828   59 C   -1 0 0

  52 C    1     1.0913     2.0623   22 H    0 0 0
  52 C    1     1.3914     2.6293   58 C    0 0 0
  52 C    1     1.4020     2.6494   50 C    0 0 0
  52 C    1     2.1666     4.0942   28 H    0 0 0
  52 C    1     2.4175     4.5684   56 C    0 0 0
  52 C    1     2.4251     4.5828   60 C    0 0 0

  53 C    1     1.0914     2.0625   23 H    0 0 0
  53 C    1     1.3915     2.6295   55 C    0 0 0
  53 C    1     1.4026     2.6505   59 C    0 0 0
  53 C    1     2.1679     4.0967   25 H    0 0 0
  53 C    1     2.4179     4.5691   57 C    1 0 0
  53 C    1     2.4246     4.5818   49 C    0 0 0

  54 C    1     1.0914     2.0625   24 H    0 0 0
  54 C    1     1.3915     2.6295   56 C    0 0 0
  54 C    1     1.4026     2.6505   60 C    0 0 0
  54 C    1     2.1679     4.0967   26 H    0 0 0
  54 C    1     2.4179     4.5691   58 C    0 0 0
  54 C    1     2.4246     4.5818   50 C    0 0 0

  55 C    1     1.0914     2.0624   25 H    0 0 0
  55 C    1     1.3915     2.6295   53 C    0 0 0
  55 C    1     1.4021     2.6495   49 C    0 0 0
  55 C    1     2.1664     4.0939   23 H    0 0 0
  55 C    1     2.4175     4.5684   51 C    1 0 0
  55 C    1     2.4253     4.5832   59 C    0 0 0

  56 C    1     1.0914     2.0624   26 H    0 0 0
  56 C    1     1.3915     2.6295   54 C    0 0 0
  56 C    1     1.4021     2.6495   50 C    0 0 0
  56 C    1     2.1664     4.0939   24 H    0 0 0
  56 C    1     2.4175     4.5684   52 C    0 0 0
  56 C    1     2.4253     4.5832   60 C    0 0 0

  57 C    1     1.0914     2.0625   27 H    0 0 0
  57 C    1     1.3914     2.6293   51 C    0 0 0
  57 C    1     1.4025     2.6504   59 C   -1 0 0
  57 C    1     2.1680     4.0968   21 H    0 0 0
  57 C    1     2.4179     4.5691   53 C   -1 0 0
  57 C    1     2.4247     4.5819   49 C   -1 0 0

  58 C    1     1.0914     2.0625   28 H    0 0 0
  58 C    1     1.3914     2.6293   52 C    0 0 0
  58 C    1     1.4025     2.6504   60 C    0 0 0
  58 C    1     2.1680     4.0968   22 H    0 0 0
  58 C    1     2.4179     4.5691   54 C    0 0 0
  58 C    1     2.4247     4.5819   50 C    0 0 0

  59 C    1     1.4025     2.6504   57 C    1 0 0
  59 C    1     1.4026     2.6505   53 C    0 0 0
  59 C    1     1.5516     2.9322   11 B    0 0 0
  59 C    1     2.1491     4.0612   27 H    1 0 0
  59 C    1     2.1493     4.0617   23 H    0 0 0
  59 C    1     2.4251     4.5828   51 C    1 0 0

  60 C    1     1.4025     2.6504   58 C    0 0 0
  60 C    1     1.4026     2.6505   54 C    0 0 0
  60 C    1     1.5516     2.9322   12 B   -1-1 0
  60 C    1     2.1491     4.0612   28 H    0 0 0
  60 C    1     2.1493     4.0617   24 H    0 0 0
  60 C    1     2.4251     4.5828   52 C    0 0 0

  61 C    1     1.4021     2.6496   63 C    1 1 0
  61 C    1     1.4021     2.6497   67 C    0 0 0
  61 C    1     1.5502     2.9294    5 B    1 1 0
  61 C    1     2.1475     4.0582   29 H    1 1 0
  61 C    1     2.1479     4.0589   33 H    0 0 0
  61 C    1     2.4244     4.5814   65 C    0 0 0

  62 C    1     1.4021     2.6496   64 C    0 0 0
  62 C    1     1.4021     2.6497   68 C    0 0 0
  62 C    1     1.5502     2.9294    6 B    0 0 0
  62 C    1     2.1475     4.0582   30 H    0 0 0
  62 C    1     2.1479     4.0589   34 H    0 0 0
  62 C    1     2.4244     4.5814   66 C    0 0 0

  63 C    1     1.0914     2.0624   29 H    0 0 0
  63 C    1     1.3914     2.6293   69 C    0 0 0
  63 C    1     1.4021     2.6496   61 C   -1-1 0
  63 C    1     2.1668     4.0947   35 H    0 0 0
  63 C    1     2.4179     4.5692   67 C   -1-1 0
  63 C    1     2.4251     4.5827   71 C   -1-1 0

  64 C    1     1.0914     2.0624   30 H    0 0 0
  64 C    1     1.3914     2.6293   70 C    0 0 0
  64 C    1     1.4021     2.6496   62 C    0 0 0
  64 C    1     2.1668     4.0947   36 H    0 0 0
  64 C    1     2.4179     4.5692   68 C    0 0 0
  64 C    1     2.4251     4.5827   72 C    0 0 0

  65 C    1     1.0913     2.0623   31 H    0 0 0
  65 C    1     1.3914     2.6294   67 C    0 0 0
  65 C    1     1.4025     2.6504   71 C    0 0 0
  65 C    1     2.1679     4.0968   33 H    0 0 0
  65 C    1     2.4178     4.5690   69 C    1 1 0
  65 C    1     2.4244     4.5814   61 C    0 0 0

  66 C    1     1.0913     2.0623   32 H    0 0 0
  66 C    1     1.3914     2.6294   68 C    0 0 0
  66 C    1     1.4025     2.6504   72 C    0 0 0
  66 C    1     2.1679     4.0968   34 H    0 0 0
  66 C    1     2.4178     4.5690   70 C    0 0 0
  66 C    1     2.4244     4.5814   62 C    0 0 0

  67 C    1     1.0915     2.0626   33 H    0 0 0
  67 C    1     1.3914     2.6294   65 C    0 0 0
  67 C    1     1.4021     2.6497   61 C    0 0 0
  67 C    1     2.1667     4.0945   31 H    0 0 0
  67 C    1     2.4179     4.5692   63 C    1 1 0
  67 C    1     2.4253     4.5832   71 C    0 0 0

  68 C    1     1.0915     2.0626   34 H    0 0 0
  68 C    1     1.3914     2.6294   66 C    0 0 0
  68 C    1     1.4021     2.6497   62 C    0 0 0
  68 C    1     2.1667     4.0945   32 H    0 0 0
  68 C    1     2.4179     4.5692   64 C    0 0 0
  68 C    1     2.4253     4.5832   72 C    0 0 0

  69 C    1     1.0914     2.0624   35 H    0 0 0
  69 C    1     1.3914     2.6293   63 C    0 0 0
  69 C    1     1.4025     2.6503   71 C   -1-1 0
  69 C    1     2.1678     4.0966   29 H    0 0 0
  69 C    1     2.4178     4.5690   65 C   -1-1 0
  69 C    1     2.4245     4.5817   61 C   -1-1 0

  70 C    1     1.0914     2.0624   36 H    0 0 0
  70 C    1     1.3914     2.6293   64 C    0 0 0
  70 C    1     1.4025     2.6503   72 C    0 0 0
  70 C    1     2.1678     4.0966   30 H    0 0 0
  70 C    1     2.4178     4.5690   66 C    0 0 0
  70 C    1     2.4245     4.5817   62 C    0 0 0

  71 C    1     1.4025     2.6503   69 C    1 1 0
  71 C    1     1.4025     2.6504   65 C    0 0 0
  71 C    1     1.5516     2.9322    9 B    0 0 0
  71 C    1     2.1486     4.0602   35 H    1 1 0
  71 C    1     2.1487     4.0605   31 H    0 0 0
  71 C    1     2.4251     4.5827   63 C    1 1 0

  72 C    1     1.4025     2.6503   70 C    0 0 0
  72 C    1     1.4025     2.6504   66 C    0 0 0
  72 C    1     1.5516     2.9322   10 B    0 0 0
  72 C    1     2.1486     4.0602   36 H    0 0 0
  72 C    1     2.1487     4.0605   32 H    0 0 0
  72 C    1     2.4251     4.5827   64 C    0 0 0

  73 O    1     1.3791     2.6061    1 B    1 0 0
  73 O    1     1.3791     2.6061    5 B    1 1 0
  73 O    1     2.3880     4.5126   75 O    1 0 0
  73 O    1     2.3882     4.5130   77 O    1 1 0
  73 O    1     2.5383     4.7966   61 C    0 0 0
  73 O    1     2.5384     4.7968   49 C    0 0 0

  74 O    1     1.3791     2.6061    2 B    0 0 0
  74 O    1     1.3791     2.6061    6 B    0 0 0
  74 O    1     2.3880     4.5126   76 O    0 0 0
  74 O    1     2.3882     4.5130   78 O    0 0 0
  74 O    1     2.5383     4.7966   62 C    0 0 0
  74 O    1     2.5384     4.7968   50 C    0 0 0

  75 O    1     1.3793     2.6065    1 B    0 0 0
  75 O    1     1.3793     2.6065    3 B    0 0 0
  75 O    1     2.3880     4.5126   73 O   -1 0 0
  75 O    1     2.3882     4.5131   77 O    0 1 0
  75 O    1     2.5391     4.7981   37 C    0 0 0
  75 O    1     2.5395     4.7990   49 C   -1 0 0

  76 O    1     1.3793     2.6065    2 B    0 0 0
  76 O    1     1.3793     2.6065    4 B    0 0 0
  76 O    1     2.3880     4.5126   74 O    0 0 0
  76 O    1     2.3882     4.5131   78 O    0 0 0
  76 O    1     2.5391     4.7981   38 C    0 0 0
  76 O    1     2.5395     4.7990   50 C    0 0 0

  77 O    1     1.3793     2.6064    5 B    0 0 0
  77 O    1     1.3793     2.6065    3 B    0-1 0
  77 O    1     2.3882     4.5130   73 O   -1-1 0
  77 O    1     2.3882     4.5131   75 O    0-1 0
  77 O    1     2.5390     4.7980   37 C    0-1 0
  77 O    1     2.5391     4.7982   61 C   -1-1 0

  78 O    1     1.3793     2.6064    6 B    0 0 0
  78 O    1     1.3793     2.6065    4 B    0 0 0
  78 O    1     2.3882     4.5130   74 O    0 0 0
  78 O    1     2.3882     4.5131   76 O    0 0 0
  78 O    1     2.5390     4.7980   38 C    0 0 0
  78 O    1     2.5391     4.7982   62 C    0 0 0

  79 O    1     1.3795     2.6068   11 B    0 0 0
  79 O    1     1.3795     2.6068    7 B    0 0 0
  79 O    1     2.3880     4.5126   83 O    1 0 0
  79 O    1     2.3884     4.5134   81 O    0-1 0
  79 O    1     2.5400     4.7998   47 C    0 0 0
  79 O    1     2.5403     4.8005   59 C    0 0 0

  80 O    1     1.3795     2.6068   12 B    0 0 0
  80 O    1     1.3795     2.6068    8 B    0 0 0
  80 O    1     2.3880     4.5126   84 O    1 0 0
  80 O    1     2.3884     4.5134   82 O    0 0 0
  80 O    1     2.5400     4.7998   48 C    0 0 0
  80 O    1     2.5403     4.8005   60 C    1 1 0

  81 O    1     1.3795     2.6069    9 B    0 0 0
  81 O    1     1.3795     2.6070    7 B    0 1 0
  81 O    1     2.3881     4.5128   83 O    1 1 0
  81 O    1     2.3884     4.5134   79 O    0 1 0
  81 O    1     2.5404     4.8006   47 C    0 1 0
  81 O    1     2.5405     4.8008   71 C    0 0 0

  82 O    1     1.3795     2.6069   10 B    1 0 0
  82 O    1     1.3795     2.6070    8 B    0 0 0
  82 O    1     2.3881     4.5128   84 O    1 0 0
  82 O    1     2.3884     4.5134   80 O    0 0 0
  82 O    1     2.5404     4.8006   48 C    0 0 0
  82 O    1     2.5405     4.8008   72 C    1 0 0

  83 O    1     1.3796     2.6071   11 B   -1 0 0
  83 O    1     1.3797     2.6072    9 B   -1-1 0
  83 O    1     2.3880     4.5126   79 O   -1 0 0
  83 O    1     2.3881     4.5128   81 O   -1-1 0
  83 O    1     2.5409     4.8016   71 C   -1-1 0
  83 O    1     2.5410     4.8019   59 C   -1 0 0

  84 O    1     1.3796     2.6071   12 B   -1 0 0
  84 O    1     1.3797     2.6072   10 B    0 0 0
  84 O    1     2.3880     4.5126   80 O   -1 0 0
  84 O    1     2.3881     4.5128   82 O   -1 0 0
  84 O    1     2.5409     4.8016   72 C    0 0 0
  84 O    1     2.5410     4.8019   60 C    0 1 0


 SYMMETRY ALLOWED INTERNAL DEGREE(S) OF FREEDOM: 249
 TTTTTTTTTTTTTTTTTTTTTTTTTTTTTT SYMM        TELAPSE        2.83 TCPU        2.83
 TTTTTTTTTTTTTTTTTTTTTTTTTTTTTT INT_SCREEN  TELAPSE        3.03 TCPU        3.03

 DFT PARAMETERS

     ATOM       ELECTRONS   NET CHARGE   R(ANGSTROM)
   1   5  B       5.0000      0.0000     0.89000000
  13   1  H       1.0000      0.0000     1.11000000
  37   6  C       6.0000      0.0000     0.77000000
  73   8  O       8.0000      0.0000     0.74000000

 SIZE OF GRID=    2668559
 TTTTTTTTTTTTTTTTTTTTTTTTTTTTTT MAKE_GRID2  TELAPSE       19.29 TCPU       19.27
 BECKE WEIGHT FUNCTION
 RADSAFE =     2.00
 TOLERANCES - DENSITY:10**- 6; POTENTIAL:10**- 9; GRID WGT:10**-14

 RADIAL INTEGRATION  - INTERVALS (POINTS,UPPER LIMIT):            1( 75,  4.0*R)

 ANGULAR INTEGRATION - INTERVALS (ACCURACY LEVEL [N. POINTS] UPPER LIMIT):
  1(  4[  86]   0.2)  2(  8[ 194]   0.5)  3( 12[ 350]   0.9)  4( 16[ 974]   3.5)
  5( 12[ 350]9999.0)
 TTTTTTTTTTTTTTTTTTTTTTTTTTTTTT INT_CALC    TELAPSE       19.60 TCPU       19.59
 EEEEEEEEEE INT_CALC TERMINATION  DATE 19 02 2026 TIME 20:27:17.5

 *******************************************************************************
 cof-1_z42_L070_serr                                                             
 CRYSTAL - SCF - TYPE OF CALCULATION :  RESTRICTED CLOSED SHELL
 *******************************************************************************

 CAPPA:IS1  2;IS2  2;IS3  8; K PTS MONK NET  20; SYMMOPS:K SPACE   2;G SPACE   1

 TTTTTTTTTTTTTTTTTTTTTTTTTTTTTT SDIK        TELAPSE       21.89 TCPU       52.03

 AAAAAAAAAAAAAAAAAAAAAAAAAAAAAAAAAAAAAAAAAAAAAAAAAAAAAAAAAAAAAAAAAAAAAAAAAAAAAAA
         ATOMIC WAVEFUNCTION(S)


 NUCLEAR CHARGE  5.0  SYMMETRY SPECIES            S    P
 N. ELECTRONS    5.0  NUMBER OF PRIMITIVE GTOS    8    4
                      NUMBER OF CONTRACTED GTOS   4    2
                      NUMBER OF CLOSED SHELLS     2    0
                      OPEN SHELL OCCUPATION       0    1

  ZNUC  SCFIT    TOTAL HF ENERGY   KINETIC ENERGY   VIRIAL THEOREM ACCURACY
   5.0    11    -2.451164084E+01  2.462155050E+01 -1.995536038E+00  1.5E-06

 NUCLEAR CHARGE  1.0  SYMMETRY SPECIES            S
 N. ELECTRONS    1.0  NUMBER OF PRIMITIVE GTOS    4
                      NUMBER OF CONTRACTED GTOS   2
                      NUMBER OF CLOSED SHELLS     0
                      OPEN SHELL OCCUPATION       1

  ZNUC  SCFIT    TOTAL HF ENERGY   KINETIC ENERGY   VIRIAL THEOREM ACCURACY
   1.0     1    -4.977266687E-01  5.190767460E-01 -1.958869132E+00  0.0E+00

 NUCLEAR CHARGE  6.0  SYMMETRY SPECIES            S    P
 N. ELECTRONS    6.0  NUMBER OF PRIMITIVE GTOS    8    4
                      NUMBER OF CONTRACTED GTOS   4    2
                      NUMBER OF CLOSED SHELLS     2    0
                      OPEN SHELL OCCUPATION       0    2

  ZNUC  SCFIT    TOTAL HF ENERGY   KINETIC ENERGY   VIRIAL THEOREM ACCURACY
   6.0     9    -3.766704647E+01  3.775180683E+01 -1.997754800E+00  1.1E-06

 NUCLEAR CHARGE  8.0  SYMMETRY SPECIES            S    P
 N. ELECTRONS    8.0  NUMBER OF PRIMITIVE GTOS    8    4
                      NUMBER OF CONTRACTED GTOS   4    2
                      NUMBER OF CLOSED SHELLS     2    0
                      OPEN SHELL OCCUPATION       0    4

  ZNUC  SCFIT    TOTAL HF ENERGY   KINETIC ENERGY   VIRIAL THEOREM ACCURACY
   8.0    12    -7.477373220E+01  7.477365593E+01 -2.000001020E+00  3.8E-06

 AAAAAAAAAAAAAAAAAAAAAAAAAAAAAAAAAAAAAAAAAAAAAAAAAAAAAAAAAAAAAAAAAAAAAAAAAAAAAAA

 CHARGE NORMALIZATION FACTOR   1.00000000
 TOTAL ATOMIC CHARGES:
   5.0000000   5.0000000   5.0000000   5.0000000   5.0000000   5.0000000
   5.0000000   5.0000000   5.0000000   5.0000000   5.0000000   5.0000000
   1.0000000   1.0000000   1.0000000   1.0000000   1.0000000   1.0000000
   1.0000000   1.0000000   1.0000000   1.0000000   1.0000000   1.0000000
   1.0000000   1.0000000   1.0000000   1.0000000   1.0000000   1.0000000
   1.0000000   1.0000000   1.0000000   1.0000000   1.0000000   1.0000000
   6.0000000   6.0000000   6.0000000   6.0000000   6.0000000   6.0000000
   6.0000000   6.0000000   6.0000000   6.0000000   6.0000000   6.0000000
   6.0000000   6.0000000   6.0000000   6.0000000   6.0000000   6.0000000
   6.0000000   6.0000000   6.0000000   6.0000000   6.0000000   6.0000000
   6.0000000   6.0000000   6.0000000   6.0000000   6.0000000   6.0000000
   6.0000000   6.0000000   6.0000000   6.0000000   6.0000000   6.0000000
   8.0000000   8.0000000   8.0000000   8.0000000   8.0000000   8.0000000
   8.0000000   8.0000000   8.0000000   8.0000000   8.0000000   8.0000000
 TTTTTTTTTTTTTTTTTTTTTTTTTTTTTT MOQGAD      TELAPSE       21.99 TCPU       55.30
 TTTTTTTTTTTTTTTTTTTTTTTTTTTTTT SHELLXN     TELAPSE       35.22 TCPU      477.98
 TTTTTTTTTTTTTTTTTTTTTTTTTTTTTT MONMO3      TELAPSE       35.76 TCPU      495.46
 NUMERICALLY INTEGRATED DENSITY    396.0000251210
 TTTTTTTTTTTTTTTTTTTTTTTTTTTTTT NUMDFT      TELAPSE       37.27 TCPU      543.76
 CYC   0 ETOT(AU) -2.591908977216E+03 DETOT -2.59E+03 tst  0.00E+00 PX  1.00E+00
 TTTTTTTTTTTTTTTTTTTTTTTTTTTTTT DIIS        TELAPSE       37.44 TCPU      549.18
 TTTTTTTTTTTTTTTTTTTTTTTTTTTTTT FDIK        TELAPSE       39.49 TCPU      614.39
 INSULATING STATE
 TOP OF VALENCE BANDS -    BAND    198; K    2; EIG -3.1322824E-01 AU
 TOP OF VALENCE BANDS -    BAND    198; K    1; EIG -3.1337688E-01 AU
 BOTTOM OF VIRTUAL BANDS - BAND    199; K    1; EIG -1.5632362E-01 AU
 INDIRECT ENERGY BAND GAP:   4.2696 eV
 TTTTTTTTTTTTTTTTTTTTTTTTTTTTTT PDIG        TELAPSE       41.46 TCPU      621.22
 CHARGE NORMALIZATION FACTOR   1.00000000
 TOTAL ATOMIC CHARGES:
   4.1514836   4.1661844   4.1654851   4.1659953   4.1657308   4.1662413
   4.1658261   4.1653159   4.1656021   4.1650912   4.1657949   4.1511162
   0.7851777   0.7850600   0.7851757   0.7852936   0.7851604   0.7849953
   0.7851147   0.7852804   0.7855726   0.7850928   0.7852600   0.7857371
   0.7855610   0.7850833   0.7852231   0.7856994   0.7851631   0.7849978
   0.7851797   0.7853457   0.7851300   0.7850122   0.7851690   0.7852867
   6.0430980   6.0430114   6.2655873   6.2651052   6.2650697   6.2655515
   6.2654522   6.2648865   6.2648298   6.2653972   6.0422916   6.0423719
   6.0470500   6.0424324   6.2658903   6.2645739   6.2646525   6.2659721
   6.2658070   6.2644833   6.2646720   6.2659889   6.0412375   6.0458218
   6.0434602   6.0433691   6.2652203   6.2646534   6.2651982   6.2657663
   6.2652119   6.2647340   6.2653480   6.2658246   6.0418287   6.0419121
   8.6939845   8.6907602   8.6940923   8.6908688   8.6934375   8.6908274
   8.6911890   8.6944107   8.6912325   8.6938453   8.6913643   8.6945882
 TTTTTTTTTTTTTTTTTTTTTTTTTTTTTT MOQGAD      TELAPSE       41.56 TCPU      621.32
 TTTTTTTTTTTTTTTTTTTTTTTTTTTTTT SHELLXN     TELAPSE       55.44 TCPU     1063.55
 TTTTTTTTTTTTTTTTTTTTTTTTTTTTTT MONMO3      TELAPSE       55.99 TCPU     1081.28
 NUMERICALLY INTEGRATED DENSITY    396.0000480903
 TTTTTTTTTTTTTTTTTTTTTTTTTTTTTT NUMDFT      TELAPSE       57.54 TCPU     1130.80
 CYC   1 ETOT(AU) -2.577621851627E+03 DETOT  1.43E+01 tst  0.00E+00 PX  1.00E+00
 TTTTTTTTTTTTTTTTTTTTTTTTTTTTTT DIIS        TELAPSE       57.74 TCPU     1137.13
 DIIS TEST: 0.22307E+01 AT SCF   CYCLE   1 - MIX   30 %
 TTTTTTTTTTTTTTTTTTTTTTTTTTTTTT FDIK        TELAPSE       59.83 TCPU     1204.00
 INSULATING STATE
 TOP OF VALENCE BANDS -    BAND    198; K    4; EIG -2.2406571E-01 AU
 TOP OF VALENCE BANDS -    BAND    198; K    1; EIG -2.2436099E-01 AU
 BOTTOM OF VIRTUAL BANDS - BAND    199; K    1; EIG -8.0157773E-02 AU
 INDIRECT ENERGY BAND GAP:   3.9159 eV
 TTTTTTTTTTTTTTTTTTTTTTTTTTTTTT PDIG        TELAPSE       61.80 TCPU     1210.84
 CHARGE NORMALIZATION FACTOR   1.00000000
 TOTAL ATOMIC CHARGES:
   4.7176833   4.7144186   4.7012575   4.7154424   4.7012669   4.7154529
   4.7155468   4.7012267   4.7155306   4.7012153   4.7144443   4.7176214
   0.9077422   0.9102526   0.9102570   0.9077583   0.9076586   0.9125301
   0.9125244   0.9077622   0.9061219   0.9093612   0.9093073   0.9061702
   0.9061000   0.9093530   0.9092910   0.9061713   0.9076596   0.9125249
   0.9126005   0.9078486   0.9076754   0.9102040   0.9102646   0.9077716
   5.8587321   5.8765668   6.1388267   6.1392738   6.1396768   6.1392212
   6.1187460   6.1429744   6.1435833   6.1194558   5.8791092   5.8612226
   5.8896984   5.8716930   6.1284212   6.1243366   6.1250099   6.1289981
   6.1286290   6.1245701   6.1248915   6.1288677   5.8748203   5.8927079
   5.8586988   5.8765213   6.1188010   6.1430400   6.1434361   6.1192897
   6.1389971   6.1394981   6.1394334   6.1389352   5.8793099   5.8613942
   8.3374082   8.3318792   8.3377707   8.3322295   8.3236425   8.3359063
   8.3317055   8.3372354   8.3356371   8.3234663   8.3320886   8.3376261
 TTTTTTTTTTTTTTTTTTTTTTTTTTTTTT MOQGAD      TELAPSE       61.90 TCPU     1210.95
 TTTTTTTTTTTTTTTTTTTTTTTTTTTTTT SHELLXN     TELAPSE       75.84 TCPU     1655.28
 TTTTTTTTTTTTTTTTTTTTTTTTTTTTTT MONMO3      TELAPSE       76.40 TCPU     1672.98
 NUMERICALLY INTEGRATED DENSITY    396.0000554039
 TTTTTTTTTTTTTTTTTTTTTTTTTTTTTT NUMDFT      TELAPSE       77.94 TCPU     1722.31
 CYC   2 ETOT(AU) -2.578011398129E+03 DETOT -3.90E-01 tst  3.00E-03 PX  1.60E-01
 TTTTTTTTTTTTTTTTTTTTTTTTTTTTTT DIIS        TELAPSE       78.16 TCPU     1728.85
 DIIS TEST: 0.92791E+00 AT SCF   CYCLE   2 - DIIS ACTIVE - HISTORY:     2 CYCLES
 TTTTTTTTTTTTTTTTTTTTTTTTTTTTTT FDIK        TELAPSE       80.25 TCPU     1795.22
 INSULATING STATE
 TOP OF VALENCE BANDS -    BAND    198; K    4; EIG -2.3831996E-01 AU
 TOP OF VALENCE BANDS -    BAND    198; K    1; EIG -2.3874838E-01 AU
 BOTTOM OF VIRTUAL BANDS - BAND    199; K    1; EIG -7.5557536E-02 AU
 INDIRECT ENERGY BAND GAP:   4.4290 eV
 TTTTTTTTTTTTTTTTTTTTTTTTTTTTTT PDIG        TELAPSE       82.20 TCPU     1802.07
 CHARGE NORMALIZATION FACTOR   1.00000000
 TOTAL ATOMIC CHARGES:
   4.5027404   4.5092696   4.4976708   4.5090655   4.4978114   4.5091734
   4.5089100   4.4976770   4.5087605   4.4975173   4.5089215   4.5025079
   0.8864235   0.8887695   0.8889417   0.8865718   0.8852352   0.8909902
   0.8911651   0.8853079   0.8834069   0.8851186   0.8854470   0.8835544
   0.8834450   0.8851518   0.8853934   0.8835128   0.8852377   0.8909986
   0.8912153   0.8853813   0.8864091   0.8887768   0.8888964   0.8865317
   5.9025913   5.8800478   6.1593002   6.1616143   6.1614559   6.1590410
   6.1672105   6.1527154   6.1522573   6.1665977   5.8795170   5.9022829
   5.8921270   5.8902986   6.1619367   6.1618731   6.1615521   6.1617502
   6.1619834   6.1618992   6.1614829   6.1616233   5.8895818   5.8916183
   5.9028978   5.8803323   6.1671235   6.1526379   6.1524075   6.1666934
   6.1591902   6.1614959   6.1615025   6.1590584   5.8792192   5.9020211
   8.5094575   8.5091325   8.5096204   8.5093083   8.5164819   8.5059709
   8.5093888   8.5097160   8.5061079   8.5164802   8.5095947   8.5098962
 TTTTTTTTTTTTTTTTTTTTTTTTTTTTTT MOQGAD      TELAPSE       82.30 TCPU     1802.17
 TTTTTTTTTTTTTTTTTTTTTTTTTTTTTT SHELLXN     TELAPSE       96.30 TCPU     2248.38
 TTTTTTTTTTTTTTTTTTTTTTTTTTTTTT MONMO3      TELAPSE       96.86 TCPU     2266.18
 NUMERICALLY INTEGRATED DENSITY    396.0000559281
 TTTTTTTTTTTTTTTTTTTTTTTTTTTTTT NUMDFT      TELAPSE       98.38 TCPU     2314.84
 CYC   3 ETOT(AU) -2.578202583885E+03 DETOT -1.91E-01 tst  6.61E-04 PX  6.78E-02
 TTTTTTTTTTTTTTTTTTTTTTTTTTTTTT DIIS        TELAPSE       98.58 TCPU     2321.09
 DIIS TEST: 0.28295E-01 AT SCF   CYCLE   3 - DIIS ACTIVE - HISTORY:     3 CYCLES
 TTTTTTTTTTTTTTTTTTTTTTTTTTTTTT FDIK        TELAPSE      100.66 TCPU     2387.71
 INSULATING STATE
 TOP OF VALENCE BANDS -    BAND    198; K    4; EIG -2.4693196E-01 AU
 TOP OF VALENCE BANDS -    BAND    198; K    1; EIG -2.4719797E-01 AU
 BOTTOM OF VIRTUAL BANDS - BAND    199; K    1; EIG -8.3213316E-02 AU
 INDIRECT ENERGY BAND GAP:   4.4550 eV
 TTTTTTTTTTTTTTTTTTTTTTTTTTTTTT PDIG        TELAPSE      102.62 TCPU     2394.57
 CHARGE NORMALIZATION FACTOR   1.00000000
 TOTAL ATOMIC CHARGES:
   4.5106380   4.5115016   4.5042496   4.5112695   4.5043860   4.5113787
   4.5112019   4.5041299   4.5110504   4.5039816   4.5112340   4.5103586
   0.8694080   0.8713955   0.8714732   0.8694646   0.8714352   0.8714912
   0.8714913   0.8714747   0.8680915   0.8705590   0.8705710   0.8682206
   0.8681117   0.8705818   0.8705229   0.8681889   0.8714518   0.8715018
   0.8715513   0.8715431   0.8693889   0.8713845   0.8714383   0.8694342
   5.9261557   5.9490551   6.1708227   6.1683591   6.1685754   6.1709989
   6.1503480   6.1786117   6.1793014   6.1513109   5.9509498   5.9278832
   5.9550622   5.9352461   6.1657305   6.1589645   6.1595237   6.1662043
   6.1657364   6.1590153   6.1594798   6.1661487   5.9373194   5.9568723
   5.9262111   5.9491073   6.1502572   6.1785167   6.1793908   6.1513622
   6.1706872   6.1683023   6.1686224   6.1710093   5.9509520   5.9278740
   8.4824961   8.4754197   8.4827789   8.4756680   8.4699938   8.4808150
   8.4754018   8.4824510   8.4808035   8.4701610   8.4757145   8.4827740
 TTTTTTTTTTTTTTTTTTTTTTTTTTTTTT MOQGAD      TELAPSE      102.73 TCPU     2394.68
 TTTTTTTTTTTTTTTTTTTTTTTTTTTTTT SHELLXN     TELAPSE      116.67 TCPU     2839.17
 TTTTTTTTTTTTTTTTTTTTTTTTTTTTTT MONMO3      TELAPSE      117.22 TCPU     2856.74
 NUMERICALLY INTEGRATED DENSITY    396.0000550749
 TTTTTTTTTTTTTTTTTTTTTTTTTTTTTT NUMDFT      TELAPSE      118.76 TCPU     2905.94
 CYC   4 ETOT(AU) -2.578208199678E+03 DETOT -5.62E-03 tst  2.79E-05 PX  1.62E-02
 TTTTTTTTTTTTTTTTTTTTTTTTTTTTTT DIIS        TELAPSE      119.04 TCPU     2912.51
 DIIS TEST: 0.95829E-02 AT SCF   CYCLE   4 - DIIS ACTIVE - HISTORY:     4 CYCLES
 TTTTTTTTTTTTTTTTTTTTTTTTTTTTTT FDIK        TELAPSE      121.15 TCPU     2979.56
 INSULATING STATE
 TOP OF VALENCE BANDS -    BAND    198; K    4; EIG -2.4602447E-01 AU
 TOP OF VALENCE BANDS -    BAND    198; K    1; EIG -2.4636077E-01 AU
 BOTTOM OF VIRTUAL BANDS - BAND    199; K    1; EIG -8.3652955E-02 AU
 INDIRECT ENERGY BAND GAP:   4.4184 eV
 TTTTTTTTTTTTTTTTTTTTTTTTTTTTTT PDIG        TELAPSE      123.15 TCPU     2986.47
 CHARGE NORMALIZATION FACTOR   1.00000000
 TOTAL ATOMIC CHARGES:
   4.5139239   4.5150626   4.5041531   4.5156777   4.5042849   4.5157801
   4.5156368   4.5041849   4.5154999   4.5040447   4.5148368   4.5137436
   0.8722393   0.8743339   0.8744602   0.8723455   0.8717637   0.8762280
   0.8763873   0.8718852   0.8697853   0.8716614   0.8718937   0.8699234
   0.8698040   0.8716796   0.8718517   0.8698947   0.8717690   0.8762332
   0.8764477   0.8719651   0.8722077   0.8743213   0.8744319   0.8723235
   5.9271514   5.9173265   6.1672584   6.1703341   6.1703475   6.1672023
   6.1677468   6.1627039   6.1623950   6.1673634   5.9173617   5.9273315
   5.9300425   5.9251139   6.1653602   6.1646919   6.1646112   6.1653457
   6.1654339   6.1647639   6.1645206   6.1652237   5.9252458   5.9302704
   5.9273748   5.9175328   6.1676776   6.1626485   6.1624824   6.1673981
   6.1672042   6.1702930   6.1703352   6.1671625   5.9171754   5.9271641
   8.4872183   8.4860550   8.4874241   8.4862667   8.4878122   8.4838190
   8.4861938   8.4873663   8.4838248   8.4877191   8.4864431   8.4875977
 TTTTTTTTTTTTTTTTTTTTTTTTTTTTTT MOQGAD      TELAPSE      123.26 TCPU     2986.57
 TTTTTTTTTTTTTTTTTTTTTTTTTTTTTT SHELLXN     TELAPSE      137.21 TCPU     3431.33
 TTTTTTTTTTTTTTTTTTTTTTTTTTTTTT MONMO3      TELAPSE      137.76 TCPU     3448.94
 NUMERICALLY INTEGRATED DENSITY    396.0000551094
 TTTTTTTTTTTTTTTTTTTTTTTTTTTTTT NUMDFT      TELAPSE      139.28 TCPU     3497.55
 CYC   5 ETOT(AU) -2.578210333166E+03 DETOT -2.13E-03 tst  1.04E-05 PX  8.61E-03
 TTTTTTTTTTTTTTTTTTTTTTTTTTTTTT DIIS        TELAPSE      139.60 TCPU     3504.29
 DIIS TEST: 0.66541E-03 AT SCF   CYCLE   5 - DIIS ACTIVE - HISTORY:     5 CYCLES
 TTTTTTTTTTTTTTTTTTTTTTTTTTTTTT FDIK        TELAPSE      141.68 TCPU     3570.54
 INSULATING STATE
 TOP OF VALENCE BANDS -    BAND    198; K    4; EIG -2.4529721E-01 AU
 TOP OF VALENCE BANDS -    BAND    198; K    1; EIG -2.4560298E-01 AU
 BOTTOM OF VIRTUAL BANDS - BAND    199; K    1; EIG -8.2784736E-02 AU
 INDIRECT ENERGY BAND GAP:   4.4222 eV
 TTTTTTTTTTTTTTTTTTTTTTTTTTTTTT PDIG        TELAPSE      143.64 TCPU     3577.35
 CHARGE NORMALIZATION FACTOR   1.00000000
 TOTAL ATOMIC CHARGES:
   4.5126309   4.5153195   4.5048750   4.5150447   4.5050097   4.5151500
   4.5149476   4.5047894   4.5148044   4.5046471   4.5150359   4.5123701
   0.8730290   0.8755274   0.8756411   0.8731227   0.8738925   0.8763279
   0.8763796   0.8739475   0.8712064   0.8735174   0.8736352   0.8713485
   0.8712306   0.8735431   0.8735863   0.8713163   0.8739037   0.8763363
   0.8764373   0.8740187   0.8730085   0.8755202   0.8756050   0.8730922
   5.9163070   5.9228205   6.1694391   6.1671700   6.1672306   6.1694318
   6.1574329   6.1723491   6.1727059   6.1579114   5.9239059   5.9173652
   5.9298585   5.9176763   6.1662339   6.1621213   6.1623663   6.1664568
   6.1662487   6.1621599   6.1623197   6.1663799   5.9187355   5.9308188
   5.9164518   5.9229548   6.1573453   6.1722628   6.1728165   6.1579785
   6.1693084   6.1670909   6.1672784   6.1694440   5.9238018   5.9172653
   8.4902470   8.4853541   8.4904911   8.4855770   8.4849527   8.4884682
   8.4854352   8.4903085   8.4885334   8.4851041   8.4857086   8.4905791
 TTTTTTTTTTTTTTTTTTTTTTTTTTTTTT MOQGAD      TELAPSE      143.75 TCPU     3577.46
 TTTTTTTTTTTTTTTTTTTTTTTTTTTTTT SHELLXN     TELAPSE      157.68 TCPU     4021.77
 TTTTTTTTTTTTTTTTTTTTTTTTTTTTTT MONMO3      TELAPSE      158.23 TCPU     4039.21
 NUMERICALLY INTEGRATED DENSITY    396.0000551837
 TTTTTTTTTTTTTTTTTTTTTTTTTTTTTT NUMDFT      TELAPSE      159.77 TCPU     4088.49
 CYC   6 ETOT(AU) -2.578210423682E+03 DETOT -9.05E-05 tst  3.18E-06 PX  2.82E-03
 TTTTTTTTTTTTTTTTTTTTTTTTTTTTTT DIIS        TELAPSE      160.10 TCPU     4095.12
 DIIS TEST: 0.37677E-03 AT SCF   CYCLE   6 - DIIS ACTIVE - HISTORY:     6 CYCLES
 TTTTTTTTTTTTTTTTTTTTTTTTTTTTTT FDIK        TELAPSE      162.19 TCPU     4161.71
 INSULATING STATE
 TOP OF VALENCE BANDS -    BAND    198; K    4; EIG -2.4552629E-01 AU
 TOP OF VALENCE BANDS -    BAND    198; K    1; EIG -2.4584743E-01 AU
 BOTTOM OF VIRTUAL BANDS - BAND    199; K    1; EIG -8.2878316E-02 AU
 INDIRECT ENERGY BAND GAP:   4.4259 eV
 TTTTTTTTTTTTTTTTTTTTTTTTTTTTTT PDIG        TELAPSE      164.16 TCPU     4168.57
 CHARGE NORMALIZATION FACTOR   1.00000000
 TOTAL ATOMIC CHARGES:
   4.5128610   4.5151450   4.5047434   4.5152162   4.5048781   4.5153209
   4.5151405   4.5047069   4.5149989   4.5045638   4.5148788   4.5126275
   0.8732733   0.8754276   0.8755414   0.8733670   0.8734335   0.8768284
   0.8769295   0.8735181   0.8710453   0.8732674   0.8734296   0.8711783
   0.8710671   0.8732898   0.8733844   0.8711477   0.8734424   0.8768363
   0.8769872   0.8735930   0.8732487   0.8754190   0.8755080   0.8733397
   5.9209622   5.9207177   6.1676626   6.1686199   6.1686867   6.1676655
   6.1617684   6.1674538   6.1674991   6.1618587   5.9213757   5.9216564
   5.9305681   5.9204962   6.1655926   6.1626647   6.1627972   6.1657470
   6.1656378   6.1627214   6.1627257   6.1656463   5.9212397   5.9312935
   5.9211386   5.9208814   6.1616867   6.1673781   6.1676033   6.1619122
   6.1675652   6.1685575   6.1687078   6.1676549   5.9212384   5.9215295
   8.4887517   8.4854632   8.4889796   8.4856825   8.4856636   8.4859448
   8.4855692   8.4888519   8.4859689   8.4856875   8.4858344   8.4891082
 TTTTTTTTTTTTTTTTTTTTTTTTTTTTTT MOQGAD      TELAPSE      164.26 TCPU     4168.67
 TTTTTTTTTTTTTTTTTTTTTTTTTTTTTT SHELLXN     TELAPSE      178.22 TCPU     4613.43
 TTTTTTTTTTTTTTTTTTTTTTTTTTTTTT MONMO3      TELAPSE      178.76 TCPU     4630.93
 NUMERICALLY INTEGRATED DENSITY    396.0000551894
 TTTTTTTTTTTTTTTTTTTTTTTTTTTTTT NUMDFT      TELAPSE      180.31 TCPU     4680.17
 CYC   7 ETOT(AU) -2.578210520816E+03 DETOT -9.71E-05 tst  6.70E-07 PX  1.33E-03
 TTTTTTTTTTTTTTTTTTTTTTTTTTTTTT DIIS        TELAPSE      180.66 TCPU     4686.99
 DIIS TEST: 0.22031E-05 AT SCF   CYCLE   7 - DIIS ACTIVE - HISTORY:     7 CYCLES
 TTTTTTTTTTTTTTTTTTTTTTTTTTTTTT FDIK        TELAPSE      182.76 TCPU     4753.55
 INSULATING STATE
 TOP OF VALENCE BANDS -    BAND    198; K    4; EIG -2.4551942E-01 AU
 TOP OF VALENCE BANDS -    BAND    198; K    1; EIG -2.4583879E-01 AU
 BOTTOM OF VIRTUAL BANDS - BAND    199; K    1; EIG -8.2914996E-02 AU
 INDIRECT ENERGY BAND GAP:   4.4247 eV
 TTTTTTTTTTTTTTTTTTTTTTTTTTTTTT PDIG        TELAPSE      184.72 TCPU     4760.41
 CHARGE NORMALIZATION FACTOR   1.00000000
 TOTAL ATOMIC CHARGES:
   4.5131522   4.5152224   4.5047207   4.5152750   4.5048547   4.5153793
   4.5152011   4.5046883   4.5150603   4.5045466   4.5149618   4.5129271
   0.8731636   0.8754674   0.8755867   0.8732622   0.8734644   0.8767500
   0.8768483   0.8735456   0.8710598   0.8731819   0.8733503   0.8712000
   0.8710823   0.8732048   0.8733041   0.8711688   0.8734730   0.8767572
   0.8769069   0.8736206   0.8731389   0.8754584   0.8755536   0.8732348
   5.9210680   5.9206042   6.1681014   6.1681285   6.1681680   6.1680733
   6.1614526   6.1677280   6.1677924   6.1615542   5.9212366   5.9217471
   5.9302712   5.9210400   6.1653935   6.1627590   6.1628583   6.1655094
   6.1654334   6.1628125   6.1627927   6.1654133   5.9216991   5.9309153
   5.9212463   5.9207693   6.1613735   6.1676553   6.1678923   6.1616057
   6.1680046   6.1680669   6.1681893   6.1680625   5.9210975   5.9216190
   8.4887145   8.4854160   8.4889429   8.4856348   8.4858654   8.4861976
   8.4855196   8.4888109   8.4862353   8.4859066   8.4857836   8.4890655
 TTTTTTTTTTTTTTTTTTTTTTTTTTTTTT MOQGAD      TELAPSE      184.83 TCPU     4760.52
 TTTTTTTTTTTTTTTTTTTTTTTTTTTTTT SHELLXN     TELAPSE      198.83 TCPU     5207.00
 TTTTTTTTTTTTTTTTTTTTTTTTTTTTTT MONMO3      TELAPSE      199.38 TCPU     5224.38
 NUMERICALLY INTEGRATED DENSITY    396.0000551887
 TTTTTTTTTTTTTTTTTTTTTTTTTTTTTT NUMDFT      TELAPSE      200.92 TCPU     5273.67
 CYC   8 ETOT(AU) -2.578210520546E+03 DETOT  2.70E-07 tst  5.84E-09 PX  1.31E-04
 TTTTTTTTTTTTTTTTTTTTTTTTTTTTTT DIIS        TELAPSE      201.29 TCPU     5280.28
 DIIS TEST: 0.67056E-06 AT SCF   CYCLE   8 - DIIS ACTIVE - HISTORY:     8 CYCLES
 TTTTTTTTTTTTTTTTTTTTTTTTTTTTTT FDIK        TELAPSE      203.38 TCPU     5346.66
 INSULATING STATE
 TOP OF VALENCE BANDS -    BAND    198; K    4; EIG -2.4552319E-01 AU
 TOP OF VALENCE BANDS -    BAND    198; K    1; EIG -2.4584332E-01 AU
 BOTTOM OF VIRTUAL BANDS - BAND    199; K    1; EIG -8.2913599E-02 AU
 INDIRECT ENERGY BAND GAP:   4.4248 eV
 TTTTTTTTTTTTTTTTTTTTTTTTTTTTTT PDIG        TELAPSE      205.37 TCPU     5353.55
 CHARGE NORMALIZATION FACTOR   1.00000000
 TOTAL ATOMIC CHARGES:
   4.5131079   4.5152169   4.5047421   4.5152951   4.5048762   4.5153994
   4.5152202   4.5047057   4.5150791   4.5045636   4.5149536   4.5128776
   0.8731957   0.8754205   0.8755368   0.8732916   0.8734355   0.8767531
   0.8768519   0.8735183   0.8710266   0.8732012   0.8733646   0.8711629
   0.8710486   0.8732238   0.8733189   0.8711320   0.8734444   0.8767606
   0.8769100   0.8735932   0.8731711   0.8754118   0.8755036   0.8732642
   5.9209081   5.9207013   6.1678702   6.1683968   6.1684517   6.1678596
   6.1615624   6.1676401   6.1677015   6.1616672   5.9213564   5.9216026
   5.9303686   5.9207230   6.1655089   6.1627016   6.1628243   6.1656501
   6.1655516   6.1627566   6.1627559   6.1655520   5.9214377   5.9310646
   5.9210848   5.9208651   6.1614817   6.1675657   6.1678036   6.1617199
   6.1677726   6.1683347   6.1684732   6.1678493   5.9212190   5.9214757
   8.4887616   8.4854609   8.4889899   8.4856800   8.4857981   8.4861189
   8.4855660   8.4888599   8.4861496   8.4858329   8.4858305   8.4891154
 TTTTTTTTTTTTTTTTTTTTTTTTTTTTTT MOQGAD      TELAPSE      205.48 TCPU     5353.65
 TTTTTTTTTTTTTTTTTTTTTTTTTTTTTT SHELLXN     TELAPSE      219.38 TCPU     5796.78
 +++ ENERGIES IN A.U. +++
 ::: EXT EL-POLE                                  -2.4783805252876E+03
 ::: EXT EL-SPHEROPOLE                             2.7215292167091E+01
 ::: BIELET ZONE E-E                               3.9392063793941E+03
 ::: TOTAL E-E                                     1.4880411462736E+03
 ::: TOTAL E-N + N-E                              -6.6381305850307E+03
 ::: TOTAL N-N                                     2.7941811680141E+02
 ::: KINETIC ENERGY                                2.5599013574772E+03
 ::: PSEUDO TOTAL   ENERGY                        -2.3107699644785E+03
 ::: VIRIAL COEFFICIENT                            1.0511492926808E+00
 TTTTTTTTTTTTTTTTTTTTTTTTTTTTTT MONMO3      TELAPSE      219.92 TCPU     5814.24
 NUMERICALLY INTEGRATED DENSITY    396.0000551883
 EXCHANGE ENERGY: -0.252061103308E+03  CORRELATION ENERGY: -0.153794529904E+02
 TTTTTTTTTTTTTTTTTTTTTTTTTTTTTT NUMDFT      TELAPSE      221.46 TCPU     5863.43
 CYC   9 ETOT(AU) -2.578210520777E+03 DETOT -2.32E-07 tst  1.46E-09 PX  1.31E-04

 == SCF ENDED - CONVERGENCE ON ENERGY      E(AU) -2.5782105207772E+03 CYCLES   9


 ENERGY EXPRESSION=HARTREE+FOCK EXCH*0.00000+(HSESOL     EXCH)*1.00000+PBESOL     CORR


 TOTAL ENERGY(DFT)(AU)(  9) -2.5782105207772E+03 DE-2.3E-07 tester 1.5E-09
 TTTTTTTTTTTTTTTTTTTTTTTTTTTTTT EDFT        TELAPSE      221.46 TCPU     5863.44
 
 INFORMATION **** DFTD3 ENERGY **** CALCULATE DFTD3 ENERGY

           DFT-D V3(BJ)
 DF                                         hsesol3c  
 parameters
 s6       :    1.0000
 s8       :    0.0000
 a1       :    0.5196
 a2       :    4.9385
 k1 k3    :   16.0000   -4.0000
 Cutoff   :   50.2022
 CN-Cutoff:   21.1671
 ABC-Cutoff:   21.1671
 
 Edisp /kcal,au:   -44.4302 -0.07080396

 E6    /kcal :   -46.6918
 E8    /kcal :     0.0000
 E6(ABC) "   :   2.261680
 
 INFORMATION **** DFTD3 ENERGY **** NORMAL TERMINATION OF DFTD3 MODULE

 GCP ENERGY CALCULATION
  level        hsesol3c            basis:hsesol3c
  Nbf            948
  Atoms           84

  Parameters: 
  sigma     1.0000
  eta       1.4281
  alpha     0.2936
  beta      1.9467

  dmp_scal      4.0000
  dmp_exp       6.0000
 cutoffs: 
   distance [bohr] 60.0
   noise    [a.u.] 2.2E-16
 SR-damping   T
 ** gCP correction **
  Egcp:        0.1658565117 / (a.u.) ||     104.0765 / (kcal/mol)
 INFORMATION **** GCP **** NORMAL TERMINATION OF GCP MODULE

 *******************************************************************************

 DFT-D3-GCP DISPERSION AND COUNTERPOISE CORRECTION

 D3 DISPERSION ENERGY (AU)      -7.0803959093039E-02
 GCP ENERGY (AU)                 1.6585651166429E-01
 TOTAL ENERGY + DISP + GCP (AU) -2.5781154682246E+03

 *******************************************************************************

 EIGENVECTORS IN FORTRAN UNIT 10
 TTTTTTTTTTTTTTTTTTTTTTTTTTTTTT END         TELAPSE      224.57 TCPU     5872.09
 EEEEEEEEEE TERMINATION  DATE 19 02 2026 TIME 20:30:42.5
