 Default number of threads is:           32

         
 *******************************************************************************
 *                                                                             *
 *                               CRYSTAL23                                     *
 *                      public : 1.0.1 - October 2022                          *
 *                       HTTP://WWW.CRYSTAL.UNITO.IT                           *
 *                                                                             *
 *                              MAIN AUTHORS                                   *
 *                                                                             *
 *  R. DOVESI(1,11), V.R. SAUNDERS(2), C. ROETTI(1,11), R. ORLANDO(1,11),      *
 *  C.M. ZICOVICH-WILSON(1,3), F. PASCALE(4), B. CIVALLERI(1,11),              *
 *  K. DOLL(5), N.M. HARRISON(6), I.J. BUSH(7), Ph. D'ARCO(8),                 *
 *  M. LLUNELL(9), M. CAUSA'(10), Y. NOEL(8), L. MASCHIO(1,11), A. ERBA(1,11)  *
 *  M. RE'RAT(14), S. CASASSA(1,11), B.G. SEARLE(2), J.K. DESMARAIS(1)         *
 *                                                                             *
 *        CONTRIBUTIONS TO THE CODE HAVE ALSO BEEN GIVEN BY                    *
 *                                                                             *
 *  M. FERRABONE(1,11), M. DE LA PIERRE(1,11), M. FERRERO(1,11),               *
 *  J. BAIMA(1,11), E. ALBANESE(1,11), M.F. PEINTINGER(12), R. BAST(13),       *
 *  B. KIRTMAN(15), V. LACIVITA(1,11), R. DEMICHELIS(1,16)                     *
 *  G. BRANDEBURG(17), S. SALUSTRO(1,11), G. SANSONE(1,11)                     *
 *  M.T. RUGGIERO(18), L.E. DAGA(1), L. DONA'(1), A. COSSARD(1)                *
 *                                                                             *
 * (1) THEORETICAL CHEMISTRY GROUP - UNIVERSITA' DI TORINO - TORINO (ITALY)    *
 * (2) SCIENTIFIC COMPUTING DEPARTMENT - STFC DARESBURY (UK)                   *
 * (3) UNIVERSIDAD AUTONOMA DEL ESTADO DE MORELOS - CUERNAVACA (MEXICO)        *
 * (4) UNIVERSITE' DE LORRAINE - NANCY (FRANCE)                                *
 * (5) UNIVERSITAET STUTTGART- STUTTGART (GERMANY)                             *
 * (6) IMPERIAL COLLEGE - LONDON (UK)                                          *
 * (7) SCIENTIFIC COMPUTING DEPARTMENT - STFC RAL (UK)                         *
 * (8) UPMC - SORBONNE UNIVERSITES - PARIS (FRANCE)                            *
 * (9) UNIVERSIDAD DE BARCELONA - BARCELONA (SPAIN)                            *
 *(10) UNIVERSITA' DI NAPOLI "FEDERICO II" - NAPOLI (ITALY)                    *
 *(11) NIS - NANOSTRUCTURED INTERFACES AND SURFACES - TORINO (ITALY)           *
 *(12) MPI FUER CHEMISCHE ENERGIEKONVERSION - MUELHEIM AN DER RUHR (GERMANY)   *
 *(13) UNIVERSITY OF TROMSO - TROMSO (NORWAY)                                  *
 *(14) UNIVERSITE' DE PAU ET DES PAYS DE L'ADOUR - PAU (FRANCE)                *
 *(15) UNIVERSITY OF CALIFORNIA SANTA BARBARA - SANTA BARBARA (USA)            *
 *(16) CURTIN UNIVERSITY - PERTH (AUSTRALIA)                                   *
 *(17) UNIVERSITY COLLEGE LONDON - LONDON (UK)                                 *
 *(18) UNIVERSITY OF VERMONT - BURLINGTON (USA)                                *
 *                                                                             *
 *******************************************************************************
 EEEEEEEEEE STARTING  DATE 19 02 2026 TIME 18:17:49.2
 cof-1_z34_L060_incl                                                             

 CRYSTAL CALCULATION
 (INPUT ACCORDING TO THE INTERNATIONAL TABLES FOR X-RAY CRYSTALLOGRAPHY)
 CRYSTAL FAMILY                       :  TRICLINIC   
 CRYSTAL CLASS  (GROTH - 1921)        :  TRICLINIC PEDIAL                     

 SPACE GROUP (NONCENTROSYMMETRIC)     :  P 1             

 LATTICE PARAMETERS  (ANGSTROMS AND DEGREES) - CONVENTIONAL CELL
        A           B           C        ALPHA        BETA       GAMMA
    15.02361    15.02392     6.89638    41.10647    89.99997   119.99596


 NUMBER OF IRREDUCIBLE ATOMS IN THE CONVENTIONAL CELL:   42

 INPUT COORDINATES

 ATOM AT. N.              COORDINATES
   1   5     4.980880300000E-01 -3.890310000000E-03  5.013996700000E-01
   2   5     6.571436800000E-01  1.551693400000E-01  5.013996900000E-01
   3   5     4.987647300000E-01  1.565142400000E-01  4.984458300000E-01
   4   5     1.116627400000E-01  3.824246900000E-01  5.013996800000E-01
   5   5     2.707707100000E-01  3.824039200000E-01  5.013996700000E-01
   6   5     2.714319600000E-01  5.429052100000E-01  4.984458400000E-01
   7   1     7.888629100000E-01  8.054542000000E-02  4.952757700000E-01
   8   1    -1.733029000000E-02  4.631006300000E-01  4.943393200000E-01
   9   1     7.890398300000E-01  3.661860800000E-01  4.941951900000E-01
  10   1    -1.720370000000E-02  1.777820100000E-01  4.942311400000E-01
  11   1     5.746758500000E-01 -1.357326500000E-01  5.047138200000E-01
  12   1     1.923572600000E-01  6.702687000000E-01  5.056503300000E-01
  13   1     2.892642900000E-01 -1.361851300000E-01  5.057945400000E-01
  14   1     4.777148500000E-01  6.701289000000E-01  5.057583500000E-01
  15   1     5.768920200000E-01  3.656695500000E-01  4.952758200000E-01
  16   1     1.949970200000E-01  1.776565500000E-01  4.943392600000E-01
  17   1     2.919090000000E-01  8.093695000000E-02  4.941950800000E-01
  18   1     4.803509700000E-01  4.630549500000E-01  4.942312500000E-01
  19   6     7.770036900000E-01  2.161470900000E-01  4.983377500000E-01
  20   6     8.322751800000E-01  1.643345500000E-01  4.954198700000E-01
  21   6    -6.076770000000E-02  3.788504500000E-01  4.951678100000E-01
  22   6     8.321218900000E-01  3.250085100000E-01  4.959242800000E-01
  23   6    -6.045541000000E-02  2.184633200000E-01  4.939789800000E-01
  24   6    -6.302620000000E-03  3.253353600000E-01  4.959602700000E-01
  25   6     4.383887700000E-01 -1.231563600000E-01  5.016518600000E-01
  26   6     4.908545300000E-01 -1.791143600000E-01  5.045696800000E-01
  27   6     2.764172100000E-01  7.138765800000E-01  5.048218400000E-01
  28   6     3.300805100000E-01 -1.788349000000E-01  5.040653900000E-01
  29   6     4.370613500000E-01  7.132888400000E-01  5.060105500000E-01
  30   6     3.297291600000E-01  6.595709300000E-01  5.040293300000E-01
  31   6     4.391582500000E-01  2.160779500000E-01  4.983377500000E-01
  32   6     4.929962700000E-01  3.251746700000E-01  4.954199300000E-01
  33   6     2.786675600000E-01  2.178372100000E-01  4.951677500000E-01
  34   6     3.319570600000E-01  1.640063500000E-01  4.959242000000E-01
  35   6     4.398612000000E-01  3.793113200000E-01  4.939790500000E-01
  36   6     3.316214700000E-01  3.252579600000E-01  4.959602700000E-01
  37   8     4.456424500000E-01  5.015876000000E-02  4.992383100000E-01
  38   8     6.031507600000E-01  4.729277000000E-02  5.054702200000E-01
  39   8     6.053159900000E-01  2.105733400000E-01  4.960683600000E-01
  40   8     1.652302700000E-01  4.894392200000E-01  4.992383500000E-01
  41   8     1.638130300000E-01  3.276100500000E-01  5.054702200000E-01
  42   8     3.249004100000E-01  4.908853100000E-01  4.960683400000E-01

 *******************************************************************************

 << INFORMATION >>: FROM NOW ON, ALL COORDINATES REFER TO THE PRIMITIVE CELL

 *******************************************************************************

 LATTICE PARAMETERS  (ANGSTROMS AND DEGREES) - PRIMITIVE CELL
       A          B          C        ALPHA      BETA     GAMMA        VOLUME
   15.02361   15.02392    6.89638    41.10647  89.99997 119.99596    664.644237

 COORDINATES OF THE EQUIVALENT ATOMS (FRACTIONAL UNITS)

 N. ATOM EQUIV AT. N.          X                  Y                  Z

   1   1   1    5 B     4.98088030000E-01 -3.89031000000E-03 -4.98600330000E-01

   2   2   1    5 B    -3.42856320000E-01  1.55169340000E-01 -4.98600310000E-01

   3   3   1    5 B     4.98764730000E-01  1.56514240000E-01  4.98445830000E-01

   4   4   1    5 B     1.11662740000E-01  3.82424690000E-01 -4.98600320000E-01

   5   5   1    5 B     2.70770710000E-01  3.82403920000E-01 -4.98600330000E-01

   6   6   1    5 B     2.71431960000E-01 -4.57094790000E-01  4.98445840000E-01

   7   7   1    1 H    -2.11137090000E-01  8.05454200000E-02  4.95275770000E-01

   8   8   1    1 H    -1.73302900000E-02  4.63100630000E-01  4.94339320000E-01

   9   9   1    1 H    -2.10960170000E-01  3.66186080000E-01  4.94195190000E-01

  10  10   1    1 H    -1.72037000000E-02  1.77782010000E-01  4.94231140000E-01

  11  11   1    1 H    -4.25324150000E-01 -1.35732650000E-01 -4.95286180000E-01

  12  12   1    1 H     1.92357260000E-01 -3.29731300000E-01 -4.94349670000E-01

  13  13   1    1 H     2.89264290000E-01 -1.36185130000E-01 -4.94205460000E-01

  14  14   1    1 H     4.77714850000E-01 -3.29871100000E-01 -4.94241650000E-01

  15  15   1    1 H    -4.23107980000E-01  3.65669550000E-01  4.95275820000E-01

  16  16   1    1 H     1.94997020000E-01  1.77656550000E-01  4.94339260000E-01

  17  17   1    1 H     2.91909000000E-01  8.09369500000E-02  4.94195080000E-01

  18  18   1    1 H     4.80350970000E-01  4.63054950000E-01  4.94231250000E-01

  19  19   1    6 C    -2.22996310000E-01  2.16147090000E-01  4.98337750000E-01

  20  20   1    6 C    -1.67724820000E-01  1.64334550000E-01  4.95419870000E-01

  21  21   1    6 C    -6.07677000000E-02  3.78850450000E-01  4.95167810000E-01

  22  22   1    6 C    -1.67878110000E-01  3.25008510000E-01  4.95924280000E-01

  23  23   1    6 C    -6.04554100000E-02  2.18463320000E-01  4.93978980000E-01

  24  24   1    6 C    -6.30262000000E-03  3.25335360000E-01  4.95960270000E-01

  25  25   1    6 C     4.38388770000E-01 -1.23156360000E-01 -4.98348140000E-01

  26  26   1    6 C     4.90854530000E-01 -1.79114360000E-01 -4.95430320000E-01

  27  27   1    6 C     2.76417210000E-01 -2.86123420000E-01 -4.95178160000E-01

  28  28   1    6 C     3.30080510000E-01 -1.78834900000E-01 -4.95934610000E-01

  29  29   1    6 C     4.37061350000E-01 -2.86711160000E-01 -4.93989450000E-01

  30  30   1    6 C     3.29729160000E-01 -3.40429070000E-01 -4.95970670000E-01

  31  31   1    6 C     4.39158250000E-01  2.16077950000E-01  4.98337750000E-01

  32  32   1    6 C     4.92996270000E-01  3.25174670000E-01  4.95419930000E-01

  33  33   1    6 C     2.78667560000E-01  2.17837210000E-01  4.95167750000E-01

  34  34   1    6 C     3.31957060000E-01  1.64006350000E-01  4.95924200000E-01

  35  35   1    6 C     4.39861200000E-01  3.79311320000E-01  4.93979050000E-01

  36  36   1    6 C     3.31621470000E-01  3.25257960000E-01  4.95960270000E-01

  37  37   1    8 O     4.45642450000E-01  5.01587600000E-02  4.99238310000E-01

  38  38   1    8 O    -3.96849240000E-01  4.72927700000E-02 -4.94529780000E-01

  39  39   1    8 O    -3.94684010000E-01  2.10573340000E-01  4.96068360000E-01

  40  40   1    8 O     1.65230270000E-01  4.89439220000E-01  4.99238350000E-01

  41  41   1    8 O     1.63813030000E-01  3.27610050000E-01 -4.94529780000E-01

  42  42   1    8 O     3.24900410000E-01  4.90885310000E-01  4.96068340000E-01

 NUMBER OF SYMMETRY OPERATORS         :    1
 *******************************************************************************
 * GEOMETRY EDITING - INPUT COORDINATES ARE GIVEN IN ANGSTROM         
 *******************************************************************************

 GCALCO - MAX INDICES DIRECT LATTICE VECTOR     9    13    26
 NO.OF VECTORS CREATED 6999 STARS 3500 RMAX   201.94972 BOHR

 GEOMETRY FOR WAVE FUNCTION - DIMENSIONALITY OF THE SYSTEM    3
 (NON PERIODIC DIRECTION: LATTICE PARAMETER FORMALLY SET TO 500)
 *******************************************************************************
 LATTICE PARAMETERS (ANGSTROMS AND DEGREES) - BOHR = 0.5291772083 ANGSTROM
 PRIMITIVE CELL - CENTRING CODE 1/0 VOLUME=   664.644237 - DENSITY  0.975 g/cm^3
         A              B              C           ALPHA      BETA       GAMMA 
    15.02361100    15.02391600     6.89637600    41.106468  89.999972 119.995964
 *******************************************************************************
 ATOMS IN THE ASYMMETRIC UNIT   42 - ATOMS IN THE UNIT CELL:   42
     ATOM                 X/A                 Y/B                 Z/C    
 *******************************************************************************
      1 T   5 B     4.980880300000E-01 -3.890310000000E-03 -4.986003300000E-01
      2 T   5 B    -3.428563200000E-01  1.551693400000E-01 -4.986003100000E-01
      3 T   5 B     4.987647300000E-01  1.565142400000E-01  4.984458300000E-01
      4 T   5 B     1.116627400000E-01  3.824246900000E-01 -4.986003200000E-01
      5 T   5 B     2.707707100000E-01  3.824039200000E-01 -4.986003300000E-01
      6 T   5 B     2.714319600000E-01 -4.570947900000E-01  4.984458400000E-01
      7 T   1 H    -2.111370900000E-01  8.054542000000E-02  4.952757700000E-01
      8 T   1 H    -1.733029000000E-02  4.631006300000E-01  4.943393200000E-01
      9 T   1 H    -2.109601700000E-01  3.661860800000E-01  4.941951900000E-01
     10 T   1 H    -1.720370000000E-02  1.777820100000E-01  4.942311400000E-01
     11 T   1 H    -4.253241500000E-01 -1.357326500000E-01 -4.952861800000E-01
     12 T   1 H     1.923572600000E-01 -3.297313000000E-01 -4.943496700000E-01
     13 T   1 H     2.892642900000E-01 -1.361851300000E-01 -4.942054600000E-01
     14 T   1 H     4.777148500000E-01 -3.298711000000E-01 -4.942416500000E-01
     15 T   1 H    -4.231079800000E-01  3.656695500000E-01  4.952758200000E-01
     16 T   1 H     1.949970200000E-01  1.776565500000E-01  4.943392600000E-01
     17 T   1 H     2.919090000000E-01  8.093695000000E-02  4.941950800000E-01
     18 T   1 H     4.803509700000E-01  4.630549500000E-01  4.942312500000E-01
     19 T   6 C    -2.229963100000E-01  2.161470900000E-01  4.983377500000E-01
     20 T   6 C    -1.677248200000E-01  1.643345500000E-01  4.954198700000E-01
     21 T   6 C    -6.076770000000E-02  3.788504500000E-01  4.951678100000E-01
     22 T   6 C    -1.678781100000E-01  3.250085100000E-01  4.959242800000E-01
     23 T   6 C    -6.045541000000E-02  2.184633200000E-01  4.939789800000E-01
     24 T   6 C    -6.302620000000E-03  3.253353600000E-01  4.959602700000E-01
     25 T   6 C     4.383887700000E-01 -1.231563600000E-01 -4.983481400000E-01
     26 T   6 C     4.908545300000E-01 -1.791143600000E-01 -4.954303200000E-01
     27 T   6 C     2.764172100000E-01 -2.861234200000E-01 -4.951781600000E-01
     28 T   6 C     3.300805100000E-01 -1.788349000000E-01 -4.959346100000E-01
     29 T   6 C     4.370613500000E-01 -2.867111600000E-01 -4.939894500000E-01
     30 T   6 C     3.297291600000E-01 -3.404290700000E-01 -4.959706700000E-01
     31 T   6 C     4.391582500000E-01  2.160779500000E-01  4.983377500000E-01
     32 T   6 C     4.929962700000E-01  3.251746700000E-01  4.954199300000E-01
     33 T   6 C     2.786675600000E-01  2.178372100000E-01  4.951677500000E-01
     34 T   6 C     3.319570600000E-01  1.640063500000E-01  4.959242000000E-01
     35 T   6 C     4.398612000000E-01  3.793113200000E-01  4.939790500000E-01
     36 T   6 C     3.316214700000E-01  3.252579600000E-01  4.959602700000E-01
     37 T   8 O     4.456424500000E-01  5.015876000000E-02  4.992383100000E-01
     38 T   8 O    -3.968492400000E-01  4.729277000000E-02 -4.945297800000E-01
     39 T   8 O    -3.946840100000E-01  2.105733400000E-01  4.960683600000E-01
     40 T   8 O     1.652302700000E-01  4.894392200000E-01  4.992383500000E-01
     41 T   8 O     1.638130300000E-01  3.276100500000E-01 -4.945297800000E-01
     42 T   8 O     3.249004100000E-01  4.908853100000E-01  4.960683400000E-01

 T = ATOM BELONGING TO THE ASYMMETRIC UNIT

 ****    1 SYMMOPS - TRANSLATORS IN FRACTIONAL UNITS
 **** MATRICES AND TRANSLATORS IN THE CRYSTALLOGRAPHIC REFERENCE FRAME
   V INV                    ROTATION MATRICES                   TRANSLATORS
   1   1  1.00 -0.00  0.00  0.00  1.00  0.00 -0.00  0.00  1.00  0.00  0.00  0.00

 DIRECT LATTICE VECTORS CARTESIAN COMPONENTS (ANGSTROM)
          X                    Y                    Z
   0.130113578931E+02  -0.751088897922E+01   0.000000000000E+00
   0.000000000000E+00   0.150239160000E+02   0.000000000000E+00
   0.299962686121E+01   0.519634468198E+01   0.340003567230E+01


 CARTESIAN COORDINATES - PRIMITIVE CELL
 *******************************************************************************
 *      ATOM          X(ANGSTROM)         Y(ANGSTROM)         Z(ANGSTROM)
 *******************************************************************************
    1     5 B     1.985559816498E+00  3.437140558926E+00 -5.095294580526E+00
    2     5 B    -5.956641168298E+00  2.315507815974E+00 -1.695258840222E+00
    3     5 B    -2.026973124864E+00 -1.121295720038E+00  5.094769275014E+00
    4     5 B    -4.273103941824E-02  2.315930854364E+00 -1.695258874222E+00
    5     5 B     2.027479671893E+00  1.120576457287E+00 -1.695258908222E+00
    6     5 B     2.027223044489E+00  3.511618661989E+00 -1.705302035592E+00
    7     1 H    -4.261164600298E+00  1.732137982210E-01 -1.716080386676E+00
    8     1 H    -1.742283963964E+00  4.460163663429E+00 -1.719264350081E+00
    9     1 H     1.737149754758E+00 -1.735154484027E-01  5.080316947384E+00
   10     1 H    -1.740961355802E+00  1.720477393092E-01 -1.719632165940E+00
   11     1 H    -4.020091604517E+00  3.777993513253E+00  1.716044992305E+00
   12     1 H    -1.979662256978E+00  8.601306612950E-01 -5.080842184895E+00
   13     1 H     5.280916091306E+00 -1.590383153306E+00  1.719719478856E+00
   14     1 H     1.733551493706E+00 -1.284697550876E+00 -5.080474913042E+00
   15     1 H    -1.019939840605E+00  1.417758222313E+00  5.083991127933E+00
   16     1 H     1.020382476939E+00 -1.423091381635E+00 -1.719264554083E+00
   17     1 H     2.280906446642E+00 -3.604842859101E+00 -1.719754771227E+00
   18     1 H     4.732900856889E+00  7.208871110795E-01 -1.719631791936E+00
   19     6 C    -4.406284358594E+00  2.315466286050E+00 -1.705669545448E+00
   20     6 C    -3.695879772147E+00  1.106738702017E+00 -1.715590441536E+00
   21     6 C    -2.304978490563E+00  3.524954719784E+00 -1.716447454527E+00
   22     6 C    -3.696361241413E+00  3.524463212837E+00 -1.713875429542E+00
   23     6 C    -2.304481220008E+00  1.106788805215E+00 -1.720489518935E+00
   24     6 C    -1.593936757707E+00  2.315985229074E+00 -1.713753062258E+00
   25     6 C     1.209547854586E+00  2.095002422241E+00 -5.094437125530E+00
   26     6 C     1.900951006325E+00  8.753916305823E-01 -5.084516433444E+00
   27     6 C    -8.884133239133E-01  8.796217156990E-01 -5.083659080449E+00
   28     6 C    -1.924499896300E-01  2.084525564450E+00 -5.086231037433E+00
   29     6 C     1.205350761495E+00 -3.296117945056E-01 -5.079617424045E+00
   30     6 C    -1.971296967704E-01 -3.408001010658E-01 -5.086353642720E+00
   31     6 C     4.209245602086E+00 -2.658941854744E+00 -1.705669545448E+00
   32     6 C     4.900998977311E+00 -1.439415287109E+00 -1.715590237533E+00
   33     6 C     2.111534978842E+00 -1.443555538136E+00 -1.716447658529E+00
   34     6 C     2.807172803023E+00 -2.648626600307E+00 -1.713875701545E+00
   35     6 C     4.205317462517E+00 -2.344665024404E-01 -1.720489280933E+00
   36     6 C     2.802914517969E+00 -2.232879454170E-01 -1.713753062258E+00
   37     8 O    -2.715788977744E+00 -2.316057971061E+00  5.097463735284E+00
   38     8 O    -6.646952302981E+00  1.121465994628E+00 -1.681418893016E+00
   39     8 O    -6.477280699214E-01 -1.121765180649E+00  5.086685792205E+00
   40     8 O     6.477720813349E-01  3.510137377491E+00 -1.702607473322E+00
   41     8 O     6.480251491221E-01  1.121857197891E+00 -1.681418893016E+00
   42     8 O     2.715788570563E+00  2.316126152738E+00 -1.713385620403E+00

 *******************************************************************************
 STARTING BASIS SET HANDLING 
 *******************************************************************************

 Loading internal basis set: SOLDEF2MSVP         

 Please cite in your publication:
 L. Dona', J. G. Brandenburg and B. Civalleri, J. Chem. Phys., 151, 121101 (2019
 )                                                                              
                                                                                
                    

 *******************************************************************************
 LOCAL ATOMIC FUNCTIONS BASIS SET
 *******************************************************************************
   ATOM   X(AU)   Y(AU)   Z(AU)  N. TYPE  EXPONENT  S COEF   P COEF   D/F/G COEF
 *******************************************************************************
   1 B    3.752   6.495  -9.629
                                  1 S  
                                         2.410E+03 1.755E-03 0.000E+00 0.000E+00
                                         3.619E+02 1.344E-02 0.000E+00 0.000E+00
                                         8.231E+01 6.637E-02 0.000E+00 0.000E+00
                                         2.311E+01 2.303E-01 0.000E+00 0.000E+00
                                         7.252E+00 5.150E-01 0.000E+00 0.000E+00
                                  2 S  
                                         2.367E+00 1.000E+00 0.000E+00 0.000E+00
                                  3 S  
                                         5.533E-01 1.000E+00 0.000E+00 0.000E+00
                                  4 S  
                                         1.716E-01 1.000E+00 0.000E+00 0.000E+00
                           5-     7 P  
                                         6.002E+00 0.000E+00-3.555E-02 0.000E+00
                                         1.240E+00 0.000E+00-1.983E-01 0.000E+00
                                         3.367E-01 0.000E+00-5.048E-01 0.000E+00
                           8-    10 P  
                                         1.256E-01 0.000E+00 1.000E+00 0.000E+00
                          11-    15 D  
                                         8.880E-01 0.000E+00 0.000E+00 1.000E+00
   2 B  -11.256   4.376  -3.204
   3 B   -3.830  -2.119   9.628
   4 B   -0.081   4.376  -3.204
   5 B    3.831   2.118  -3.204
   6 B    3.831   6.636  -3.223
   7 H   -8.052   0.327  -3.243
                                 91 S  
                                         1.874E+01 1.968E-02 0.000E+00 0.000E+00
                                         2.826E+00 1.380E-01 0.000E+00 0.000E+00
                                         6.401E-01 4.783E-01 0.000E+00 0.000E+00
                                 92 S  
                                         1.756E-01 1.000E+00 0.000E+00 0.000E+00
   8 H   -3.292   8.428  -3.249
   9 H    3.283  -0.328   9.600
  10 H   -3.290   0.325  -3.250
  11 H   -7.597   7.139   3.243
  12 H   -3.741   1.625  -9.601
  13 H    9.979  -3.005   3.250
  14 H    3.276  -2.428  -9.601
  15 H   -1.927   2.679   9.607
  16 H    1.928  -2.689  -3.249
  17 H    4.310  -6.812  -3.250
  18 H    8.944   1.362  -3.250
  19 C   -8.327   4.376  -3.223
                                115 S  
                                         3.624E+03 1.634E-03 0.000E+00 0.000E+00
                                         5.440E+02 1.252E-02 0.000E+00 0.000E+00
                                         1.237E+02 6.211E-02 0.000E+00 0.000E+00
                                         3.476E+01 2.182E-01 0.000E+00 0.000E+00
                                         1.093E+01 4.980E-01 0.000E+00 0.000E+00
                                116 S  
                                         3.574E+00 1.000E+00 0.000E+00 0.000E+00
                                117 S  
                                         7.742E-01 1.000E+00 0.000E+00 0.000E+00
                                118 S  
                                         2.330E-01 1.000E+00 0.000E+00 0.000E+00
                         119-   121 P  
                                         9.443E+00 0.000E+00 3.790E-02 0.000E+00
                                         2.002E+00 0.000E+00 2.082E-01 0.000E+00
                                         5.463E-01 0.000E+00 5.047E-01 0.000E+00
                         122-   124 P  
                                         1.820E-01 0.000E+00 1.000E+00 0.000E+00
                         125-   129 D  
                                         8.880E-01 0.000E+00 0.000E+00 1.000E+00
  20 C   -6.984   2.091  -3.242
  21 C   -4.356   6.661  -3.244
  22 C   -6.985   6.660  -3.239
  23 C   -4.355   2.092  -3.251
  24 C   -3.012   4.377  -3.239
  25 C    2.286   3.959  -9.627
  26 C    3.592   1.654  -9.608
  27 C   -1.679   1.662  -9.607
  28 C   -0.364   3.939  -9.612
  29 C    2.278  -0.623  -9.599
  30 C   -0.373  -0.644  -9.612
  31 C    7.954  -5.025  -3.223
  32 C    9.262  -2.720  -3.242
  33 C    3.990  -2.728  -3.244
  34 C    5.305  -5.005  -3.239
  35 C    7.947  -0.443  -3.251
  36 C    5.297  -0.422  -3.239
  37 O   -5.132  -4.377   9.633
                                385 S  
                                         6.773E+03 1.727E-03 0.000E+00 0.000E+00
                                         1.017E+03 1.325E-02 0.000E+00 0.000E+00
                                         2.313E+02 6.603E-02 0.000E+00 0.000E+00
                                         6.501E+01 2.353E-01 0.000E+00 0.000E+00
                                         2.050E+01 5.498E-01 0.000E+00 0.000E+00
                                386 S  
                                         6.716E+00 1.000E+00 0.000E+00 0.000E+00
                                387 S  
                                         1.147E+00 1.000E+00 0.000E+00 0.000E+00
                                388 S  
                                         3.342E-01 1.000E+00 0.000E+00 0.000E+00
                         389-   391 P  
                                         1.769E+01 0.000E+00 4.359E-02 0.000E+00
                                         3.854E+00 0.000E+00 2.318E-01 0.000E+00
                                         1.047E+00 0.000E+00 5.146E-01 0.000E+00
                         392-   394 P  
                                         2.759E-01 0.000E+00 1.000E+00 0.000E+00
                         395-   399 D  
                                         8.000E-01 0.000E+00 0.000E+00 1.000E+00
  38 O  -12.561   2.119  -3.177
  39 O   -1.224  -2.120   9.612
  40 O    1.224   6.633  -3.217
  41 O    1.225   2.120  -3.177
  42 O    5.132   4.377  -3.238

 *******************************************************************************
 FINISHED BASIS SET HANDLING 
 *******************************************************************************

 INFORMATION **** SET_MPP **** PCRYSTAL CALCULATION
 INFORMATION **** READM2 **** NEW DEFAULT: FOCK/KS MATRIX MIXING SET TO 30 %
 INFORMATION **** READM2 **** NEW DEFAULT: FULL DIRECT SCF MODE
 INFORMATION **** READM2 **** NEW DEFAULT: COULOMB BIPOLAR BUFFER SET TO 32 Mb
 INFORMATION **** READM2 **** NEW DEFAULT: EXCHANGE BIPOLAR BUFFER SET TO 32 Mb

 *******************************************************************************
 NEW DEFAULT: DFT INTEGRATION GRID INCREASED TO XLGRID
 NEW DEFAULT: DIIS ACCELERATOR ACTIVE
 USE KEYWORD NODIIS TO TURN IT OFF
 *******************************************************************************

 WARNING **** RDDFTP **** HSEsol-HJS ACTIVE
 RANGE SEPARATION - OMEGA:   0.110000000000000     
 WARNING **** RDDFTP **** HSEsol-3c has to be combined with sol-def2-mSVP basis set
 *******************************************************************************
 N. OF ATOMS PER CELL        42  COULOMB OVERLAP TOL         (T1) 10**   -6
 NUMBER OF SHELLS           234  COULOMB PENETRATION TOL     (T2) 10**   -6
 NUMBER OF AO               474  EXCHANGE OVERLAP TOL        (T3) 10**   -6
 N. OF ELECTRONS PER CELL   198  EXCHANGE PSEUDO OVP (F(G))  (T4) 10**   -6
 CORE ELECTRONS PER CELL     60  EXCHANGE PSEUDO OVP (P(G))  (T5) 10**  -12
 N. OF SYMMETRY OPERATORS     1  POLE ORDER IN MONO ZONE                  4
 *******************************************************************************
 TYPE OF CALCULATION :  RESTRICTED CLOSED SHELL
 KOHN-SHAM HAMILTONIAN

 (EXCHANGE)[CORRELATION] FUNCTIONAL:(HSEsol GGA)[PBEsol]

 RANGE-SEPARATED HYBRID FUNCTIONAL 
 OMEGA (SHORT-RANGE)[LONG-RANGE]:(    0.1100)[    0.0000]

 HYBRID EXCHANGE - PERCENTAGE OF FOCK EXCHANGE    25.0000

 CAPPA:IS1  2;IS2  2;IS3  8; K PTS MONK NET  20; SYMMOPS:K SPACE   2;G SPACE   1

 *******************************************************************************
 MAX NUMBER OF SCF CYCLES      50  CONVERGENCE ON DELTAP        10**-16
 WEIGHT OF F(I) IN F(I+1)      30% CONVERGENCE ON ENERGY        10**- 6
 SHRINK. FACT.(MONKH.)    2  2  8  NUMBER OF K POINTS IN THE IBZ     20
 SHRINKING FACTOR(GILAT NET)    8  NUMBER OF K POINTS(GILAT NET)   1028
 *******************************************************************************
 *** K POINTS COORDINATES (OBLIQUE COORDINATES IN UNITS OF IS =  2)
   1-R(  0  0  0)   2-R(  1  0  0)   3-R(  0  1  0)   4-R(  1  1  0)
   5-C(  0  0  1)   6-C(  1  0  1)   7-C(  0  1  1)   8-C(  1  1  1)
   9-C(  0  0  2)  10-C(  1  0  2)  11-C(  0  1  2)  12-C(  1  1  2)
  13-C(  0  0  3)  14-C(  1  0  3)  15-C(  0  1  3)  16-C(  1  1  3)
  17-R(  0  0  4)  18-R(  1  0  4)  19-R(  0  1  4)  20-R(  1  1  4)

 DIRECT LATTICE VECTORS COMPON. (A.U.)     RECIP. LATTICE VECTORS COMPON. (A.U.) 
        X            Y            Z              X            Y            Z
   24.5879030  -14.1935232    0.0000000      0.2555397    0.0000000   -0.2254458
    0.0000000   28.3910867    0.0000000      0.1277517    0.2213084   -0.4509370
    5.6684733    9.8196683    6.4251363      0.0000000    0.0000000    0.9779069

 DISK SPACE FOR EIGENVECTORS (FTN 10)     7189632 REALS

 SYMMETRY ADAPTION OF THE BLOCH FUNCTIONS DISABLED
 TTTTTTTTTTTTTTTTTTTTTTTTTTTTTT gordsh1     TELAPSE        0.04 TCPU        0.04

 MATRIX SIZE: P(G)  348822, F(G)   67321, P(G) IRR  175650, F(G) IRR   67837
 MAX G-VECTOR INDEX FOR 1- AND 2-ELECTRON INTEGRALS  57

 TTTTTTTTTTTTTTTTTTTTTTTTTTTTTT INPUT       TELAPSE        0.42 TCPU        0.41

 NEIGHBORS OF THE NON-EQUIVALENT ATOMS

 N = NUMBER OF NEIGHBORS AT DISTANCE R
    ATOM  N     R/ANG      R/AU   NEIGHBORS (ATOM LABELS AND CELL INDICES)
   1 B    1     1.3791     2.6061   37 O    1 2-3
   1 B    1     1.3793     2.6065   38 O    1 1-1
   1 B    1     1.5503     2.9297   25 C    0 0 0
   1 B    1     2.3895     4.5155    3 B    1 2-3
   1 B    1     2.3898     4.5160    2 B    1 1-1
   1 B    1     2.5632     4.8437   26 C    0 0 0

   2 B    1     1.3793     2.6065   39 O    0 1-2
   2 B    1     1.3793     2.6065   38 O    0 0 0
   2 B    1     1.5504     2.9298   19 C    0 0 0
   2 B    1     2.3895     4.5156    3 B    0 1-2
   2 B    1     2.3898     4.5160    1 B   -1-1 1
   2 B    1     2.5634     4.8440   22 C    0 0 0

   3 B    1     1.3791     2.6061   37 O    0 0 0
   3 B    1     1.3793     2.6064   39 O    0 0 0
   3 B    1     1.5502     2.9294   31 C   -1-1 2
   3 B    1     2.3895     4.5155    1 B   -1-2 3
   3 B    1     2.3895     4.5156    2 B    0-1 2
   3 B    1     2.5629     4.8433   32 C   -1-1 2

   4 B    1     1.3795     2.6068   40 O    0 0 0
   4 B    1     1.3795     2.6070   41 O    0 0 0
   4 B    1     1.5513     2.9316   24 C    0 0 0
   4 B    1     2.3905     4.5174    6 B    0 0 0
   4 B    1     2.3905     4.5175    5 B    0 0 0
   4 B    1     2.5648     4.8468   23 C    0 0 0

   5 B    1     1.3795     2.6069   41 O    0 0 0
   5 B    1     1.3797     2.6072   42 O    0 0 0
   5 B    1     1.5516     2.9322   36 C    0 0 0
   5 B    1     2.3905     4.5175    4 B    0 0 0
   5 B    1     2.3911     4.5185    6 B    0 0 0
   5 B    1     2.5651     4.8473   35 C    0 0 0

   6 B    1     1.3795     2.6068   40 O    0 0 0
   6 B    1     1.3796     2.6071   42 O    0 0 0
   6 B    1     1.5516     2.9322   30 C    0 0 1
   6 B    1     2.3905     4.5174    4 B    0 0 0
   6 B    1     2.3911     4.5185    5 B    0 0 0
   6 B    1     2.5651     4.8473   29 C    0 0 1

   7 H    1     1.0913     2.0623   20 C    0 0 0
   7 H    1     2.1472     4.0576   19 C    0 0 0
   7 H    1     2.1680     4.0969   23 C    0 0 0
   7 H    1     2.5202     4.7625   10 H    0 0 0
   7 H    1     2.5676     4.8520   38 O    0 0 0
   7 H    1     2.7321     5.1630    2 B    0 0 0

   8 H    1     1.0914     2.0625   21 C    0 0 0
   8 H    1     2.1493     4.0616   24 C    0 0 0
   8 H    1     2.1666     4.0942   22 C    0 0 0
   8 H    1     2.5198     4.7618    9 H    0 1-2
   8 H    1     2.5720     4.8604   40 O    0 0 0
   8 H    1     2.7362     5.1707    4 B    0 0 0

   9 H    1     1.0914     2.0624   22 C    0-1 2
   9 H    1     2.1471     4.0575   19 C    0-1 2
   9 H    1     2.1680     4.0970   21 C    0-1 2
   9 H    1     2.5198     4.7618    8 H    0-1 2
   9 H    1     2.5665     4.8500   39 O    0 0 0
   9 H    1     2.7315     5.1618    2 B    0-1 2

  10 H    1     1.0915     2.0626   23 C    0 0 0
  10 H    1     2.1490     4.0610   24 C    0 0 0
  10 H    1     2.1669     4.0948   20 C    0 0 0
  10 H    1     2.5202     4.7625    7 H    0 0 0
  10 H    1     2.5712     4.8588   41 O    0 0 0
  10 H    1     2.7351     5.1686    4 B    0 0 0

  11 H    1     1.0913     2.0623   26 C   -1-1 2
  11 H    1     2.1469     4.0571   25 C   -1-1 2
  11 H    1     2.1680     4.0968   29 C   -1-1 2
  11 H    1     2.5198     4.7617   14 H   -1-1 2
  11 H    1     2.5670     4.8510   38 O    0 0 1
  11 H    1     2.7310     5.1609    1 B   -1-1 2

  12 H    1     1.0914     2.0625   27 C    0 0 0
  12 H    1     2.1493     4.0617   30 C    0 0 0
  12 H    1     2.1664     4.0939   28 C    0 0 0
  12 H    1     2.5192     4.7606   13 H    0 1-2
  12 H    1     2.5735     4.8632   40 O    0 0-1
  12 H    1     2.7371     5.1723    6 B    0 0-1

  13 H    1     1.0914     2.0624   28 C    0-1 2
  13 H    1     2.1475     4.0581   25 C    0-1 2
  13 H    1     2.1679     4.0967   27 C    0-1 2
  13 H    1     2.5192     4.7606   12 H    0-1 2
  13 H    1     2.5675     4.8519   37 O    1 1-1
  13 H    1     2.7328     5.1643    1 B    0-1 2

  14 H    1     1.0914     2.0625   29 C    0 0 0
  14 H    1     2.1491     4.0612   30 C    0 0 0
  14 H    1     2.1666     4.0942   26 C    0 0 0
  14 H    1     2.5198     4.7617   11 H    1 1-2
  14 H    1     2.5723     4.8609   42 O    0 0-1
  14 H    1     2.7355     5.1693    6 B    0 0-1

  15 H    1     1.0914     2.0624   32 C   -1-1 2
  15 H    1     2.1475     4.0582   31 C   -1-1 2
  15 H    1     2.1678     4.0966   35 C   -1-1 2
  15 H    1     2.5200     4.7621   18 H   -1-1 2
  15 H    1     2.5667     4.8503   39 O    0 0 0
  15 H    1     2.7315     5.1618    3 B    0 0 0

  16 H    1     1.0913     2.0623   33 C    0 0 0
  16 H    1     2.1487     4.0605   36 C    0 0 0
  16 H    1     2.1667     4.0945   34 C    0 0 0
  16 H    1     2.5197     4.7616   17 H    0 0 0
  16 H    1     2.5723     4.8610   41 O    0 0 0
  16 H    1     2.7359     5.1701    5 B    0 0 0

  17 H    1     1.0915     2.0626   34 C    0 0 0
  17 H    1     2.1479     4.0589   31 C    0 0 0
  17 H    1     2.1679     4.0968   33 C    0 0 0
  17 H    1     2.5197     4.7616   16 H    0 0 0
  17 H    1     2.5677     4.8522   37 O    1 1-2
  17 H    1     2.7331     5.1648    3 B    1 1-2

  18 H    1     1.0914     2.0624   35 C    0 0 0
  18 H    1     2.1486     4.0602   36 C    0 0 0
  18 H    1     2.1668     4.0947   32 C    0 0 0
  18 H    1     2.5200     4.7621   15 H    1 1-2
  18 H    1     2.5717     4.8598   42 O    0 0 0
  18 H    1     2.7349     5.1682    5 B    0 0 0

  19 C    1     1.4020     2.6495   22 C    0 0 0
  19 C    1     1.4021     2.6495   20 C    0 0 0
  19 C    1     1.5504     2.9298    2 B    0 0 0
  19 C    1     2.1471     4.0575    9 H    0 1-2
  19 C    1     2.1472     4.0576    7 H    0 0 0
  19 C    1     2.4246     4.5817   21 C    0 0 0

  20 C    1     1.0913     2.0623    7 H    0 0 0
  20 C    1     1.3914     2.6294   23 C    0 0 0
  20 C    1     1.4021     2.6495   19 C    0 0 0
  20 C    1     2.1669     4.0948   10 H    0 0 0
  20 C    1     2.4177     4.5688   22 C    0 0 0
  20 C    1     2.4250     4.5825   24 C    0 0 0

  21 C    1     1.0914     2.0625    8 H    0 0 0
  21 C    1     1.3914     2.6293   22 C    0 0 0
  21 C    1     1.4026     2.6505   24 C    0 0 0
  21 C    1     2.1680     4.0970    9 H    0 1-2
  21 C    1     2.4182     4.5697   23 C    0 0 0
  21 C    1     2.4246     4.5817   19 C    0 0 0

  22 C    1     1.0914     2.0624    9 H    0 1-2
  22 C    1     1.3914     2.6293   21 C    0 0 0
  22 C    1     1.4020     2.6495   19 C    0 0 0
  22 C    1     2.1666     4.0942    8 H    0 0 0
  22 C    1     2.4177     4.5688   20 C    0 0 0
  22 C    1     2.4250     4.5826   24 C    0 0 0

  23 C    1     1.0915     2.0626   10 H    0 0 0
  23 C    1     1.3914     2.6294   20 C    0 0 0
  23 C    1     1.4025     2.6504   24 C    0 0 0
  23 C    1     2.1680     4.0969    7 H    0 0 0
  23 C    1     2.4182     4.5697   21 C    0 0 0
  23 C    1     2.4246     4.5818   19 C    0 0 0

  24 C    1     1.4025     2.6504   23 C    0 0 0
  24 C    1     1.4026     2.6505   21 C    0 0 0
  24 C    1     1.5513     2.9316    4 B    0 0 0
  24 C    1     2.1490     4.0610   10 H    0 0 0
  24 C    1     2.1493     4.0616    8 H    0 0 0
  24 C    1     2.4250     4.5825   20 C    0 0 0

  25 C    1     1.4020     2.6494   26 C    0 0 0
  25 C    1     1.4021     2.6495   28 C    0 0 0
  25 C    1     1.5503     2.9297    1 B    0 0 0
  25 C    1     2.1469     4.0571   11 H    1 1-2
  25 C    1     2.1475     4.0581   13 H    0 1-2
  25 C    1     2.4246     4.5818   27 C    0 0 0

  26 C    1     1.0913     2.0623   11 H    1 1-2
  26 C    1     1.3914     2.6293   29 C    0 0 0
  26 C    1     1.4020     2.6494   25 C    0 0 0
  26 C    1     2.1666     4.0942   14 H    0 0 0
  26 C    1     2.4175     4.5684   28 C    0 0 0
  26 C    1     2.4251     4.5828   30 C    0 0 0

  27 C    1     1.0914     2.0625   12 H    0 0 0
  27 C    1     1.3915     2.6295   28 C    0 0 0
  27 C    1     1.4026     2.6505   30 C    0 0 0
  27 C    1     2.1679     4.0967   13 H    0 1-2
  27 C    1     2.4179     4.5691   29 C    0 0 0
  27 C    1     2.4246     4.5818   25 C    0 0 0

  28 C    1     1.0914     2.0624   13 H    0 1-2
  28 C    1     1.3915     2.6295   27 C    0 0 0
  28 C    1     1.4021     2.6495   25 C    0 0 0
  28 C    1     2.1664     4.0939   12 H    0 0 0
  28 C    1     2.4175     4.5684   26 C    0 0 0
  28 C    1     2.4253     4.5832   30 C    0 0 0

  29 C    1     1.0914     2.0625   14 H    0 0 0
  29 C    1     1.3914     2.6293   26 C    0 0 0
  29 C    1     1.4025     2.6504   30 C    0 0 0
  29 C    1     2.1680     4.0968   11 H    1 1-2
  29 C    1     2.4179     4.5691   27 C    0 0 0
  29 C    1     2.4247     4.5819   25 C    0 0 0

  30 C    1     1.4025     2.6504   29 C    0 0 0
  30 C    1     1.4026     2.6505   27 C    0 0 0
  30 C    1     1.5516     2.9322    6 B    0 0-1
  30 C    1     2.1491     4.0612   14 H    0 0 0
  30 C    1     2.1493     4.0617   12 H    0 0 0
  30 C    1     2.4251     4.5828   26 C    0 0 0

  31 C    1     1.4021     2.6496   32 C    0 0 0
  31 C    1     1.4021     2.6497   34 C    0 0 0
  31 C    1     1.5502     2.9294    3 B    1 1-2
  31 C    1     2.1475     4.0582   15 H    1 1-2
  31 C    1     2.1479     4.0589   17 H    0 0 0
  31 C    1     2.4244     4.5814   33 C    0 0 0

  32 C    1     1.0914     2.0624   15 H    1 1-2
  32 C    1     1.3914     2.6293   35 C    0 0 0
  32 C    1     1.4021     2.6496   31 C    0 0 0
  32 C    1     2.1668     4.0947   18 H    0 0 0
  32 C    1     2.4179     4.5692   34 C    0 0 0
  32 C    1     2.4251     4.5827   36 C    0 0 0

  33 C    1     1.0913     2.0623   16 H    0 0 0
  33 C    1     1.3914     2.6294   34 C    0 0 0
  33 C    1     1.4025     2.6504   36 C    0 0 0
  33 C    1     2.1679     4.0968   17 H    0 0 0
  33 C    1     2.4178     4.5690   35 C    0 0 0
  33 C    1     2.4244     4.5814   31 C    0 0 0

  34 C    1     1.0915     2.0626   17 H    0 0 0
  34 C    1     1.3914     2.6294   33 C    0 0 0
  34 C    1     1.4021     2.6497   31 C    0 0 0
  34 C    1     2.1667     4.0945   16 H    0 0 0
  34 C    1     2.4179     4.5692   32 C    0 0 0
  34 C    1     2.4253     4.5832   36 C    0 0 0

  35 C    1     1.0914     2.0624   18 H    0 0 0
  35 C    1     1.3914     2.6293   32 C    0 0 0
  35 C    1     1.4025     2.6503   36 C    0 0 0
  35 C    1     2.1678     4.0966   15 H    1 1-2
  35 C    1     2.4178     4.5690   33 C    0 0 0
  35 C    1     2.4245     4.5817   31 C    0 0 0

  36 C    1     1.4025     2.6503   35 C    0 0 0
  36 C    1     1.4025     2.6504   33 C    0 0 0
  36 C    1     1.5516     2.9322    5 B    0 0 0
  36 C    1     2.1486     4.0602   18 H    0 0 0
  36 C    1     2.1487     4.0605   16 H    0 0 0
  36 C    1     2.4251     4.5827   32 C    0 0 0

  37 O    1     1.3791     2.6061    1 B   -1-2 3
  37 O    1     1.3791     2.6061    3 B    0 0 0
  37 O    1     2.3880     4.5126   38 O    0-1 2
  37 O    1     2.3882     4.5130   39 O    0 0 0
  37 O    1     2.5383     4.7966   31 C   -1-1 2
  37 O    1     2.5384     4.7968   25 C   -1-2 3

  38 O    1     1.3793     2.6065    1 B   -1-1 1
  38 O    1     1.3793     2.6065    2 B    0 0 0
  38 O    1     2.3880     4.5126   37 O    0 1-2
  38 O    1     2.3882     4.5131   39 O    0 1-2
  38 O    1     2.5391     4.7981   19 C    0 0 0
  38 O    1     2.5395     4.7990   25 C   -1-1 1

  39 O    1     1.3793     2.6064    3 B    0 0 0
  39 O    1     1.3793     2.6065    2 B    0-1 2
  39 O    1     2.3882     4.5130   37 O    0 0 0
  39 O    1     2.3882     4.5131   38 O    0-1 2
  39 O    1     2.5390     4.7980   19 C    0-1 2
  39 O    1     2.5391     4.7982   31 C   -1-1 2

  40 O    1     1.3795     2.6068    6 B    0 0 0
  40 O    1     1.3795     2.6068    4 B    0 0 0
  40 O    1     2.3880     4.5126   42 O    0 0 0
  40 O    1     2.3884     4.5134   41 O    0 0 0
  40 O    1     2.5400     4.7998   24 C    0 0 0
  40 O    1     2.5403     4.8005   30 C    0 0 1

  41 O    1     1.3795     2.6069    5 B    0 0 0
  41 O    1     1.3795     2.6070    4 B    0 0 0
  41 O    1     2.3881     4.5128   42 O    0 0 0
  41 O    1     2.3884     4.5134   40 O    0 0 0
  41 O    1     2.5404     4.8006   24 C    0 0 0
  41 O    1     2.5405     4.8008   36 C    0 0 0

  42 O    1     1.3796     2.6071    6 B    0 0 0
  42 O    1     1.3797     2.6072    5 B    0 0 0
  42 O    1     2.3880     4.5126   40 O    0 0 0
  42 O    1     2.3881     4.5128   41 O    0 0 0
  42 O    1     2.5409     4.8016   36 C    0 0 0
  42 O    1     2.5410     4.8019   30 C    0 0 1


 SYMMETRY ALLOWED INTERNAL DEGREE(S) OF FREEDOM: 123
 TTTTTTTTTTTTTTTTTTTTTTTTTTTTTT SYMM        TELAPSE        0.42 TCPU        0.42
 TTTTTTTTTTTTTTTTTTTTTTTTTTTTTT INT_SCREEN  TELAPSE        0.46 TCPU        0.45

 DFT PARAMETERS

     ATOM       ELECTRONS   NET CHARGE   R(ANGSTROM)
   1   5  B       5.0000      0.0000     0.89000000
   7   1  H       1.0000      0.0000     1.11000000
  19   6  C       6.0000      0.0000     0.77000000
  37   8  O       8.0000      0.0000     0.74000000

 SIZE OF GRID=    1279550
 TTTTTTTTTTTTTTTTTTTTTTTTTTTTTT MAKE_GRID2  TELAPSE       10.20 TCPU       10.19
 BECKE WEIGHT FUNCTION
 RADSAFE =     2.00
 TOLERANCES - DENSITY:10**- 6; POTENTIAL:10**- 9; GRID WGT:10**-14

 RADIAL INTEGRATION  - INTERVALS (POINTS,UPPER LIMIT):            1( 75,  4.0*R)

 ANGULAR INTEGRATION - INTERVALS (ACCURACY LEVEL [N. POINTS] UPPER LIMIT):
  1(  4[  86]   0.2)  2(  8[ 194]   0.5)  3( 12[ 350]   0.9)  4( 16[ 974]   3.5)
  5( 12[ 350]9999.0)
 TTTTTTTTTTTTTTTTTTTTTTTTTTTTTT INT_CALC    TELAPSE       10.28 TCPU       10.27
 EEEEEEEEEE INT_CALC TERMINATION  DATE 19 02 2026 TIME 18:17:59.5

 *******************************************************************************
 cof-1_z34_L060_incl                                                             
 CRYSTAL - SCF - TYPE OF CALCULATION :  RESTRICTED CLOSED SHELL
 *******************************************************************************

 CAPPA:IS1  2;IS2  2;IS3  8; K PTS MONK NET  20; SYMMOPS:K SPACE   2;G SPACE   1

 TTTTTTTTTTTTTTTTTTTTTTTTTTTTTT SDIK        TELAPSE       10.87 TCPU       18.40

 AAAAAAAAAAAAAAAAAAAAAAAAAAAAAAAAAAAAAAAAAAAAAAAAAAAAAAAAAAAAAAAAAAAAAAAAAAAAAAA
         ATOMIC WAVEFUNCTION(S)


 NUCLEAR CHARGE  5.0  SYMMETRY SPECIES            S    P
 N. ELECTRONS    5.0  NUMBER OF PRIMITIVE GTOS    8    4
                      NUMBER OF CONTRACTED GTOS   4    2
                      NUMBER OF CLOSED SHELLS     2    0
                      OPEN SHELL OCCUPATION       0    1

  ZNUC  SCFIT    TOTAL HF ENERGY   KINETIC ENERGY   VIRIAL THEOREM ACCURACY
   5.0    11    -2.451164084E+01  2.462155050E+01 -1.995536038E+00  1.5E-06

 NUCLEAR CHARGE  1.0  SYMMETRY SPECIES            S
 N. ELECTRONS    1.0  NUMBER OF PRIMITIVE GTOS    4
                      NUMBER OF CONTRACTED GTOS   2
                      NUMBER OF CLOSED SHELLS     0
                      OPEN SHELL OCCUPATION       1

  ZNUC  SCFIT    TOTAL HF ENERGY   KINETIC ENERGY   VIRIAL THEOREM ACCURACY
   1.0     1    -4.977266687E-01  5.190767460E-01 -1.958869132E+00  0.0E+00

 NUCLEAR CHARGE  6.0  SYMMETRY SPECIES            S    P
 N. ELECTRONS    6.0  NUMBER OF PRIMITIVE GTOS    8    4
                      NUMBER OF CONTRACTED GTOS   4    2
                      NUMBER OF CLOSED SHELLS     2    0
                      OPEN SHELL OCCUPATION       0    2

  ZNUC  SCFIT    TOTAL HF ENERGY   KINETIC ENERGY   VIRIAL THEOREM ACCURACY
   6.0     9    -3.766704647E+01  3.775180683E+01 -1.997754800E+00  1.1E-06

 NUCLEAR CHARGE  8.0  SYMMETRY SPECIES            S    P
 N. ELECTRONS    8.0  NUMBER OF PRIMITIVE GTOS    8    4
                      NUMBER OF CONTRACTED GTOS   4    2
                      NUMBER OF CLOSED SHELLS     2    0
                      OPEN SHELL OCCUPATION       0    4

  ZNUC  SCFIT    TOTAL HF ENERGY   KINETIC ENERGY   VIRIAL THEOREM ACCURACY
   8.0    12    -7.477373220E+01  7.477365593E+01 -2.000001020E+00  3.8E-06

 AAAAAAAAAAAAAAAAAAAAAAAAAAAAAAAAAAAAAAAAAAAAAAAAAAAAAAAAAAAAAAAAAAAAAAAAAAAAAAA

 CHARGE NORMALIZATION FACTOR   1.00000000
 TOTAL ATOMIC CHARGES:
   5.0000000   5.0000000   5.0000000   5.0000000   5.0000000   5.0000000
   1.0000000   1.0000000   1.0000000   1.0000000   1.0000000   1.0000000
   1.0000000   1.0000000   1.0000000   1.0000000   1.0000000   1.0000000
   6.0000000   6.0000000   6.0000000   6.0000000   6.0000000   6.0000000
   6.0000000   6.0000000   6.0000000   6.0000000   6.0000000   6.0000000
   6.0000000   6.0000000   6.0000000   6.0000000   6.0000000   6.0000000
   8.0000000   8.0000000   8.0000000   8.0000000   8.0000000   8.0000000
 TTTTTTTTTTTTTTTTTTTTTTTTTTTTTT MOQGAD      TELAPSE       10.92 TCPU       19.92
 TTTTTTTTTTTTTTTTTTTTTTTTTTTTTT SHELLXN     TELAPSE       19.46 TCPU      292.93
 TTTTTTTTTTTTTTTTTTTTTTTTTTTTTT MONMO3      TELAPSE       19.62 TCPU      297.99
 NUMERICALLY INTEGRATED DENSITY    197.9999787353
 TTTTTTTTTTTTTTTTTTTTTTTTTTTTTT NUMDFT      TELAPSE       20.28 TCPU      319.28
 CYC   0 ETOT(AU) -1.295973945098E+03 DETOT -1.30E+03 tst  0.00E+00 PX  1.00E+00
 TTTTTTTTTTTTTTTTTTTTTTTTTTTTTT DIIS        TELAPSE       20.32 TCPU      320.45
 TTTTTTTTTTTTTTTTTTTTTTTTTTTTTT FDIK        TELAPSE       20.80 TCPU      335.82
 INSULATING STATE
 TOP OF VALENCE BANDS -    BAND     99; K    1; EIG -3.0666119E-01 AU
 BOTTOM OF VIRTUAL BANDS - BAND    100; K   17; EIG -1.6593496E-01 AU
 INDIRECT ENERGY BAND GAP:   3.8294 eV
 BOTTOM OF VIRTUAL BANDS - BAND    100; K    1; EIG -1.5676883E-01 AU
 TTTTTTTTTTTTTTTTTTTTTTTTTTTTTT PDIG        TELAPSE       21.13 TCPU      342.01
 CHARGE NORMALIZATION FACTOR   1.00000000
 TOTAL ATOMIC CHARGES:
   4.1423971   4.1620913   4.1625762   4.1616314   4.1612723   4.1413602
   0.7855412   0.7856985   0.7845908   0.7846729   0.7859862   0.7862612
   0.7859698   0.7861808   0.7845670   0.7847460   0.7854862   0.7856923
   6.0456575   6.2680360   6.2680850   6.2666327   6.2668223   6.0450632
   6.0466643   6.2610263   6.2611798   6.2609712   6.2611238   6.0455497
   6.0460625   6.2663740   6.2671847   6.2676211   6.2683744   6.0446538
   8.6974882   8.6978263   8.6969229   8.6981399   8.6973919   8.6984269
 TTTTTTTTTTTTTTTTTTTTTTTTTTTTTT MOQGAD      TELAPSE       21.18 TCPU      342.05
 TTTTTTTTTTTTTTTTTTTTTTTTTTTTTT SHELLXN     TELAPSE       30.07 TCPU      625.59
 TTTTTTTTTTTTTTTTTTTTTTTTTTTTTT MONMO3      TELAPSE       30.23 TCPU      630.59
 NUMERICALLY INTEGRATED DENSITY    197.9999872492
 TTTTTTTTTTTTTTTTTTTTTTTTTTTTTT NUMDFT      TELAPSE       30.90 TCPU      652.14
 CYC   1 ETOT(AU) -1.288824485886E+03 DETOT  7.15E+00 tst  0.00E+00 PX  1.00E+00
 TTTTTTTTTTTTTTTTTTTTTTTTTTTTTT DIIS        TELAPSE       30.95 TCPU      653.58
 DIIS TEST: 0.10985E+01 AT SCF   CYCLE   1 - MIX   30 %
 TTTTTTTTTTTTTTTTTTTTTTTTTTTTTT FDIK        TELAPSE       31.43 TCPU      669.07
 INSULATING STATE
 TOP OF VALENCE BANDS -    BAND     99; K    1; EIG -2.1933365E-01 AU
 BOTTOM OF VIRTUAL BANDS - BAND    100; K   17; EIG -9.3110681E-02 AU
 INDIRECT ENERGY BAND GAP:   3.4347 eV
 BOTTOM OF VIRTUAL BANDS - BAND    100; K    1; EIG -7.8473518E-02 AU
 TTTTTTTTTTTTTTTTTTTTTTTTTTTTTT PDIG        TELAPSE       31.77 TCPU      675.26
 CHARGE NORMALIZATION FACTOR   1.00000000
 TOTAL ATOMIC CHARGES:
   4.6959301   4.6952419   4.6959050   4.6950333   4.6948265   4.6958563
   0.9076077   0.9077628   0.9124406   0.9123236   0.8961512   0.8962095
   0.8962904   0.8960654   0.9123184   0.9124166   0.9076828   0.9077031
   5.8675066   6.1490076   6.1499483   6.1344047   6.1346067   5.8700195
   5.9027345   6.1305850   6.1312648   6.1309993   6.1309204   5.9064398
   5.8673608   6.1341976   6.1348676   6.1494799   6.1492972   5.8700405
   8.3393955   8.3396861   8.3305722   8.3395086   8.3298523   8.3395393
 TTTTTTTTTTTTTTTTTTTTTTTTTTTTTT MOQGAD      TELAPSE       31.82 TCPU      675.31
 TTTTTTTTTTTTTTTTTTTTTTTTTTTTTT SHELLXN     TELAPSE       40.72 TCPU      959.18
 TTTTTTTTTTTTTTTTTTTTTTTTTTTTTT MONMO3      TELAPSE       40.88 TCPU      964.22
 NUMERICALLY INTEGRATED DENSITY    197.9999834713
 TTTTTTTTTTTTTTTTTTTTTTTTTTTTTT NUMDFT      TELAPSE       41.55 TCPU      985.81
 CYC   2 ETOT(AU) -1.289016806884E+03 DETOT -1.92E-01 tst  3.45E-03 PX  1.60E-01
 TTTTTTTTTTTTTTTTTTTTTTTTTTTTTT DIIS        TELAPSE       41.60 TCPU      987.34
 DIIS TEST: 0.45553E+00 AT SCF   CYCLE   2 - DIIS ACTIVE - HISTORY:     2 CYCLES
 TTTTTTTTTTTTTTTTTTTTTTTTTTTTTT FDIK        TELAPSE       42.09 TCPU     1002.88
 INSULATING STATE
 TOP OF VALENCE BANDS -    BAND     99; K    1; EIG -2.3078216E-01 AU
 BOTTOM OF VIRTUAL BANDS - BAND    100; K   17; EIG -8.7752774E-02 AU
 INDIRECT ENERGY BAND GAP:   3.8920 eV
 BOTTOM OF VIRTUAL BANDS - BAND    100; K    1; EIG -7.4783823E-02 AU
 TTTTTTTTTTTTTTTTTTTTTTTTTTTTTT PDIG        TELAPSE       42.42 TCPU     1009.08
 CHARGE NORMALIZATION FACTOR   1.00000000
 TOTAL ATOMIC CHARGES:
   4.4804157   4.4966232   4.4970537   4.4962171   4.4958451   4.4799389
   0.8868401   0.8871910   0.8902241   0.8900822   0.8773518   0.8776896
   0.8775135   0.8775007   0.8900374   0.8902107   0.8869805   0.8870228
   5.8967457   6.1639984   6.1638393   6.1600167   6.1600586   5.8969898
   5.8973967   6.1658445   6.1653367   6.1656564   6.1654854   5.8969622
   5.8967798   6.1600288   6.1601110   6.1636281   6.1641167   5.8969910
   8.5147347   8.5152411   8.5171948   8.5151700   8.5173962   8.5155390
 TTTTTTTTTTTTTTTTTTTTTTTTTTTTTT MOQGAD      TELAPSE       42.47 TCPU     1009.12
 TTTTTTTTTTTTTTTTTTTTTTTTTTTTTT SHELLXN     TELAPSE       51.32 TCPU     1291.19
 TTTTTTTTTTTTTTTTTTTTTTTTTTTTTT MONMO3      TELAPSE       51.47 TCPU     1296.26
 NUMERICALLY INTEGRATED DENSITY    197.9999833082
 TTTTTTTTTTTTTTTTTTTTTTTTTTTTTT NUMDFT      TELAPSE       52.15 TCPU     1317.78
 CYC   3 ETOT(AU) -1.289110638027E+03 DETOT -9.38E-02 tst  7.53E-04 PX  6.64E-02
 TTTTTTTTTTTTTTTTTTTTTTTTTTTTTT DIIS        TELAPSE       52.20 TCPU     1319.60
 DIIS TEST: 0.14405E-01 AT SCF   CYCLE   3 - DIIS ACTIVE - HISTORY:     3 CYCLES
 TTTTTTTTTTTTTTTTTTTTTTTTTTTTTT FDIK        TELAPSE       52.69 TCPU     1335.15
 INSULATING STATE
 TOP OF VALENCE BANDS -    BAND     99; K    1; EIG -2.4137353E-01 AU
 BOTTOM OF VIRTUAL BANDS - BAND    100; K   17; EIG -9.6495139E-02 AU
 INDIRECT ENERGY BAND GAP:   3.9423 eV
 BOTTOM OF VIRTUAL BANDS - BAND    100; K    1; EIG -8.2313489E-02 AU
 TTTTTTTTTTTTTTTTTTTTTTTTTTTTTT PDIG        TELAPSE       53.03 TCPU     1341.34
 CHARGE NORMALIZATION FACTOR   1.00000000
 TOTAL ATOMIC CHARGES:
   4.4877869   4.5005567   4.5010383   4.5001681   4.4998099   4.4873975
   0.8694073   0.8696045   0.8733180   0.8732612   0.8602076   0.8603210
   0.8603032   0.8602019   0.8732160   0.8733433   0.8694646   0.8695419
   5.9385733   6.1760314   6.1768088   6.1668308   6.1671885   5.9401907
   5.9609316   6.1663170   6.1669786   6.1666831   6.1665655   5.9632142
   5.9388034   6.1665181   6.1675264   6.1762732   6.1764385   5.9399642
   8.4839533   8.4841730   8.4764546   8.4842089   8.4761862   8.4842387
 TTTTTTTTTTTTTTTTTTTTTTTTTTTTTT MOQGAD      TELAPSE       53.08 TCPU     1341.39
 TTTTTTTTTTTTTTTTTTTTTTTTTTTTTT SHELLXN     TELAPSE       61.96 TCPU     1624.83
 TTTTTTTTTTTTTTTTTTTTTTTTTTTTTT MONMO3      TELAPSE       62.12 TCPU     1629.89
 NUMERICALLY INTEGRATED DENSITY    197.9999837222
 TTTTTTTTTTTTTTTTTTTTTTTTTTTTTT NUMDFT      TELAPSE       62.80 TCPU     1651.51
 CYC   4 ETOT(AU) -1.289113712775E+03 DETOT -3.07E-03 tst  3.02E-05 PX  1.46E-02
 TTTTTTTTTTTTTTTTTTTTTTTTTTTTTT DIIS        TELAPSE       62.86 TCPU     1653.36
 DIIS TEST: 0.40629E-02 AT SCF   CYCLE   4 - DIIS ACTIVE - HISTORY:     4 CYCLES
 TTTTTTTTTTTTTTTTTTTTTTTTTTTTTT FDIK        TELAPSE       63.34 TCPU     1668.91
 INSULATING STATE
 TOP OF VALENCE BANDS -    BAND     99; K    1; EIG -2.3935698E-01 AU
 BOTTOM OF VIRTUAL BANDS - BAND    100; K   17; EIG -9.6150299E-02 AU
 INDIRECT ENERGY BAND GAP:   3.8969 eV
 BOTTOM OF VIRTUAL BANDS - BAND    100; K    1; EIG -8.2280260E-02 AU
 TTTTTTTTTTTTTTTTTTTTTTTTTTTTTT PDIG        TELAPSE       63.68 TCPU     1675.11
 CHARGE NORMALIZATION FACTOR   1.00000000
 TOTAL ATOMIC CHARGES:
   4.4912680   4.5022615   4.5027702   4.5019487   4.5015985   4.4909261
   0.8725935   0.8728836   0.8764772   0.8764134   0.8628923   0.8631695
   0.8630486   0.8629949   0.8763244   0.8765316   0.8727113   0.8727592
   5.9236226   6.1743611   6.1744946   6.1667709   6.1667338   5.9240842
   5.9380206   6.1688540   6.1684243   6.1687098   6.1685381   5.9385369
   5.9235458   6.1666813   6.1668741   6.1741445   6.1745888   5.9241328
   8.4919557   8.4924126   8.4900796   8.4922956   8.4899756   8.4925903
 TTTTTTTTTTTTTTTTTTTTTTTTTTTTTT MOQGAD      TELAPSE       63.73 TCPU     1675.15
 TTTTTTTTTTTTTTTTTTTTTTTTTTTTTT SHELLXN     TELAPSE       72.62 TCPU     1958.75
 TTTTTTTTTTTTTTTTTTTTTTTTTTTTTT MONMO3      TELAPSE       72.77 TCPU     1963.73
 NUMERICALLY INTEGRATED DENSITY    197.9999837035
 TTTTTTTTTTTTTTTTTTTTTTTTTTTTTT NUMDFT      TELAPSE       73.45 TCPU     1985.28
 CYC   5 ETOT(AU) -1.289114645541E+03 DETOT -9.33E-04 tst  6.24E-06 PX  6.86E-03
 TTTTTTTTTTTTTTTTTTTTTTTTTTTTTT DIIS        TELAPSE       73.52 TCPU     1987.54
 DIIS TEST: 0.61383E-04 AT SCF   CYCLE   5 - DIIS ACTIVE - HISTORY:     5 CYCLES
 TTTTTTTTTTTTTTTTTTTTTTTTTTTTTT FDIK        TELAPSE       74.01 TCPU     2003.17
 INSULATING STATE
 TOP OF VALENCE BANDS -    BAND     99; K    1; EIG -2.3917748E-01 AU
 BOTTOM OF VIRTUAL BANDS - BAND    100; K   17; EIG -9.5588823E-02 AU
 INDIRECT ENERGY BAND GAP:   3.9072 eV
 BOTTOM OF VIRTUAL BANDS - BAND    100; K    1; EIG -8.1903440E-02 AU
 TTTTTTTTTTTTTTTTTTTTTTTTTTTTTT PDIG        TELAPSE       74.35 TCPU     2009.36
 CHARGE NORMALIZATION FACTOR   1.00000000
 TOTAL ATOMIC CHARGES:
   4.4899764   4.5027331   4.5032219   4.5023285   4.5019765   4.4895454
   0.8734739   0.8737013   0.8772243   0.8771135   0.8639473   0.8640593
   0.8640352   0.8639545   0.8770913   0.8772105   0.8735387   0.8736265
   5.9231294   6.1736707   6.1742749   6.1659491   6.1664619   5.9247079
   5.9366883   6.1679249   6.1686011   6.1683312   6.1681516   5.9384240
   5.9234388   6.1657507   6.1667023   6.1738372   6.1739922   5.9243946
   8.4925205   8.4927616   8.4879410   8.4928241   8.4878742   8.4928899
 TTTTTTTTTTTTTTTTTTTTTTTTTTTTTT MOQGAD      TELAPSE       74.39 TCPU     2009.40
 TTTTTTTTTTTTTTTTTTTTTTTTTTTTTT SHELLXN     TELAPSE       83.30 TCPU     2293.54
 TTTTTTTTTTTTTTTTTTTTTTTTTTTTTT MONMO3      TELAPSE       83.46 TCPU     2298.54
 NUMERICALLY INTEGRATED DENSITY    197.9999836681
 TTTTTTTTTTTTTTTTTTTTTTTTTTTTTT NUMDFT      TELAPSE       84.13 TCPU     2320.15
 CYC   6 ETOT(AU) -1.289114661183E+03 DETOT -1.56E-05 tst  1.29E-07 PX  1.16E-03
 TTTTTTTTTTTTTTTTTTTTTTTTTTTTTT DIIS        TELAPSE       84.20 TCPU     2322.36
 DIIS TEST: 0.86750E-05 AT SCF   CYCLE   6 - DIIS ACTIVE - HISTORY:     6 CYCLES
 TTTTTTTTTTTTTTTTTTTTTTTTTTTTTT FDIK        TELAPSE       84.69 TCPU     2337.96
 INSULATING STATE
 TOP OF VALENCE BANDS -    BAND     99; K    1; EIG -2.3918409E-01 AU
 BOTTOM OF VIRTUAL BANDS - BAND    100; K   17; EIG -9.5693583E-02 AU
 INDIRECT ENERGY BAND GAP:   3.9046 eV
 BOTTOM OF VIRTUAL BANDS - BAND    100; K    1; EIG -8.1911520E-02 AU
 TTTTTTTTTTTTTTTTTTTTTTTTTTTTTT PDIG        TELAPSE       85.03 TCPU     2344.16
 CHARGE NORMALIZATION FACTOR   1.00000000
 TOTAL ATOMIC CHARGES:
   4.4906369   4.5025262   4.5030144   4.5022065   4.5018579   4.4902808
   0.8734342   0.8737146   0.8772360   0.8771804   0.8637614   0.8640327
   0.8639228   0.8638530   0.8770930   0.8772877   0.8735478   0.8735923
   5.9235904   6.1736993   6.1738985   6.1662081   6.1661229   5.9240688
   5.9380267   6.1681681   6.1677785   6.1680027   6.1679065   5.9387036
   5.9234995   6.1660624   6.1663159   6.1735079   6.1739709   5.9241466
   8.4918533   8.4923027   8.4892295   8.4921939   8.4890855   8.4924791
 TTTTTTTTTTTTTTTTTTTTTTTTTTTTTT MOQGAD      TELAPSE       85.08 TCPU     2344.20
 TTTTTTTTTTTTTTTTTTTTTTTTTTTTTT SHELLXN     TELAPSE       93.98 TCPU     2628.08
 TTTTTTTTTTTTTTTTTTTTTTTTTTTTTT MONMO3      TELAPSE       94.14 TCPU     2633.18
 NUMERICALLY INTEGRATED DENSITY    197.9999836758
 TTTTTTTTTTTTTTTTTTTTTTTTTTTTTT NUMDFT      TELAPSE       94.81 TCPU     2654.67
 CYC   7 ETOT(AU) -1.289114662694E+03 DETOT -1.51E-06 tst  2.28E-08 PX  4.90E-04
 TTTTTTTTTTTTTTTTTTTTTTTTTTTTTT DIIS        TELAPSE       94.89 TCPU     2657.20
 DIIS TEST: 0.11931E-05 AT SCF   CYCLE   7 - DIIS ACTIVE - HISTORY:     7 CYCLES
 TTTTTTTTTTTTTTTTTTTTTTTTTTTTTT FDIK        TELAPSE       95.38 TCPU     2672.82
 INSULATING STATE
 TOP OF VALENCE BANDS -    BAND     99; K    1; EIG -2.3919137E-01 AU
 BOTTOM OF VIRTUAL BANDS - BAND    100; K   17; EIG -9.5707179E-02 AU
 INDIRECT ENERGY BAND GAP:   3.9044 eV
 BOTTOM OF VIRTUAL BANDS - BAND    100; K    1; EIG -8.1925771E-02 AU
 TTTTTTTTTTTTTTTTTTTTTTTTTTTTTT PDIG        TELAPSE       95.72 TCPU     2679.01
 CHARGE NORMALIZATION FACTOR   1.00000000
 TOTAL ATOMIC CHARGES:
   4.4906405   4.5026039   4.5031009   4.5022418   4.5018879   4.4902572
   0.8734104   0.8736706   0.8772270   0.8771296   0.8637785   0.8639662
   0.8638948   0.8638321   0.8770810   0.8772404   0.8735009   0.8735717
   5.9232701   6.1736997   6.1740770   6.1659898   6.1662812   5.9243637
   5.9375677   6.1679551   6.1681342   6.1681350   6.1679172   5.9387166
   5.9234275   6.1658616   6.1664551   6.1736917   6.1739660   5.9241928
   8.4921100   8.4924453   8.4888832   8.4924256   8.4888065   8.4925921
 TTTTTTTTTTTTTTTTTTTTTTTTTTTTTT MOQGAD      TELAPSE       95.77 TCPU     2679.06
 TTTTTTTTTTTTTTTTTTTTTTTTTTTTTT SHELLXN     TELAPSE      104.63 TCPU     2961.90
 TTTTTTTTTTTTTTTTTTTTTTTTTTTTTT MONMO3      TELAPSE      104.79 TCPU     2966.94
 NUMERICALLY INTEGRATED DENSITY    197.9999836715
 TTTTTTTTTTTTTTTTTTTTTTTTTTTTTT NUMDFT      TELAPSE      105.47 TCPU     2988.50
 CYC   8 ETOT(AU) -1.289114662860E+03 DETOT -1.66E-07 tst  3.04E-09 PX  1.25E-04
 TTTTTTTTTTTTTTTTTTTTTTTTTTTTTT DIIS        TELAPSE      105.55 TCPU     2991.16
 DIIS TEST: 0.87287E-07 AT SCF   CYCLE   8 - DIIS ACTIVE - HISTORY:     8 CYCLES
 TTTTTTTTTTTTTTTTTTTTTTTTTTTTTT FDIK        TELAPSE      106.04 TCPU     3006.79
 INSULATING STATE
 TOP OF VALENCE BANDS -    BAND     99; K    1; EIG -2.3919398E-01 AU
 BOTTOM OF VIRTUAL BANDS - BAND    100; K   17; EIG -9.5697918E-02 AU
 INDIRECT ENERGY BAND GAP:   3.9047 eV
 BOTTOM OF VIRTUAL BANDS - BAND    100; K    1; EIG -8.1925739E-02 AU
 TTTTTTTTTTTTTTTTTTTTTTTTTTTTTT PDIG        TELAPSE      106.37 TCPU     3012.98
 CHARGE NORMALIZATION FACTOR   1.00000000
 TOTAL ATOMIC CHARGES:
   4.4905842   4.5026013   4.5030916   4.5022533   4.5019045   4.4902061
   0.8734053   0.8736693   0.8772044   0.8771333   0.8637596   0.8639825
   0.8638999   0.8638243   0.8770656   0.8772365   0.8735040   0.8735618
   5.9234337   6.1737117   6.1740336   6.1661197   6.1662133   5.9242402
   5.9375848   6.1681192   6.1680487   6.1681174   6.1680122   5.9385908
   5.9234541   6.1659522   6.1664269   6.1736283   6.1739984   5.9242074
   8.4920715   8.4924605   8.4888911   8.4924016   8.4887726   8.4926227
 TTTTTTTTTTTTTTTTTTTTTTTTTTTTTT MOQGAD      TELAPSE      106.43 TCPU     3013.03
 TTTTTTTTTTTTTTTTTTTTTTTTTTTTTT SHELLXN     TELAPSE      115.29 TCPU     3295.70
 +++ ENERGIES IN A.U. +++
 ::: EXT EL-POLE                                  -1.5299052346542E+03
 ::: EXT EL-SPHEROPOLE                             1.6853493903094E+01
 ::: BIELET ZONE E-E                               2.1916622583823E+03
 ::: TOTAL E-E                                     6.7861051763116E+02
 ::: TOTAL E-N + N-E                              -3.1819048272807E+03
 ::: TOTAL N-N                                     6.7958973108959E+01
 ::: KINETIC ENERGY                                1.2799414540899E+03
 ::: PSEUDO TOTAL   ENERGY                        -1.1553938824507E+03
 ::: VIRIAL COEFFICIENT                            1.0511418570455E+00
 TTTTTTTTTTTTTTTTTTTTTTTTTTTTTT MONMO3      TELAPSE      115.45 TCPU     3300.68
 NUMERICALLY INTEGRATED DENSITY    197.9999836716
 EXCHANGE ENERGY: -0.126022742500E+03  CORRELATION ENERGY: -0.769803794751E+01
 TTTTTTTTTTTTTTTTTTTTTTTTTTTTTT NUMDFT      TELAPSE      116.12 TCPU     3322.21
 CYC   9 ETOT(AU) -1.289114662898E+03 DETOT -3.81E-08 tst  6.42E-10 PX  1.25E-04

 == SCF ENDED - CONVERGENCE ON ENERGY      E(AU) -1.2891146628978E+03 CYCLES   9


 ENERGY EXPRESSION=HARTREE+FOCK EXCH*0.00000+(HSESOL     EXCH)*1.00000+PBESOL     CORR


 TOTAL ENERGY(DFT)(AU)(  9) -1.2891146628978E+03 DE-3.8E-08 tester 6.4E-10
 TTTTTTTTTTTTTTTTTTTTTTTTTTTTTT EDFT        TELAPSE      116.12 TCPU     3322.22
 
 INFORMATION **** DFTD3 ENERGY **** CALCULATE DFTD3 ENERGY

           DFT-D V3(BJ)
 DF                                         hsesol3c  
 parameters
 s6       :    1.0000
 s8       :    0.0000
 a1       :    0.5196
 a2       :    4.9385
 k1 k3    :   16.0000   -4.0000
 Cutoff   :   50.2022
 CN-Cutoff:   21.1671
 ABC-Cutoff:   21.1671
 
 Edisp /kcal,au:   -27.3440 -0.04357540

 E6    /kcal :   -29.0365
 E8    /kcal :     0.0000
 E6(ABC) "   :   1.692477
 
 INFORMATION **** DFTD3 ENERGY **** NORMAL TERMINATION OF DFTD3 MODULE

 GCP ENERGY CALCULATION
  level        hsesol3c            basis:hsesol3c
  Nbf            474
  Atoms           42

  Parameters: 
  sigma     1.0000
  eta       1.4281
  alpha     0.2936
  beta      1.9467

  dmp_scal      4.0000
  dmp_exp       6.0000
 cutoffs: 
   distance [bohr] 60.0
   noise    [a.u.] 2.2E-16
 SR-damping   T
 ** gCP correction **
  Egcp:        0.0834490474 / (a.u.) ||      52.3651 / (kcal/mol)
 INFORMATION **** GCP **** NORMAL TERMINATION OF GCP MODULE

 *******************************************************************************

 DFT-D3-GCP DISPERSION AND COUNTERPOISE CORRECTION

 D3 DISPERSION ENERGY (AU)      -4.3575399117813E-02
 GCP ENERGY (AU)                 8.3449047370540E-02
 TOTAL ENERGY + DISP + GCP (AU) -1.2890747892496E+03

 *******************************************************************************

 EIGENVECTORS IN FORTRAN UNIT 10
 TTTTTTTTTTTTTTTTTTTTTTTTTTTTTT END         TELAPSE      117.87 TCPU     3329.94
 EEEEEEEEEE TERMINATION  DATE 19 02 2026 TIME 18:19:47.1
