 Default number of threads is:           32

         
 *******************************************************************************
 *                                                                             *
 *                               CRYSTAL23                                     *
 *                      public : 1.0.1 - October 2022                          *
 *                       HTTP://WWW.CRYSTAL.UNITO.IT                           *
 *                                                                             *
 *                              MAIN AUTHORS                                   *
 *                                                                             *
 *  R. DOVESI(1,11), V.R. SAUNDERS(2), C. ROETTI(1,11), R. ORLANDO(1,11),      *
 *  C.M. ZICOVICH-WILSON(1,3), F. PASCALE(4), B. CIVALLERI(1,11),              *
 *  K. DOLL(5), N.M. HARRISON(6), I.J. BUSH(7), Ph. D'ARCO(8),                 *
 *  M. LLUNELL(9), M. CAUSA'(10), Y. NOEL(8), L. MASCHIO(1,11), A. ERBA(1,11)  *
 *  M. RE'RAT(14), S. CASASSA(1,11), B.G. SEARLE(2), J.K. DESMARAIS(1)         *
 *                                                                             *
 *        CONTRIBUTIONS TO THE CODE HAVE ALSO BEEN GIVEN BY                    *
 *                                                                             *
 *  M. FERRABONE(1,11), M. DE LA PIERRE(1,11), M. FERRERO(1,11),               *
 *  J. BAIMA(1,11), E. ALBANESE(1,11), M.F. PEINTINGER(12), R. BAST(13),       *
 *  B. KIRTMAN(15), V. LACIVITA(1,11), R. DEMICHELIS(1,16)                     *
 *  G. BRANDEBURG(17), S. SALUSTRO(1,11), G. SANSONE(1,11)                     *
 *  M.T. RUGGIERO(18), L.E. DAGA(1), L. DONA'(1), A. COSSARD(1)                *
 *                                                                             *
 * (1) THEORETICAL CHEMISTRY GROUP - UNIVERSITA' DI TORINO - TORINO (ITALY)    *
 * (2) SCIENTIFIC COMPUTING DEPARTMENT - STFC DARESBURY (UK)                   *
 * (3) UNIVERSIDAD AUTONOMA DEL ESTADO DE MORELOS - CUERNAVACA (MEXICO)        *
 * (4) UNIVERSITE' DE LORRAINE - NANCY (FRANCE)                                *
 * (5) UNIVERSITAET STUTTGART- STUTTGART (GERMANY)                             *
 * (6) IMPERIAL COLLEGE - LONDON (UK)                                          *
 * (7) SCIENTIFIC COMPUTING DEPARTMENT - STFC RAL (UK)                         *
 * (8) UPMC - SORBONNE UNIVERSITES - PARIS (FRANCE)                            *
 * (9) UNIVERSIDAD DE BARCELONA - BARCELONA (SPAIN)                            *
 *(10) UNIVERSITA' DI NAPOLI "FEDERICO II" - NAPOLI (ITALY)                    *
 *(11) NIS - NANOSTRUCTURED INTERFACES AND SURFACES - TORINO (ITALY)           *
 *(12) MPI FUER CHEMISCHE ENERGIEKONVERSION - MUELHEIM AN DER RUHR (GERMANY)   *
 *(13) UNIVERSITY OF TROMSO - TROMSO (NORWAY)                                  *
 *(14) UNIVERSITE' DE PAU ET DES PAYS DE L'ADOUR - PAU (FRANCE)                *
 *(15) UNIVERSITY OF CALIFORNIA SANTA BARBARA - SANTA BARBARA (USA)            *
 *(16) CURTIN UNIVERSITY - PERTH (AUSTRALIA)                                   *
 *(17) UNIVERSITY COLLEGE LONDON - LONDON (UK)                                 *
 *(18) UNIVERSITY OF VERMONT - BURLINGTON (USA)                                *
 *                                                                             *
 *******************************************************************************
 EEEEEEEEEE STARTING  DATE 19 02 2026 TIME 20:16:28.1
 cof-1_z37_L080_serr                                                             

 CRYSTAL CALCULATION
 (INPUT ACCORDING TO THE INTERNATIONAL TABLES FOR X-RAY CRYSTALLOGRAPHY)
 CRYSTAL FAMILY                       :  TRICLINIC   
 CRYSTAL CLASS  (GROTH - 1921)        :  TRICLINIC PEDIAL                     

 SPACE GROUP (NONCENTROSYMMETRIC)     :  P 1             

 LATTICE PARAMETERS  (ANGSTROMS AND DEGREES) - CONVENTIONAL CELL
        A           B           C        ALPHA        BETA       GAMMA
    15.02361    15.02392     7.40000    90.00032    89.99994   119.99596


 NUMBER OF IRREDUCIBLE ATOMS IN THE CONVENTIONAL CELL:   84

 INPUT COORDINATES

 ATOM AT. N.              COORDINATES
   1   5     6.136805400000E-01  2.273182200000E-01  2.506455000000E-01
   2   5     9.210667600000E-01  8.421531600000E-01  7.506455000000E-01
   3   5     7.727362000000E-01  3.863778800000E-01  2.506455100000E-01
   4   5     8.012242000000E-02  1.212820000000E-03  7.506455100000E-01
   5   5     6.136762700000E-01  3.863606700000E-01  2.492883200000E-01
   6   5     9.210624900000E-01  1.195610000000E-03  7.492883200000E-01
   7   5     2.272552500000E-01  6.136332200000E-01  2.506455100000E-01
   8   5     5.346414700000E-01  2.284681600000E-01  7.506455100000E-01
   9   5     3.863632200000E-01  6.136124500000E-01  2.506455000000E-01
  10   5     6.937494400000E-01  2.284473900000E-01  7.506455000000E-01
  11   5     3.863435000000E-01  7.727516500000E-01  2.492883200000E-01
  12   5     6.937297200000E-01  3.875865900000E-01  7.492883200000E-01
  13   1     9.030436200000E-01  3.089300500000E-01  2.478317800000E-01
  14   1     2.104298400000E-01  9.237649900000E-01  7.478317800000E-01
  15   1     9.663453000000E-02  6.910534400000E-01  2.474015200000E-01
  16   1     4.040207500000E-01  3.058883800000E-01  7.474015200000E-01
  17   1     9.029714200000E-01  5.940724300000E-01  2.473353000000E-01
  18   1     2.103576400000E-01  2.089073700000E-01  7.473353000000E-01
  19   1     9.673618000000E-02  4.056849400000E-01  2.473518100000E-01
  20   1     4.041224000000E-01  2.051988000000E-02  7.473518100000E-01
  21   1     6.910324000000E-01  9.700412000000E-02  2.521682400000E-01
  22   1     9.984186200000E-01  7.118390600000E-01  7.521682300000E-01
  23   1     3.089297200000E-01  9.034373100000E-01  2.525985200000E-01
  24   1     6.163159400000E-01  5.182722500000E-01  7.525985300000E-01
  25   1     4.058699900000E-01  9.704998000000E-02  2.526647900000E-01
  26   1     7.132562100000E-01  7.118849200000E-01  7.526647900000E-01
  27   1     5.943122100000E-01  9.033473200000E-01  2.526481600000E-01
  28   1     9.016984300000E-01  5.181822600000E-01  7.526481600000E-01
  29   1     6.910727400000E-01  5.940542100000E-01  2.478318100000E-01
  30   1     9.984589600000E-01  2.088891500000E-01  7.478318100000E-01
  31   1     3.089618300000E-01  4.056093300000E-01  2.474014900000E-01
  32   1     6.163480500000E-01  2.044427000000E-02  7.474014900000E-01
  33   1     4.058405700000E-01  3.088232500000E-01  2.473352500000E-01
  34   1     7.132267900000E-01  9.236581900000E-01  7.473352500000E-01
  35   1     5.942908800000E-01  6.909579300000E-01  2.473518700000E-01
  36   1     9.016771000000E-01  3.057928700000E-01  7.473518700000E-01
  37   6     8.918903100000E-01  4.459436900000E-01  2.492386600000E-01
  38   6     1.992765300000E-01  6.077863000000E-02  7.492386600000E-01
  39   6     9.464891100000E-01  3.927856300000E-01  2.478980000000E-01
  40   6     2.538753300000E-01  7.620570000000E-03  7.478980000000E-01
  41   6     5.338812000000E-02  6.071853000000E-01  2.477821800000E-01
  42   6     3.607743400000E-01  2.220202400000E-01  7.477821800000E-01
  43   6     9.464521100000E-01  5.536921900000E-01  2.481297500000E-01
  44   6     2.538383300000E-01  1.685271300000E-01  7.481297600000E-01
  45   6     5.342634000000E-02  4.462499700000E-01  2.472359600000E-01
  46   6     3.608125600000E-01  6.108491000000E-02  7.472359600000E-01
  47   6     1.080358900000E-01  5.540356300000E-01  2.481462900000E-01
  48   6     4.154221100000E-01  1.688705700000E-01  7.481462900000E-01
  49   6     5.540394200000E-01  1.081684600000E-01  2.507613700000E-01
  50   6     8.614256400000E-01  7.230034000000E-01  7.507613700000E-01
  51   6     6.071778500000E-01  5.355594000000E-02  2.521020100000E-01
  52   6     9.145640700000E-01  6.683908800000E-01  7.521020100000E-01
  53   6     3.927986700000E-01  9.466631600000E-01  2.522178700000E-01
  54   6     7.001848900000E-01  5.614981000000E-01  7.522178700000E-01
  55   6     4.462875800000E-01  5.360286000000E-02  2.518703100000E-01
  56   6     7.536738000000E-01  6.684378000000E-01  7.518703100000E-01
  57   6     5.537168500000E-01  9.466235600000E-01  2.527640400000E-01
  58   6     8.611030700000E-01  5.614585000000E-01  7.527640400000E-01
  59   6     4.459279100000E-01  8.919920600000E-01  2.518537400000E-01
  60   6     7.533141300000E-01  5.068270000000E-01  7.518537400000E-01
  61   6     5.540448700000E-01  4.458745500000E-01  2.492386600000E-01
  62   6     8.614310900000E-01  6.070949000000E-02  7.492386600000E-01
  63   6     6.072102200000E-01  5.536257800000E-01  2.478980300000E-01
  64   6     9.145964400000E-01  1.684607200000E-01  7.478980300000E-01
  65   6     3.928233700000E-01  4.461720300000E-01  2.477821600000E-01
  66   6     7.002095900000E-01  6.100697000000E-02  7.477821600000E-01
  67   6     4.462872600000E-01  3.926899900000E-01  2.481297200000E-01
  68   6     7.536734800000E-01  7.524930000000E-03  7.481297200000E-01
  69   6     5.537429600000E-01  6.070980000000E-01  2.472359900000E-01
  70   6     8.611291800000E-01  2.219329400000E-01  7.472359900000E-01
  71   6     4.459599800000E-01  5.539582300000E-01  2.481462900000E-01
  72   6     7.533462000000E-01  1.687931700000E-01  7.481462900000E-01
  73   8     5.607366800000E-01  2.803706300000E-01  2.496524400000E-01
  74   8     8.681229000000E-01  8.952055700000E-01  7.496524400000E-01
  75   8     7.196817000000E-01  2.803783300000E-01  2.525157700000E-01
  76   8     2.706792000000E-02  8.952132700000E-01  7.525157700000E-01
  77   8     7.196794200000E-01  4.393234600000E-01  2.481959500000E-01
  78   8     2.706564000000E-02  5.415840000000E-02  7.481959500000E-01
  79   8     2.803245100000E-01  7.196511100000E-01  2.496524500000E-01
  80   8     5.877107300000E-01  3.344860500000E-01  7.496524500000E-01
  81   8     2.803439700000E-01  5.606956100000E-01  2.525157700000E-01
  82   8     5.877301900000E-01  1.755305500000E-01  7.525157700000E-01
  83   8     4.392638400000E-01  7.196354200000E-01  2.481959400000E-01
  84   8     7.466500600000E-01  3.344703600000E-01  7.481959400000E-01

 *******************************************************************************

 << INFORMATION >>: FROM NOW ON, ALL COORDINATES REFER TO THE PRIMITIVE CELL

 *******************************************************************************

 LATTICE PARAMETERS  (ANGSTROMS AND DEGREES) - PRIMITIVE CELL
       A          B          C        ALPHA      BETA     GAMMA        VOLUME
   15.02361   15.02392    7.40000    90.00032  89.99994 119.99596   1446.563455

 COORDINATES OF THE EQUIVALENT ATOMS (FRACTIONAL UNITS)

 N. ATOM EQUIV AT. N.          X                  Y                  Z

   1   1   1    5 B    -3.86319460000E-01  2.27318220000E-01  2.50645500000E-01

   2   2   1    5 B    -7.89332400000E-02 -1.57846840000E-01 -2.49354500000E-01

   3   3   1    5 B    -2.27263800000E-01  3.86377880000E-01  2.50645510000E-01

   4   4   1    5 B     8.01224200000E-02  1.21282000000E-03 -2.49354490000E-01

   5   5   1    5 B    -3.86323730000E-01  3.86360670000E-01  2.49288320000E-01

   6   6   1    5 B    -7.89375100000E-02  1.19561000000E-03 -2.50711680000E-01

   7   7   1    5 B     2.27255250000E-01 -3.86366780000E-01  2.50645510000E-01

   8   8   1    5 B    -4.65358530000E-01  2.28468160000E-01 -2.49354490000E-01

   9   9   1    5 B     3.86363220000E-01 -3.86387550000E-01  2.50645500000E-01

  10  10   1    5 B    -3.06250560000E-01  2.28447390000E-01 -2.49354500000E-01

  11  11   1    5 B     3.86343500000E-01 -2.27248350000E-01  2.49288320000E-01

  12  12   1    5 B    -3.06270280000E-01  3.87586590000E-01 -2.50711680000E-01

  13  13   1    1 H    -9.69563800000E-02  3.08930050000E-01  2.47831780000E-01

  14  14   1    1 H     2.10429840000E-01 -7.62350100000E-02 -2.52168220000E-01

  15  15   1    1 H     9.66345300000E-02 -3.08946560000E-01  2.47401520000E-01

  16  16   1    1 H     4.04020750000E-01  3.05888380000E-01 -2.52598480000E-01

  17  17   1    1 H    -9.70285800000E-02 -4.05927570000E-01  2.47335300000E-01

  18  18   1    1 H     2.10357640000E-01  2.08907370000E-01 -2.52664700000E-01

  19  19   1    1 H     9.67361800000E-02  4.05684940000E-01  2.47351810000E-01

  20  20   1    1 H     4.04122400000E-01  2.05198800000E-02 -2.52648190000E-01

  21  21   1    1 H    -3.08967600000E-01  9.70041200000E-02  2.52168240000E-01

  22  22   1    1 H    -1.58138000000E-03 -2.88160940000E-01 -2.47831770000E-01

  23  23   1    1 H     3.08929720000E-01 -9.65626900000E-02  2.52598520000E-01

  24  24   1    1 H    -3.83684060000E-01 -4.81727750000E-01 -2.47401470000E-01

  25  25   1    1 H     4.05869990000E-01  9.70499800000E-02  2.52664790000E-01

  26  26   1    1 H    -2.86743790000E-01 -2.88115080000E-01 -2.47335210000E-01

  27  27   1    1 H    -4.05687790000E-01 -9.66526800000E-02  2.52648160000E-01

  28  28   1    1 H    -9.83015700000E-02 -4.81817740000E-01 -2.47351840000E-01

  29  29   1    1 H    -3.08927260000E-01 -4.05945790000E-01  2.47831810000E-01

  30  30   1    1 H    -1.54104000000E-03  2.08889150000E-01 -2.52168190000E-01

  31  31   1    1 H     3.08961830000E-01  4.05609330000E-01  2.47401490000E-01

  32  32   1    1 H    -3.83651950000E-01  2.04442700000E-02 -2.52598510000E-01

  33  33   1    1 H     4.05840570000E-01  3.08823250000E-01  2.47335250000E-01

  34  34   1    1 H    -2.86773210000E-01 -7.63418100000E-02 -2.52664750000E-01

  35  35   1    1 H    -4.05709120000E-01 -3.09042070000E-01  2.47351870000E-01

  36  36   1    1 H    -9.83229000000E-02  3.05792870000E-01 -2.52648130000E-01

  37  37   1    6 C    -1.08109690000E-01  4.45943690000E-01  2.49238660000E-01

  38  38   1    6 C     1.99276530000E-01  6.07786300000E-02 -2.50761340000E-01

  39  39   1    6 C    -5.35108900000E-02  3.92785630000E-01  2.47898000000E-01

  40  40   1    6 C     2.53875330000E-01  7.62057000000E-03 -2.52102000000E-01

  41  41   1    6 C     5.33881200000E-02 -3.92814700000E-01  2.47782180000E-01

  42  42   1    6 C     3.60774340000E-01  2.22020240000E-01 -2.52217820000E-01

  43  43   1    6 C    -5.35478900000E-02 -4.46307810000E-01  2.48129750000E-01

  44  44   1    6 C     2.53838330000E-01  1.68527130000E-01 -2.51870240000E-01

  45  45   1    6 C     5.34263400000E-02  4.46249970000E-01  2.47235960000E-01

  46  46   1    6 C     3.60812560000E-01  6.10849100000E-02 -2.52764040000E-01

  47  47   1    6 C     1.08035890000E-01 -4.45964370000E-01  2.48146290000E-01

  48  48   1    6 C     4.15422110000E-01  1.68870570000E-01 -2.51853710000E-01

  49  49   1    6 C    -4.45960580000E-01  1.08168460000E-01  2.50761370000E-01

  50  50   1    6 C    -1.38574360000E-01 -2.76996600000E-01 -2.49238630000E-01

  51  51   1    6 C    -3.92822150000E-01  5.35559400000E-02  2.52102010000E-01

  52  52   1    6 C    -8.54359300000E-02 -3.31609120000E-01 -2.47897990000E-01

  53  53   1    6 C     3.92798670000E-01 -5.33368400000E-02  2.52217870000E-01

  54  54   1    6 C    -2.99815110000E-01 -4.38501900000E-01 -2.47782130000E-01

  55  55   1    6 C     4.46287580000E-01  5.36028600000E-02  2.51870310000E-01

  56  56   1    6 C    -2.46326200000E-01 -3.31562200000E-01 -2.48129690000E-01

  57  57   1    6 C    -4.46283150000E-01 -5.33764400000E-02  2.52764040000E-01

  58  58   1    6 C    -1.38896930000E-01 -4.38541500000E-01 -2.47235960000E-01

  59  59   1    6 C     4.45927910000E-01 -1.08007940000E-01  2.51853740000E-01

  60  60   1    6 C    -2.46685870000E-01 -4.93173000000E-01 -2.48146260000E-01

  61  61   1    6 C    -4.45955130000E-01  4.45874550000E-01  2.49238660000E-01

  62  62   1    6 C    -1.38568910000E-01  6.07094900000E-02 -2.50761340000E-01

  63  63   1    6 C    -3.92789780000E-01 -4.46374220000E-01  2.47898030000E-01

  64  64   1    6 C    -8.54035600000E-02  1.68460720000E-01 -2.52101970000E-01

  65  65   1    6 C     3.92823370000E-01  4.46172030000E-01  2.47782160000E-01

  66  66   1    6 C    -2.99790410000E-01  6.10069700000E-02 -2.52217840000E-01

  67  67   1    6 C     4.46287260000E-01  3.92689990000E-01  2.48129720000E-01

  68  68   1    6 C    -2.46326520000E-01  7.52493000000E-03 -2.51870280000E-01

  69  69   1    6 C    -4.46257040000E-01 -3.92902000000E-01  2.47235990000E-01

  70  70   1    6 C    -1.38870820000E-01  2.21932940000E-01 -2.52764010000E-01

  71  71   1    6 C     4.45959980000E-01 -4.46041770000E-01  2.48146290000E-01

  72  72   1    6 C    -2.46653800000E-01  1.68793170000E-01 -2.51853710000E-01

  73  73   1    8 O    -4.39263320000E-01  2.80370630000E-01  2.49652440000E-01

  74  74   1    8 O    -1.31877100000E-01 -1.04794430000E-01 -2.50347560000E-01

  75  75   1    8 O    -2.80318300000E-01  2.80378330000E-01  2.52515770000E-01

  76  76   1    8 O     2.70679200000E-02 -1.04786730000E-01 -2.47484230000E-01

  77  77   1    8 O    -2.80320580000E-01  4.39323460000E-01  2.48195950000E-01

  78  78   1    8 O     2.70656400000E-02  5.41584000000E-02 -2.51804050000E-01

  79  79   1    8 O     2.80324510000E-01 -2.80348890000E-01  2.49652450000E-01

  80  80   1    8 O    -4.12289270000E-01  3.34486050000E-01 -2.50347550000E-01

  81  81   1    8 O     2.80343970000E-01 -4.39304390000E-01  2.52515770000E-01

  82  82   1    8 O    -4.12269810000E-01  1.75530550000E-01 -2.47484230000E-01

  83  83   1    8 O     4.39263840000E-01 -2.80364580000E-01  2.48195940000E-01

  84  84   1    8 O    -2.53349940000E-01  3.34470360000E-01 -2.51804060000E-01

 NUMBER OF SYMMETRY OPERATORS         :    1
 *******************************************************************************
 * GEOMETRY EDITING - INPUT COORDINATES ARE GIVEN IN ANGSTROM         
 *******************************************************************************

 GCALCO - MAX INDICES DIRECT LATTICE VECTOR    12    12    21
 NO.OF VECTORS CREATED 6999 STARS 3500 RMAX   253.28002 BOHR

 GEOMETRY FOR WAVE FUNCTION - DIMENSIONALITY OF THE SYSTEM    3
 (NON PERIODIC DIRECTION: LATTICE PARAMETER FORMALLY SET TO 500)
 *******************************************************************************
 LATTICE PARAMETERS (ANGSTROMS AND DEGREES) - BOHR = 0.5291772083 ANGSTROM
 PRIMITIVE CELL - CENTRING CODE 1/0 VOLUME=  1446.563455 - DENSITY  0.896 g/cm^3
         A              B              C           ALPHA      BETA       GAMMA 
    15.02361100    15.02391600     7.40000000    90.000323  89.999944 119.995964
 *******************************************************************************
 ATOMS IN THE ASYMMETRIC UNIT   84 - ATOMS IN THE UNIT CELL:   84
     ATOM                 X/A                 Y/B                 Z/C    
 *******************************************************************************
      1 T   5 B    -3.863194600000E-01  2.273182200000E-01  2.506455000000E-01
      2 T   5 B    -7.893324000000E-02 -1.578468400000E-01 -2.493545000000E-01
      3 T   5 B    -2.272638000000E-01  3.863778800000E-01  2.506455100000E-01
      4 T   5 B     8.012242000000E-02  1.212820000000E-03 -2.493544900000E-01
      5 T   5 B    -3.863237300000E-01  3.863606700000E-01  2.492883200000E-01
      6 T   5 B    -7.893751000000E-02  1.195610000000E-03 -2.507116800000E-01
      7 T   5 B     2.272552500000E-01 -3.863667800000E-01  2.506455100000E-01
      8 T   5 B    -4.653585300000E-01  2.284681600000E-01 -2.493544900000E-01
      9 T   5 B     3.863632200000E-01 -3.863875500000E-01  2.506455000000E-01
     10 T   5 B    -3.062505600000E-01  2.284473900000E-01 -2.493545000000E-01
     11 T   5 B     3.863435000000E-01 -2.272483500000E-01  2.492883200000E-01
     12 T   5 B    -3.062702800000E-01  3.875865900000E-01 -2.507116800000E-01
     13 T   1 H    -9.695638000000E-02  3.089300500000E-01  2.478317800000E-01
     14 T   1 H     2.104298400000E-01 -7.623501000000E-02 -2.521682200000E-01
     15 T   1 H     9.663453000000E-02 -3.089465600000E-01  2.474015200000E-01
     16 T   1 H     4.040207500000E-01  3.058883800000E-01 -2.525984800000E-01
     17 T   1 H    -9.702858000000E-02 -4.059275700000E-01  2.473353000000E-01
     18 T   1 H     2.103576400000E-01  2.089073700000E-01 -2.526647000000E-01
     19 T   1 H     9.673618000000E-02  4.056849400000E-01  2.473518100000E-01
     20 T   1 H     4.041224000000E-01  2.051988000000E-02 -2.526481900000E-01
     21 T   1 H    -3.089676000000E-01  9.700412000000E-02  2.521682400000E-01
     22 T   1 H    -1.581380000000E-03 -2.881609400000E-01 -2.478317700000E-01
     23 T   1 H     3.089297200000E-01 -9.656269000000E-02  2.525985200000E-01
     24 T   1 H    -3.836840600000E-01 -4.817277500000E-01 -2.474014700000E-01
     25 T   1 H     4.058699900000E-01  9.704998000000E-02  2.526647900000E-01
     26 T   1 H    -2.867437900000E-01 -2.881150800000E-01 -2.473352100000E-01
     27 T   1 H    -4.056877900000E-01 -9.665268000000E-02  2.526481600000E-01
     28 T   1 H    -9.830157000000E-02 -4.818177400000E-01 -2.473518400000E-01
     29 T   1 H    -3.089272600000E-01 -4.059457900000E-01  2.478318100000E-01
     30 T   1 H    -1.541040000000E-03  2.088891500000E-01 -2.521681900000E-01
     31 T   1 H     3.089618300000E-01  4.056093300000E-01  2.474014900000E-01
     32 T   1 H    -3.836519500000E-01  2.044427000000E-02 -2.525985100000E-01
     33 T   1 H     4.058405700000E-01  3.088232500000E-01  2.473352500000E-01
     34 T   1 H    -2.867732100000E-01 -7.634181000000E-02 -2.526647500000E-01
     35 T   1 H    -4.057091200000E-01 -3.090420700000E-01  2.473518700000E-01
     36 T   1 H    -9.832290000000E-02  3.057928700000E-01 -2.526481300000E-01
     37 T   6 C    -1.081096900000E-01  4.459436900000E-01  2.492386600000E-01
     38 T   6 C     1.992765300000E-01  6.077863000000E-02 -2.507613400000E-01
     39 T   6 C    -5.351089000000E-02  3.927856300000E-01  2.478980000000E-01
     40 T   6 C     2.538753300000E-01  7.620570000000E-03 -2.521020000000E-01
     41 T   6 C     5.338812000000E-02 -3.928147000000E-01  2.477821800000E-01
     42 T   6 C     3.607743400000E-01  2.220202400000E-01 -2.522178200000E-01
     43 T   6 C    -5.354789000000E-02 -4.463078100000E-01  2.481297500000E-01
     44 T   6 C     2.538383300000E-01  1.685271300000E-01 -2.518702400000E-01
     45 T   6 C     5.342634000000E-02  4.462499700000E-01  2.472359600000E-01
     46 T   6 C     3.608125600000E-01  6.108491000000E-02 -2.527640400000E-01
     47 T   6 C     1.080358900000E-01 -4.459643700000E-01  2.481462900000E-01
     48 T   6 C     4.154221100000E-01  1.688705700000E-01 -2.518537100000E-01
     49 T   6 C    -4.459605800000E-01  1.081684600000E-01  2.507613700000E-01
     50 T   6 C    -1.385743600000E-01 -2.769966000000E-01 -2.492386300000E-01
     51 T   6 C    -3.928221500000E-01  5.355594000000E-02  2.521020100000E-01
     52 T   6 C    -8.543593000000E-02 -3.316091200000E-01 -2.478979900000E-01
     53 T   6 C     3.927986700000E-01 -5.333684000000E-02  2.522178700000E-01
     54 T   6 C    -2.998151100000E-01 -4.385019000000E-01 -2.477821300000E-01
     55 T   6 C     4.462875800000E-01  5.360286000000E-02  2.518703100000E-01
     56 T   6 C    -2.463262000000E-01 -3.315622000000E-01 -2.481296900000E-01
     57 T   6 C    -4.462831500000E-01 -5.337644000000E-02  2.527640400000E-01
     58 T   6 C    -1.388969300000E-01 -4.385415000000E-01 -2.472359600000E-01
     59 T   6 C     4.459279100000E-01 -1.080079400000E-01  2.518537400000E-01
     60 T   6 C    -2.466858700000E-01 -4.931730000000E-01 -2.481462600000E-01
     61 T   6 C    -4.459551300000E-01  4.458745500000E-01  2.492386600000E-01
     62 T   6 C    -1.385689100000E-01  6.070949000000E-02 -2.507613400000E-01
     63 T   6 C    -3.927897800000E-01 -4.463742200000E-01  2.478980300000E-01
     64 T   6 C    -8.540356000000E-02  1.684607200000E-01 -2.521019700000E-01
     65 T   6 C     3.928233700000E-01  4.461720300000E-01  2.477821600000E-01
     66 T   6 C    -2.997904100000E-01  6.100697000000E-02 -2.522178400000E-01
     67 T   6 C     4.462872600000E-01  3.926899900000E-01  2.481297200000E-01
     68 T   6 C    -2.463265200000E-01  7.524930000000E-03 -2.518702800000E-01
     69 T   6 C    -4.462570400000E-01 -3.929020000000E-01  2.472359900000E-01
     70 T   6 C    -1.388708200000E-01  2.219329400000E-01 -2.527640100000E-01
     71 T   6 C     4.459599800000E-01 -4.460417700000E-01  2.481462900000E-01
     72 T   6 C    -2.466538000000E-01  1.687931700000E-01 -2.518537100000E-01
     73 T   8 O    -4.392633200000E-01  2.803706300000E-01  2.496524400000E-01
     74 T   8 O    -1.318771000000E-01 -1.047944300000E-01 -2.503475600000E-01
     75 T   8 O    -2.803183000000E-01  2.803783300000E-01  2.525157700000E-01
     76 T   8 O     2.706792000000E-02 -1.047867300000E-01 -2.474842300000E-01
     77 T   8 O    -2.803205800000E-01  4.393234600000E-01  2.481959500000E-01
     78 T   8 O     2.706564000000E-02  5.415840000000E-02 -2.518040500000E-01
     79 T   8 O     2.803245100000E-01 -2.803488900000E-01  2.496524500000E-01
     80 T   8 O    -4.122892700000E-01  3.344860500000E-01 -2.503475500000E-01
     81 T   8 O     2.803439700000E-01 -4.393043900000E-01  2.525157700000E-01
     82 T   8 O    -4.122698100000E-01  1.755305500000E-01 -2.474842300000E-01
     83 T   8 O     4.392638400000E-01 -2.803645800000E-01  2.481959400000E-01
     84 T   8 O    -2.533499400000E-01  3.344703600000E-01 -2.518040600000E-01

 T = ATOM BELONGING TO THE ASYMMETRIC UNIT

 ****    1 SYMMOPS - TRANSLATORS IN FRACTIONAL UNITS
 **** MATRICES AND TRANSLATORS IN THE CRYSTALLOGRAPHIC REFERENCE FRAME
   V INV                    ROTATION MATRICES                   TRANSLATORS
   1   1  1.00 -0.00  0.00  0.00  1.00  0.00  0.00 -0.00  1.00  0.00  0.00  0.00

 DIRECT LATTICE VECTORS CARTESIAN COMPONENTS (ANGSTROM)
          X                    Y                    Z
   0.130113578931E+02  -0.751088897922E+01   0.000000000000E+00
   0.000000000000E+00   0.150239160000E+02   0.000000000000E+00
  -0.157301234647E-04  -0.417168597795E-04   0.739999999987E+01


 CARTESIAN COORDINATES - PRIMITIVE CELL
 *******************************************************************************
 *      ATOM          X(ANGSTROM)         Y(ANGSTROM)         Z(ANGSTROM)
 *******************************************************************************
    1     5 B    -5.026544697797E+00  6.316801960977E+00  1.854776699966E+00
    2     5 B    -1.027024712921E+00 -1.778608460329E+00 -1.845223299967E+00
    3     5 B    -2.957014580621E+00  7.511851528029E+00  1.854776773966E+00
    4     5 B     1.042505404255E+00 -5.835588932767E-01 -1.845223225967E+00
    5     5 B    -5.026600234947E+00 -6.317641501675E+00  1.844733567967E+00
    6     5 B    -1.027080250071E+00  6.108640770185E-01 -1.855266431966E+00
    7     5 B     2.956895448141E+00 -7.511641456748E+00  1.854776773966E+00
    8     5 B     6.956415433017E+00 -5.831358780542E-01 -1.845223225967E+00
    9     5 B     5.027106189449E+00  6.316920198138E+00  1.854776699966E+00
   10     5 B    -3.984731718732E+00  5.732398756049E+00 -1.845223299967E+00
   11     5 B     5.026849626820E+00 -6.315953657406E+00  1.844733567967E+00
   12     5 B    -3.984988281361E+00 -6.900475099496E+00 -1.855266431966E+00
   13     1 H    -1.261538058620E+00  5.369557388319E+00  1.833955171967E+00
   14     1 H     2.737981926256E+00 -2.725853032987E+00 -1.866044827966E+00
   15     1 H     1.257342563001E+00 -5.367408713132E+00  1.830771247967E+00
   16     1 H     5.256862547876E+00  1.561096865562E+00 -1.869228751966E+00
   17     1 H    -1.262477470850E+00 -5.369861139625E+00  1.830281219967E+00
   18     1 H     2.737042514026E+00  1.558644439069E+00 -1.869718779966E+00
   19     1 H     1.258665168313E+00  5.368391434031E+00  1.830403393967E+00
   20     1 H     5.258185153188E+00 -2.727018987275E+00 -1.869596605966E+00
   21     1 H    -4.020091987596E+00  3.777992572642E+00  1.866044975966E+00
   22     1 H    -2.057200272058E-02 -4.317417848664E+00 -1.833955097967E+00
   23     1 H     4.019591177316E+00 -3.771097110212E+00  1.869229047966E+00
   24     1 H    -4.992246730865E+00 -4.355618552302E+00 -1.830770877967E+00
   25     1 H     5.280915723493E+00 -1.590384227946E+00  1.869719445966E+00
   26     1 H    -3.730922184688E+00 -2.174905670035E+00 -1.830280553967E+00
   27     1 H    -5.278553002720E+00  1.594963665731E+00  1.869596383966E+00
   28     1 H    -1.279033017844E+00 -6.500446755575E+00 -1.830403615967E+00
   29     1 H    -4.019567041206E+00 -3.778587435765E+00  1.833955393967E+00
   30     1 H    -2.004705633075E-02  3.149918142929E+00 -1.866044605966E+00
   31     1 H     4.020009053768E+00  3.773252177977E+00  1.830771025967E+00
   32     1 H    -4.991828854413E+00  3.188730735888E+00 -1.869228973966E+00
   33     1 H     5.280533013178E+00  1.591500784265E+00  1.830280849967E+00
   34     1 H    -3.731304895003E+00  1.006979342176E+00 -1.869719149966E+00
   35     1 H    -5.278830451672E+00 -1.595796260714E+00  1.830403837967E+00
   36     1 H    -1.279310466797E+00  5.332709317980E+00 -1.869596161966E+00
   37     6 C    -1.406657788852E+00  7.511810021003E+00  1.844366083967E+00
   38     6 C     2.592862196023E+00 -5.836004003028E-01 -1.855633915966E+00
   39     6 C    -6.962532404321E-01  6.303082323570E+00  1.834445199967E+00
   40     6 C     3.303266744443E+00 -1.792328097736E+00 -1.865554799966E+00
   41     6 C     6.946480389132E-01 -6.302617635189E+00  1.833588131967E+00
   42     6 C     4.694168023789E+00  6.258879435052E-01 -1.866411867966E+00
   43     6 C    -6.967346643196E-01 -6.303109141917E+00  1.836160149967E+00
   44     6 C     3.302785320556E+00  6.253964367769E-01 -1.863839775966E+00
   45     6 C     6.951453416039E-01  6.303132442069E+00  1.829546103967E+00
   46     6 C     4.694665326480E+00 -1.792277979237E+00 -1.870453895966E+00
   47     6 C     1.405689726713E+00 -7.511587161318E+00  1.836282545967E+00
   48     6 C     5.405209711589E+00 -5.830815826238E-01 -1.863717453966E+00
   49     6 C     7.208801235974E+00 -2.536225177817E+00  1.855634137966E+00
   50     6 C    -1.803036672207E+00 -3.120746619907E+00 -1.844365861967E+00
   51     6 C    -5.111153547566E+00  3.755052984184E+00  1.865554873966E+00
   52     6 C    -1.111633562690E+00 -4.340357437122E+00 -1.834445125967E+00
   53     6 C     5.110840107868E+00 -3.751605927157E+00  1.866412237966E+00
   54     6 C    -3.900997800313E+00 -4.336127369246E+00 -1.833587761967E+00
   55     6 C     5.806803464655E+00 -2.546702107422E+00  1.863840293966E+00
   56     6 C    -3.205034443526E+00 -3.131223549511E+00 -1.836159705967E+00
   57     6 C    -5.806753762300E+00  2.550049497484E+00  1.870453895966E+00
   58     6 C    -1.807233777425E+00 -5.545360923822E+00 -1.829546103967E+00
   59     6 C     5.802123669822E+00 -4.972027749184E+00  1.863717675966E+00
   60     6 C    -3.209714238359E+00 -5.556549191274E+00 -1.836282323967E+00
   61     6 C     7.208872171827E+00  2.537401880209E+00  1.844366083967E+00
   62     6 C    -1.802965736354E+00  1.952880438120E+00 -1.855633915966E+00
   63     6 C    -5.110732303782E+00 -3.756098697622E+00  1.834445421967E+00
   64     6 C    -1.111212318906E+00  3.172406881072E+00 -1.865554577966E+00
   65     6 C     5.111161558183E+00  3.752788043064E+00  1.833587983967E+00
   66     6 C    -3.900676349998E+00  3.168266600975E+00 -1.866412015966E+00
   67     6 C     5.806799359860E+00  2.547717009909E+00  1.836159927967E+00
   68     6 C    -3.205038548321E+00  1.963195567820E+00 -1.863840071966E+00
   69     6 C    -5.806413948789E+00 -2.551149874507E+00  1.829546325967E+00
   70     6 C    -1.806893963913E+00  4.377355704187E+00 -1.870453673966E+00
   71     6 C     5.802541002389E+00  4.973055664191E+00  1.836282545967E+00
   72     6 C    -3.209296905792E+00  4.388534222101E+00 -1.863717453966E+00
   73     8 O     7.295941700181E+00  6.234292168210E-04  1.847428055966E+00
   74     8 O    -1.715896208000E+00 -5.838980128728E-01 -1.852571943966E+00
   75     8 O    -3.647325697377E+00  6.317809574118E+00  1.868616697966E+00
   76     8 O     3.521942874981E-01 -1.777600847188E+00 -1.831383301967E+00
   77     8 O    -3.647355295322E+00 -6.318110839117E+00  1.836650029967E+00
   78     8 O     3.521646895534E-01  6.103947395772E-01 -1.863349969966E+00
   79     8 O     3.647398598742E+00 -6.317434861533E+00  1.847428129966E+00
   80     8 O     7.646918583617E+00  6.110707171612E-01 -1.852571869966E+00
   81     8 O     3.647651754726E+00  6.318200777381E+00  1.868616697966E+00
   82     8 O     7.647171739602E+00 -1.777209643925E+00 -1.831383301967E+00
   83     8 O    -7.295942765491E+00 -5.572088583482E-04  1.836649955967E+00
   84     8 O    -3.296422780615E+00  6.927948369836E+00 -1.863350043966E+00

 *******************************************************************************
 STARTING BASIS SET HANDLING 
 *******************************************************************************

 Loading internal basis set: SOLDEF2MSVP         

 Please cite in your publication:
 L. Dona', J. G. Brandenburg and B. Civalleri, J. Chem. Phys., 151, 121101 (2019
 )                                                                              
                                                                                
                    

 *******************************************************************************
 LOCAL ATOMIC FUNCTIONS BASIS SET
 *******************************************************************************
   ATOM   X(AU)   Y(AU)   Z(AU)  N. TYPE  EXPONENT  S COEF   P COEF   D/F/G COEF
 *******************************************************************************
   1 B   -9.499  11.937   3.505
                                  1 S  
                                         2.410E+03 1.755E-03 0.000E+00 0.000E+00
                                         3.619E+02 1.344E-02 0.000E+00 0.000E+00
                                         8.231E+01 6.637E-02 0.000E+00 0.000E+00
                                         2.311E+01 2.303E-01 0.000E+00 0.000E+00
                                         7.252E+00 5.150E-01 0.000E+00 0.000E+00
                                  2 S  
                                         2.367E+00 1.000E+00 0.000E+00 0.000E+00
                                  3 S  
                                         5.533E-01 1.000E+00 0.000E+00 0.000E+00
                                  4 S  
                                         1.716E-01 1.000E+00 0.000E+00 0.000E+00
                           5-     7 P  
                                         6.002E+00 0.000E+00-3.555E-02 0.000E+00
                                         1.240E+00 0.000E+00-1.983E-01 0.000E+00
                                         3.367E-01 0.000E+00-5.048E-01 0.000E+00
                           8-    10 P  
                                         1.256E-01 0.000E+00 1.000E+00 0.000E+00
                          11-    15 D  
                                         8.880E-01 0.000E+00 0.000E+00 1.000E+00
   2 B   -1.941  -3.361  -3.487
   3 B   -5.588  14.195   3.505
   4 B    1.970  -1.103  -3.487
   5 B   -9.499 -11.939   3.486
   6 B   -1.941   1.154  -3.506
   7 B    5.588 -14.195   3.505
   8 B   13.146  -1.102  -3.487
   9 B    9.500  11.937   3.505
  10 B   -7.530  10.833  -3.487
  11 B    9.499 -11.935   3.486
  12 B   -7.531 -13.040  -3.506
  13 H   -2.384  10.147   3.466
                                181 S  
                                         1.874E+01 1.968E-02 0.000E+00 0.000E+00
                                         2.826E+00 1.380E-01 0.000E+00 0.000E+00
                                         6.401E-01 4.783E-01 0.000E+00 0.000E+00
                                182 S  
                                         1.756E-01 1.000E+00 0.000E+00 0.000E+00
  14 H    5.174  -5.151  -3.526
  15 H    2.376 -10.143   3.460
  16 H    9.934   2.950  -3.532
  17 H   -2.386 -10.148   3.459
  18 H    5.172   2.945  -3.533
  19 H    2.379  10.145   3.459
  20 H    9.937  -5.153  -3.533
  21 H   -7.597   7.139   3.526
  22 H   -0.039  -8.159  -3.466
  23 H    7.596  -7.126   3.532
  24 H   -9.434  -8.231  -3.460
  25 H    9.979  -3.005   3.533
  26 H   -7.050  -4.110  -3.459
  27 H   -9.975   3.014   3.533
  28 H   -2.417 -12.284  -3.459
  29 H   -7.596  -7.140   3.466
  30 H   -0.038   5.952  -3.526
  31 H    7.597   7.130   3.460
  32 H   -9.433   6.026  -3.532
  33 H    9.979   3.008   3.459
  34 H   -7.051   1.903  -3.533
  35 H   -9.976  -3.016   3.459
  36 H   -2.418  10.077  -3.533
  37 C   -2.658  14.195   3.485
                                229 S  
                                         3.624E+03 1.634E-03 0.000E+00 0.000E+00
                                         5.440E+02 1.252E-02 0.000E+00 0.000E+00
                                         1.237E+02 6.211E-02 0.000E+00 0.000E+00
                                         3.476E+01 2.182E-01 0.000E+00 0.000E+00
                                         1.093E+01 4.980E-01 0.000E+00 0.000E+00
                                230 S  
                                         3.574E+00 1.000E+00 0.000E+00 0.000E+00
                                231 S  
                                         7.742E-01 1.000E+00 0.000E+00 0.000E+00
                                232 S  
                                         2.330E-01 1.000E+00 0.000E+00 0.000E+00
                         233-   235 P  
                                         9.443E+00 0.000E+00 3.790E-02 0.000E+00
                                         2.002E+00 0.000E+00 2.082E-01 0.000E+00
                                         5.463E-01 0.000E+00 5.047E-01 0.000E+00
                         236-   238 P  
                                         1.820E-01 0.000E+00 1.000E+00 0.000E+00
                         239-   243 D  
                                         8.880E-01 0.000E+00 0.000E+00 1.000E+00
  38 C    4.900  -1.103  -3.507
  39 C   -1.316  11.911   3.467
  40 C    6.242  -3.387  -3.525
  41 C    1.313 -11.910   3.465
  42 C    8.871   1.183  -3.527
  43 C   -1.317 -11.911   3.470
  44 C    6.241   1.182  -3.522
  45 C    1.314  11.911   3.457
  46 C    8.872  -3.387  -3.535
  47 C    2.656 -14.195   3.470
  48 C   10.214  -1.102  -3.522
  49 C   13.623  -4.793   3.507
  50 C   -3.407  -5.897  -3.485
  51 C   -9.659   7.096   3.525
  52 C   -2.101  -8.202  -3.467
  53 C    9.658  -7.090   3.527
  54 C   -7.372  -8.194  -3.465
  55 C   10.973  -4.813   3.522
  56 C   -6.057  -5.917  -3.470
  57 C  -10.973   4.819   3.535
  58 C   -3.415 -10.479  -3.457
  59 C   10.964  -9.396   3.522
  60 C   -6.065 -10.500  -3.470
  61 C   13.623   4.795   3.485
  62 C   -3.407   3.690  -3.507
  63 C   -9.658  -7.098   3.467
  64 C   -2.100   5.995  -3.525
  65 C    9.659   7.092   3.465
  66 C   -7.371   5.987  -3.527
  67 C   10.973   4.814   3.470
  68 C   -6.057   3.710  -3.522
  69 C  -10.973  -4.821   3.457
  70 C   -3.415   8.272  -3.535
  71 C   10.965   9.398   3.470
  72 C   -6.065   8.293  -3.522
  73 O   13.787   0.001   3.491
                                769 S  
                                         6.773E+03 1.727E-03 0.000E+00 0.000E+00
                                         1.017E+03 1.325E-02 0.000E+00 0.000E+00
                                         2.313E+02 6.603E-02 0.000E+00 0.000E+00
                                         6.501E+01 2.353E-01 0.000E+00 0.000E+00
                                         2.050E+01 5.498E-01 0.000E+00 0.000E+00
                                770 S  
                                         6.716E+00 1.000E+00 0.000E+00 0.000E+00
                                771 S  
                                         1.147E+00 1.000E+00 0.000E+00 0.000E+00
                                772 S  
                                         3.342E-01 1.000E+00 0.000E+00 0.000E+00
                         773-   775 P  
                                         1.769E+01 0.000E+00 4.359E-02 0.000E+00
                                         3.854E+00 0.000E+00 2.318E-01 0.000E+00
                                         1.047E+00 0.000E+00 5.146E-01 0.000E+00
                         776-   778 P  
                                         2.759E-01 0.000E+00 1.000E+00 0.000E+00
                         779-   783 D  
                                         8.000E-01 0.000E+00 0.000E+00 1.000E+00
  74 O   -3.243  -1.103  -3.501
  75 O   -6.892  11.939   3.531
  76 O    0.666  -3.359  -3.461
  77 O   -6.893 -11.939   3.471
  78 O    0.665   1.153  -3.521
  79 O    6.893 -11.938   3.491
  80 O   14.451   1.155  -3.501
  81 O    6.893  11.940   3.531
  82 O   14.451  -3.358  -3.461
  83 O  -13.787  -0.001   3.471
  84 O   -6.229  13.092  -3.521

 *******************************************************************************
 FINISHED BASIS SET HANDLING 
 *******************************************************************************

 INFORMATION **** SET_MPP **** PCRYSTAL CALCULATION
 INFORMATION **** READM2 **** NEW DEFAULT: FOCK/KS MATRIX MIXING SET TO 30 %
 INFORMATION **** READM2 **** NEW DEFAULT: FULL DIRECT SCF MODE
 INFORMATION **** READM2 **** NEW DEFAULT: COULOMB BIPOLAR BUFFER SET TO 32 Mb
 INFORMATION **** READM2 **** NEW DEFAULT: EXCHANGE BIPOLAR BUFFER SET TO 32 Mb

 *******************************************************************************
 NEW DEFAULT: DFT INTEGRATION GRID INCREASED TO XLGRID
 NEW DEFAULT: DIIS ACCELERATOR ACTIVE
 USE KEYWORD NODIIS TO TURN IT OFF
 *******************************************************************************

 WARNING **** RDDFTP **** HSEsol-HJS ACTIVE
 RANGE SEPARATION - OMEGA:   0.110000000000000     
 WARNING **** RDDFTP **** HSEsol-3c has to be combined with sol-def2-mSVP basis set
 *******************************************************************************
 N. OF ATOMS PER CELL        84  COULOMB OVERLAP TOL         (T1) 10**   -6
 NUMBER OF SHELLS           468  COULOMB PENETRATION TOL     (T2) 10**   -6
 NUMBER OF AO               948  EXCHANGE OVERLAP TOL        (T3) 10**   -6
 N. OF ELECTRONS PER CELL   396  EXCHANGE PSEUDO OVP (F(G))  (T4) 10**   -6
 CORE ELECTRONS PER CELL    120  EXCHANGE PSEUDO OVP (P(G))  (T5) 10**  -12
 N. OF SYMMETRY OPERATORS     1  POLE ORDER IN MONO ZONE                  4
 *******************************************************************************
 TYPE OF CALCULATION :  RESTRICTED CLOSED SHELL
 KOHN-SHAM HAMILTONIAN

 (EXCHANGE)[CORRELATION] FUNCTIONAL:(HSEsol GGA)[PBEsol]

 RANGE-SEPARATED HYBRID FUNCTIONAL 
 OMEGA (SHORT-RANGE)[LONG-RANGE]:(    0.1100)[    0.0000]

 HYBRID EXCHANGE - PERCENTAGE OF FOCK EXCHANGE    25.0000

 CAPPA:IS1  2;IS2  2;IS3  8; K PTS MONK NET  20; SYMMOPS:K SPACE   2;G SPACE   1

 *******************************************************************************
 MAX NUMBER OF SCF CYCLES      50  CONVERGENCE ON DELTAP        10**-16
 WEIGHT OF F(I) IN F(I+1)      30% CONVERGENCE ON ENERGY        10**- 6
 SHRINK. FACT.(MONKH.)    2  2  8  NUMBER OF K POINTS IN THE IBZ     20
 SHRINKING FACTOR(GILAT NET)    8  NUMBER OF K POINTS(GILAT NET)   1028
 *******************************************************************************
 *** K POINTS COORDINATES (OBLIQUE COORDINATES IN UNITS OF IS =  2)
   1-R(  0  0  0)   2-R(  1  0  0)   3-R(  0  1  0)   4-R(  1  1  0)
   5-C(  0  0  1)   6-C(  1  0  1)   7-C(  0  1  1)   8-C(  1  1  1)
   9-C(  0  0  2)  10-C(  1  0  2)  11-C(  0  1  2)  12-C(  1  1  2)
  13-C(  0  0  3)  14-C(  1  0  3)  15-C(  0  1  3)  16-C(  1  1  3)
  17-R(  0  0  4)  18-R(  1  0  4)  19-R(  0  1  4)  20-R(  1  1  4)

 DIRECT LATTICE VECTORS COMPON. (A.U.)     RECIP. LATTICE VECTORS COMPON. (A.U.) 
        X            Y            Z              X            Y            Z
   24.5879030  -14.1935232    0.0000000      0.2555397    0.0000000    0.0000005
    0.0000000   28.3910867    0.0000000      0.1277517    0.2213084    0.0000015
   -0.0000297   -0.0000788   13.9839734      0.0000000    0.0000000    0.4493133

 DISK SPACE FOR EIGENVECTORS (FTN 10)    28758528 REALS

 SYMMETRY ADAPTION OF THE BLOCH FUNCTIONS DISABLED
 TTTTTTTTTTTTTTTTTTTTTTTTTTTTTT gordsh1     TELAPSE        0.05 TCPU        0.04

 MATRIX SIZE: P(G)  647408, F(G)  123665, P(G) IRR  325750, F(G) IRR  124697
 MAX G-VECTOR INDEX FOR 1- AND 2-ELECTRON INTEGRALS  65

 TTTTTTTTTTTTTTTTTTTTTTTTTTTTTT INPUT       TELAPSE        2.46 TCPU        2.46

 NEIGHBORS OF THE NON-EQUIVALENT ATOMS

 N = NUMBER OF NEIGHBORS AT DISTANCE R
    ATOM  N     R/ANG      R/AU   NEIGHBORS (ATOM LABELS AND CELL INDICES)
   1 B    1     1.3791     2.6061   73 O   -1 0 0
   1 B    1     1.3793     2.6065   75 O    0 0 0
   1 B    1     1.5503     2.9297   49 C   -1 0 0
   1 B    1     2.3895     4.5155    5 B    0 1 0
   1 B    1     2.3898     4.5160    3 B    0 0 0
   1 B    1     2.5632     4.8437   51 C    0 0 0

   2 B    1     1.3791     2.6061   74 O    0 0 0
   2 B    1     1.3793     2.6065   76 O    0 0 0
   2 B    1     1.5503     2.9297   50 C    0 0 0
   2 B    1     2.3895     4.5155    6 B    0 0 0
   2 B    1     2.3898     4.5160    4 B    0 0 0
   2 B    1     2.5632     4.8437   52 C    0 0 0

   3 B    1     1.3793     2.6065   77 O    0 1 0
   3 B    1     1.3793     2.6065   75 O    0 0 0
   3 B    1     1.5504     2.9298   37 C    0 0 0
   3 B    1     2.3895     4.5156    5 B    0 1 0
   3 B    1     2.3898     4.5160    1 B    0 0 0
   3 B    1     2.5634     4.8440   43 C    0 1 0

   4 B    1     1.3793     2.6065   78 O    0 0 0
   4 B    1     1.3793     2.6065   76 O    0 0 0
   4 B    1     1.5504     2.9298   38 C    0 0 0
   4 B    1     2.3895     4.5156    6 B    0 0 0
   4 B    1     2.3898     4.5160    2 B    0 0 0
   4 B    1     2.5634     4.8440   44 C    0 0 0

   5 B    1     1.3791     2.6061   73 O   -1-1 0
   5 B    1     1.3793     2.6064   77 O    0 0 0
   5 B    1     1.5502     2.9294   61 C   -1-1 0
   5 B    1     2.3895     4.5155    1 B    0-1 0
   5 B    1     2.3895     4.5156    3 B    0-1 0
   5 B    1     2.5629     4.8433   63 C    0 0 0

   6 B    1     1.3791     2.6061   74 O    0 0 0
   6 B    1     1.3793     2.6064   78 O    0 0 0
   6 B    1     1.5502     2.9294   62 C    0 0 0
   6 B    1     2.3895     4.5155    2 B    0 0 0
   6 B    1     2.3895     4.5156    4 B    0 0 0
   6 B    1     2.5629     4.8433   64 C    0 0 0

   7 B    1     1.3795     2.6068   79 O    0 0 0
   7 B    1     1.3795     2.6070   81 O    0-1 0
   7 B    1     1.5513     2.9316   47 C    0 0 0
   7 B    1     2.3905     4.5174   11 B    0 0 0
   7 B    1     2.3905     4.5175    9 B    0-1 0
   7 B    1     2.5648     4.8468   45 C    0-1 0

   8 B    1     1.3795     2.6068   80 O    0 0 0
   8 B    1     1.3795     2.6070   82 O    0 0 0
   8 B    1     1.5513     2.9316   48 C    0 0 0
   8 B    1     2.3905     4.5174   12 B    1 1 0
   8 B    1     2.3905     4.5175   10 B    1 0 0
   8 B    1     2.5648     4.8468   46 C    0 0 0

   9 B    1     1.3795     2.6069   81 O    0 0 0
   9 B    1     1.3797     2.6072   83 O    1 1 0
   9 B    1     1.5516     2.9322   71 C    0 0 0
   9 B    1     2.3905     4.5175    7 B    0 1 0
   9 B    1     2.3911     4.5185   11 B    0 1 0
   9 B    1     2.5651     4.8473   69 C    1 1 0

  10 B    1     1.3795     2.6069   82 O   -1 0 0
  10 B    1     1.3797     2.6072   84 O    0 0 0
  10 B    1     1.5516     2.9322   72 C    0 0 0
  10 B    1     2.3905     4.5175    8 B   -1 0 0
  10 B    1     2.3911     4.5185   12 B    0 1 0
  10 B    1     2.5651     4.8473   70 C    0 0 0

  11 B    1     1.3795     2.6068   79 O    0 0 0
  11 B    1     1.3796     2.6071   83 O    1 0 0
  11 B    1     1.5516     2.9322   59 C    0 0 0
  11 B    1     2.3905     4.5174    7 B    0 0 0
  11 B    1     2.3911     4.5185    9 B    0-1 0
  11 B    1     2.5651     4.8473   57 C    1 0 0

  12 B    1     1.3795     2.6068   80 O   -1-1 0
  12 B    1     1.3796     2.6071   84 O    0-1 0
  12 B    1     1.5516     2.9322   60 C    0 0 0
  12 B    1     2.3905     4.5174    8 B   -1-1 0
  12 B    1     2.3911     4.5185   10 B    0-1 0
  12 B    1     2.5651     4.8473   58 C    0 0 0

  13 H    1     1.0913     2.0623   39 C    0 0 0
  13 H    1     2.1472     4.0576   37 C    0 0 0
  13 H    1     2.1680     4.0969   45 C    0 0 0
  13 H    1     2.5202     4.7625   19 H    0 0 0
  13 H    1     2.5676     4.8520   75 O    0 0 0
  13 H    1     2.7321     5.1630    3 B    0 0 0

  14 H    1     1.0913     2.0623   40 C    0 0 0
  14 H    1     2.1472     4.0576   38 C    0 0 0
  14 H    1     2.1680     4.0969   46 C    0 0 0
  14 H    1     2.5202     4.7625   20 H    0 0 0
  14 H    1     2.5676     4.8520   76 O    0 0 0
  14 H    1     2.7321     5.1630    4 B    0 0 0

  15 H    1     1.0914     2.0625   41 C    0 0 0
  15 H    1     2.1493     4.0616   47 C    0 0 0
  15 H    1     2.1666     4.0942   43 C    0 0 0
  15 H    1     2.5198     4.7618   17 H    0 0 0
  15 H    1     2.5720     4.8604   79 O    0 0 0
  15 H    1     2.7362     5.1707    7 B    0 0 0

  16 H    1     1.0914     2.0625   42 C    0 0 0
  16 H    1     2.1493     4.0616   48 C    0 0 0
  16 H    1     2.1666     4.0942   44 C    0 0 0
  16 H    1     2.5198     4.7618   18 H    0 0 0
  16 H    1     2.5720     4.8604   80 O    0 0 0
  16 H    1     2.7362     5.1707    8 B    0 0 0

  17 H    1     1.0914     2.0624   43 C    0 0 0
  17 H    1     2.1471     4.0575   37 C    0-1 0
  17 H    1     2.1680     4.0970   41 C    0 0 0
  17 H    1     2.5198     4.7618   15 H    0 0 0
  17 H    1     2.5665     4.8500   77 O    0 0 0
  17 H    1     2.7315     5.1618    3 B    0-1 0

  18 H    1     1.0914     2.0624   44 C    0 0 0
  18 H    1     2.1471     4.0575   38 C    0 0 0
  18 H    1     2.1680     4.0970   42 C    0 0 0
  18 H    1     2.5198     4.7618   16 H    0 0 0
  18 H    1     2.5665     4.8500   78 O    0 0 0
  18 H    1     2.7315     5.1618    4 B    0 0 0

  19 H    1     1.0915     2.0626   45 C    0 0 0
  19 H    1     2.1490     4.0610   47 C    0 1 0
  19 H    1     2.1669     4.0948   39 C    0 0 0
  19 H    1     2.5202     4.7625   13 H    0 0 0
  19 H    1     2.5712     4.8588   81 O    0 0 0
  19 H    1     2.7351     5.1686    7 B    0 1 0

  20 H    1     1.0915     2.0626   46 C    0 0 0
  20 H    1     2.1490     4.0610   48 C    0 0 0
  20 H    1     2.1669     4.0948   40 C    0 0 0
  20 H    1     2.5202     4.7625   14 H    0 0 0
  20 H    1     2.5712     4.8588   82 O    0 0 0
  20 H    1     2.7351     5.1686    8 B    0 0 0

  21 H    1     1.0913     2.0623   51 C    0 0 0
  21 H    1     2.1469     4.0571   49 C   -1 0 0
  21 H    1     2.1680     4.0968   57 C    0 0 0
  21 H    1     2.5198     4.7617   27 H    0 0 0
  21 H    1     2.5670     4.8510   75 O    0 0 0
  21 H    1     2.7310     5.1609    1 B    0 0 0

  22 H    1     1.0913     2.0623   52 C    0 0 0
  22 H    1     2.1469     4.0571   50 C    0 0 0
  22 H    1     2.1680     4.0968   58 C    0 0 0
  22 H    1     2.5198     4.7617   28 H    0 0 0
  22 H    1     2.5670     4.8510   76 O    0 0 0
  22 H    1     2.7310     5.1609    2 B    0 0 0

  23 H    1     1.0914     2.0625   53 C    0 0 0
  23 H    1     2.1493     4.0617   59 C    0 0 0
  23 H    1     2.1664     4.0939   55 C    0 0 0
  23 H    1     2.5192     4.7606   25 H    0 0 0
  23 H    1     2.5735     4.8632   79 O    0 0 0
  23 H    1     2.7371     5.1723   11 B    0 0 0

  24 H    1     1.0914     2.0625   54 C    0 0 0
  24 H    1     2.1493     4.0617   60 C    0 0 0
  24 H    1     2.1664     4.0939   56 C    0 0 0
  24 H    1     2.5192     4.7606   26 H    0 0 0
  24 H    1     2.5735     4.8632   80 O   -1-1 0
  24 H    1     2.7371     5.1723   12 B    0 0 0

  25 H    1     1.0914     2.0624   55 C    0 0 0
  25 H    1     2.1475     4.0581   49 C    0 0 0
  25 H    1     2.1679     4.0967   53 C    0 0 0
  25 H    1     2.5192     4.7606   23 H    0 0 0
  25 H    1     2.5675     4.8519   73 O    0 0 0
  25 H    1     2.7328     5.1643    1 B    1 0 0

  26 H    1     1.0914     2.0624   56 C    0 0 0
  26 H    1     2.1475     4.0581   50 C    0 0 0
  26 H    1     2.1679     4.0967   54 C    0 0 0
  26 H    1     2.5192     4.7606   24 H    0 0 0
  26 H    1     2.5675     4.8519   74 O    0 0 0
  26 H    1     2.7328     5.1643    2 B    0 0 0

  27 H    1     1.0914     2.0625   57 C    0 0 0
  27 H    1     2.1491     4.0612   59 C   -1 0 0
  27 H    1     2.1666     4.0942   51 C    0 0 0
  27 H    1     2.5198     4.7617   21 H    0 0 0
  27 H    1     2.5723     4.8609   83 O    0 0 0
  27 H    1     2.7355     5.1693   11 B   -1 0 0

  28 H    1     1.0914     2.0625   58 C    0 0 0
  28 H    1     2.1491     4.0612   60 C    0 0 0
  28 H    1     2.1666     4.0942   52 C    0 0 0
  28 H    1     2.5198     4.7617   22 H    0 0 0
  28 H    1     2.5723     4.8609   84 O    0-1 0
  28 H    1     2.7355     5.1693   12 B    0 0 0

  29 H    1     1.0914     2.0624   63 C    0 0 0
  29 H    1     2.1475     4.0582   61 C   -1-1 0
  29 H    1     2.1678     4.0966   69 C    0 0 0
  29 H    1     2.5200     4.7621   35 H    0 0 0
  29 H    1     2.5667     4.8503   77 O    0 0 0
  29 H    1     2.7315     5.1618    5 B    0 0 0

  30 H    1     1.0914     2.0624   64 C    0 0 0
  30 H    1     2.1475     4.0582   62 C    0 0 0
  30 H    1     2.1678     4.0966   70 C    0 0 0
  30 H    1     2.5200     4.7621   36 H    0 0 0
  30 H    1     2.5667     4.8503   78 O    0 0 0
  30 H    1     2.7315     5.1618    6 B    0 0 0

  31 H    1     1.0913     2.0623   65 C    0 0 0
  31 H    1     2.1487     4.0605   71 C    0 0 0
  31 H    1     2.1667     4.0945   67 C    0 0 0
  31 H    1     2.5197     4.7616   33 H    0 0 0
  31 H    1     2.5723     4.8610   81 O    0 0 0
  31 H    1     2.7359     5.1701    9 B    0 0 0

  32 H    1     1.0913     2.0623   66 C    0 0 0
  32 H    1     2.1487     4.0605   72 C    0 0 0
  32 H    1     2.1667     4.0945   68 C    0 0 0
  32 H    1     2.5197     4.7616   34 H    0 0 0
  32 H    1     2.5723     4.8610   82 O   -1 0 0
  32 H    1     2.7359     5.1701   10 B    0 0 0

  33 H    1     1.0915     2.0626   67 C    0 0 0
  33 H    1     2.1479     4.0589   61 C    0 0 0
  33 H    1     2.1679     4.0968   65 C    0 0 0
  33 H    1     2.5197     4.7616   31 H    0 0 0
  33 H    1     2.5677     4.8522   73 O    0 0 0
  33 H    1     2.7331     5.1648    5 B    1 1 0

  34 H    1     1.0915     2.0626   68 C    0 0 0
  34 H    1     2.1479     4.0589   62 C    0 0 0
  34 H    1     2.1679     4.0968   66 C    0 0 0
  34 H    1     2.5197     4.7616   32 H    0 0 0
  34 H    1     2.5677     4.8522   74 O    0 0 0
  34 H    1     2.7331     5.1648    6 B    0 0 0

  35 H    1     1.0914     2.0624   69 C    0 0 0
  35 H    1     2.1486     4.0602   71 C   -1-1 0
  35 H    1     2.1668     4.0947   63 C    0 0 0
  35 H    1     2.5200     4.7621   29 H    0 0 0
  35 H    1     2.5717     4.8598   83 O    0 0 0
  35 H    1     2.7349     5.1682    9 B   -1-1 0

  36 H    1     1.0914     2.0624   70 C    0 0 0
  36 H    1     2.1486     4.0602   72 C    0 0 0
  36 H    1     2.1668     4.0947   64 C    0 0 0
  36 H    1     2.5200     4.7621   30 H    0 0 0
  36 H    1     2.5717     4.8598   84 O    0 0 0
  36 H    1     2.7349     5.1682   10 B    0 0 0

  37 C    1     1.4020     2.6495   43 C    0 1 0
  37 C    1     1.4021     2.6495   39 C    0 0 0
  37 C    1     1.5504     2.9298    3 B    0 0 0
  37 C    1     2.1471     4.0575   17 H    0 1 0
  37 C    1     2.1472     4.0576   13 H    0 0 0
  37 C    1     2.4246     4.5817   41 C    0 1 0

  38 C    1     1.4020     2.6495   44 C    0 0 0
  38 C    1     1.4021     2.6495   40 C    0 0 0
  38 C    1     1.5504     2.9298    4 B    0 0 0
  38 C    1     2.1471     4.0575   18 H    0 0 0
  38 C    1     2.1472     4.0576   14 H    0 0 0
  38 C    1     2.4246     4.5817   42 C    0 0 0

  39 C    1     1.0913     2.0623   13 H    0 0 0
  39 C    1     1.3914     2.6294   45 C    0 0 0
  39 C    1     1.4021     2.6495   37 C    0 0 0
  39 C    1     2.1669     4.0948   19 H    0 0 0
  39 C    1     2.4177     4.5688   43 C    0 1 0
  39 C    1     2.4250     4.5825   47 C    0 1 0

  40 C    1     1.0913     2.0623   14 H    0 0 0
  40 C    1     1.3914     2.6294   46 C    0 0 0
  40 C    1     1.4021     2.6495   38 C    0 0 0
  40 C    1     2.1669     4.0948   20 H    0 0 0
  40 C    1     2.4177     4.5688   44 C    0 0 0
  40 C    1     2.4250     4.5825   48 C    0 0 0

  41 C    1     1.0914     2.0625   15 H    0 0 0
  41 C    1     1.3914     2.6293   43 C    0 0 0
  41 C    1     1.4026     2.6505   47 C    0 0 0
  41 C    1     2.1680     4.0970   17 H    0 0 0
  41 C    1     2.4182     4.5697   45 C    0-1 0
  41 C    1     2.4246     4.5817   37 C    0-1 0

  42 C    1     1.0914     2.0625   16 H    0 0 0
  42 C    1     1.3914     2.6293   44 C    0 0 0
  42 C    1     1.4026     2.6505   48 C    0 0 0
  42 C    1     2.1680     4.0970   18 H    0 0 0
  42 C    1     2.4182     4.5697   46 C    0 0 0
  42 C    1     2.4246     4.5817   38 C    0 0 0

  43 C    1     1.0914     2.0624   17 H    0 0 0
  43 C    1     1.3914     2.6293   41 C    0 0 0
  43 C    1     1.4020     2.6495   37 C    0-1 0
  43 C    1     2.1666     4.0942   15 H    0 0 0
  43 C    1     2.4177     4.5688   39 C    0-1 0
  43 C    1     2.4250     4.5826   47 C    0 0 0

  44 C    1     1.0914     2.0624   18 H    0 0 0
  44 C    1     1.3914     2.6293   42 C    0 0 0
  44 C    1     1.4020     2.6495   38 C    0 0 0
  44 C    1     2.1666     4.0942   16 H    0 0 0
  44 C    1     2.4177     4.5688   40 C    0 0 0
  44 C    1     2.4250     4.5826   48 C    0 0 0

  45 C    1     1.0915     2.0626   19 H    0 0 0
  45 C    1     1.3914     2.6294   39 C    0 0 0
  45 C    1     1.4025     2.6504   47 C    0 1 0
  45 C    1     2.1680     4.0969   13 H    0 0 0
  45 C    1     2.4182     4.5697   41 C    0 1 0
  45 C    1     2.4246     4.5818   37 C    0 0 0

  46 C    1     1.0915     2.0626   20 H    0 0 0
  46 C    1     1.3914     2.6294   40 C    0 0 0
  46 C    1     1.4025     2.6504   48 C    0 0 0
  46 C    1     2.1680     4.0969   14 H    0 0 0
  46 C    1     2.4182     4.5697   42 C    0 0 0
  46 C    1     2.4246     4.5818   38 C    0 0 0

  47 C    1     1.4025     2.6504   45 C    0-1 0
  47 C    1     1.4026     2.6505   41 C    0 0 0
  47 C    1     1.5513     2.9316    7 B    0 0 0
  47 C    1     2.1490     4.0610   19 H    0-1 0
  47 C    1     2.1493     4.0616   15 H    0 0 0
  47 C    1     2.4250     4.5825   39 C    0-1 0

  48 C    1     1.4025     2.6504   46 C    0 0 0
  48 C    1     1.4026     2.6505   42 C    0 0 0
  48 C    1     1.5513     2.9316    8 B    0 0 0
  48 C    1     2.1490     4.0610   20 H    0 0 0
  48 C    1     2.1493     4.0616   16 H    0 0 0
  48 C    1     2.4250     4.5825   40 C    0 0 0

  49 C    1     1.4020     2.6494   51 C    1 0 0
  49 C    1     1.4021     2.6495   55 C    0 0 0
  49 C    1     1.5503     2.9297    1 B    1 0 0
  49 C    1     2.1469     4.0571   21 H    1 0 0
  49 C    1     2.1475     4.0581   25 H    0 0 0
  49 C    1     2.4246     4.5818   53 C    0 0 0

  50 C    1     1.4020     2.6494   52 C    0 0 0
  50 C    1     1.4021     2.6495   56 C    0 0 0
  50 C    1     1.5503     2.9297    2 B    0 0 0
  50 C    1     2.1469     4.0571   22 H    0 0 0
  50 C    1     2.1475     4.0581   26 H    0 0 0
  50 C    1     2.4246     4.5818   54 C    0 0 0

  51 C    1     1.0913     2.0623   21 H    0 0 0
  51 C    1     1.3914     2.6293   57 C    0 0 0
  51 C    1     1.4020     2.6494   49 C   -1 0 0
  51 C    1     2.1666     4.0942   27 H    0 0 0
  51 C    1     2.4175     4.5684   55 C   -1 0 0
  51 C    1     2.4251     4.5828   59 C   -1 0 0

  52 C    1     1.0913     2.0623   22 H    0 0 0
  52 C    1     1.3914     2.6293   58 C    0 0 0
  52 C    1     1.4020     2.6494   50 C    0 0 0
  52 C    1     2.1666     4.0942   28 H    0 0 0
  52 C    1     2.4175     4.5684   56 C    0 0 0
  52 C    1     2.4251     4.5828   60 C    0 0 0

  53 C    1     1.0914     2.0625   23 H    0 0 0
  53 C    1     1.3915     2.6295   55 C    0 0 0
  53 C    1     1.4026     2.6505   59 C    0 0 0
  53 C    1     2.1679     4.0967   25 H    0 0 0
  53 C    1     2.4179     4.5691   57 C    1 0 0
  53 C    1     2.4246     4.5818   49 C    0 0 0

  54 C    1     1.0914     2.0625   24 H    0 0 0
  54 C    1     1.3915     2.6295   56 C    0 0 0
  54 C    1     1.4026     2.6505   60 C    0 0 0
  54 C    1     2.1679     4.0967   26 H    0 0 0
  54 C    1     2.4179     4.5691   58 C    0 0 0
  54 C    1     2.4246     4.5818   50 C    0 0 0

  55 C    1     1.0914     2.0624   25 H    0 0 0
  55 C    1     1.3915     2.6295   53 C    0 0 0
  55 C    1     1.4021     2.6495   49 C    0 0 0
  55 C    1     2.1664     4.0939   23 H    0 0 0
  55 C    1     2.4175     4.5684   51 C    1 0 0
  55 C    1     2.4253     4.5832   59 C    0 0 0

  56 C    1     1.0914     2.0624   26 H    0 0 0
  56 C    1     1.3915     2.6295   54 C    0 0 0
  56 C    1     1.4021     2.6495   50 C    0 0 0
  56 C    1     2.1664     4.0939   24 H    0 0 0
  56 C    1     2.4175     4.5684   52 C    0 0 0
  56 C    1     2.4253     4.5832   60 C    0 0 0

  57 C    1     1.0914     2.0625   27 H    0 0 0
  57 C    1     1.3914     2.6293   51 C    0 0 0
  57 C    1     1.4025     2.6504   59 C   -1 0 0
  57 C    1     2.1680     4.0968   21 H    0 0 0
  57 C    1     2.4179     4.5691   53 C   -1 0 0
  57 C    1     2.4247     4.5819   49 C   -1 0 0

  58 C    1     1.0914     2.0625   28 H    0 0 0
  58 C    1     1.3914     2.6293   52 C    0 0 0
  58 C    1     1.4025     2.6504   60 C    0 0 0
  58 C    1     2.1680     4.0968   22 H    0 0 0
  58 C    1     2.4179     4.5691   54 C    0 0 0
  58 C    1     2.4247     4.5819   50 C    0 0 0

  59 C    1     1.4025     2.6504   57 C    1 0 0
  59 C    1     1.4026     2.6505   53 C    0 0 0
  59 C    1     1.5516     2.9322   11 B    0 0 0
  59 C    1     2.1491     4.0612   27 H    1 0 0
  59 C    1     2.1493     4.0617   23 H    0 0 0
  59 C    1     2.4251     4.5828   51 C    1 0 0

  60 C    1     1.4025     2.6504   58 C    0 0 0
  60 C    1     1.4026     2.6505   54 C    0 0 0
  60 C    1     1.5516     2.9322   12 B    0 0 0
  60 C    1     2.1491     4.0612   28 H    0 0 0
  60 C    1     2.1493     4.0617   24 H    0 0 0
  60 C    1     2.4251     4.5828   52 C    0 0 0

  61 C    1     1.4021     2.6496   63 C    1 1 0
  61 C    1     1.4021     2.6497   67 C    0 0 0
  61 C    1     1.5502     2.9294    5 B    1 1 0
  61 C    1     2.1475     4.0582   29 H    1 1 0
  61 C    1     2.1479     4.0589   33 H    0 0 0
  61 C    1     2.4244     4.5814   65 C    0 0 0

  62 C    1     1.4021     2.6496   64 C    0 0 0
  62 C    1     1.4021     2.6497   68 C    0 0 0
  62 C    1     1.5502     2.9294    6 B    0 0 0
  62 C    1     2.1475     4.0582   30 H    0 0 0
  62 C    1     2.1479     4.0589   34 H    0 0 0
  62 C    1     2.4244     4.5814   66 C    0 0 0

  63 C    1     1.0914     2.0624   29 H    0 0 0
  63 C    1     1.3914     2.6293   69 C    0 0 0
  63 C    1     1.4021     2.6496   61 C   -1-1 0
  63 C    1     2.1668     4.0947   35 H    0 0 0
  63 C    1     2.4179     4.5692   67 C   -1-1 0
  63 C    1     2.4251     4.5827   71 C   -1-1 0

  64 C    1     1.0914     2.0624   30 H    0 0 0
  64 C    1     1.3914     2.6293   70 C    0 0 0
  64 C    1     1.4021     2.6496   62 C    0 0 0
  64 C    1     2.1668     4.0947   36 H    0 0 0
  64 C    1     2.4179     4.5692   68 C    0 0 0
  64 C    1     2.4251     4.5827   72 C    0 0 0

  65 C    1     1.0913     2.0623   31 H    0 0 0
  65 C    1     1.3914     2.6294   67 C    0 0 0
  65 C    1     1.4025     2.6504   71 C    0 0 0
  65 C    1     2.1679     4.0968   33 H    0 0 0
  65 C    1     2.4178     4.5690   69 C    1 1 0
  65 C    1     2.4244     4.5814   61 C    0 0 0

  66 C    1     1.0913     2.0623   32 H    0 0 0
  66 C    1     1.3914     2.6294   68 C    0 0 0
  66 C    1     1.4025     2.6504   72 C    0 0 0
  66 C    1     2.1679     4.0968   34 H    0 0 0
  66 C    1     2.4178     4.5690   70 C    0 0 0
  66 C    1     2.4244     4.5814   62 C    0 0 0

  67 C    1     1.0915     2.0626   33 H    0 0 0
  67 C    1     1.3914     2.6294   65 C    0 0 0
  67 C    1     1.4021     2.6497   61 C    0 0 0
  67 C    1     2.1667     4.0945   31 H    0 0 0
  67 C    1     2.4179     4.5692   63 C    1 1 0
  67 C    1     2.4253     4.5832   71 C    0 0 0

  68 C    1     1.0915     2.0626   34 H    0 0 0
  68 C    1     1.3914     2.6294   66 C    0 0 0
  68 C    1     1.4021     2.6497   62 C    0 0 0
  68 C    1     2.1667     4.0945   32 H    0 0 0
  68 C    1     2.4179     4.5692   64 C    0 0 0
  68 C    1     2.4253     4.5832   72 C    0 0 0

  69 C    1     1.0914     2.0624   35 H    0 0 0
  69 C    1     1.3914     2.6293   63 C    0 0 0
  69 C    1     1.4025     2.6503   71 C   -1-1 0
  69 C    1     2.1678     4.0966   29 H    0 0 0
  69 C    1     2.4178     4.5690   65 C   -1-1 0
  69 C    1     2.4245     4.5817   61 C   -1-1 0

  70 C    1     1.0914     2.0624   36 H    0 0 0
  70 C    1     1.3914     2.6293   64 C    0 0 0
  70 C    1     1.4025     2.6503   72 C    0 0 0
  70 C    1     2.1678     4.0966   30 H    0 0 0
  70 C    1     2.4178     4.5690   66 C    0 0 0
  70 C    1     2.4245     4.5817   62 C    0 0 0

  71 C    1     1.4025     2.6503   69 C    1 1 0
  71 C    1     1.4025     2.6504   65 C    0 0 0
  71 C    1     1.5516     2.9322    9 B    0 0 0
  71 C    1     2.1486     4.0602   35 H    1 1 0
  71 C    1     2.1487     4.0605   31 H    0 0 0
  71 C    1     2.4251     4.5827   63 C    1 1 0

  72 C    1     1.4025     2.6503   70 C    0 0 0
  72 C    1     1.4025     2.6504   66 C    0 0 0
  72 C    1     1.5516     2.9322   10 B    0 0 0
  72 C    1     2.1486     4.0602   36 H    0 0 0
  72 C    1     2.1487     4.0605   32 H    0 0 0
  72 C    1     2.4251     4.5827   64 C    0 0 0

  73 O    1     1.3791     2.6061    1 B    1 0 0
  73 O    1     1.3791     2.6061    5 B    1 1 0
  73 O    1     2.3880     4.5126   75 O    1 0 0
  73 O    1     2.3882     4.5130   77 O    1 1 0
  73 O    1     2.5383     4.7966   61 C    0 0 0
  73 O    1     2.5384     4.7968   49 C    0 0 0

  74 O    1     1.3791     2.6061    2 B    0 0 0
  74 O    1     1.3791     2.6061    6 B    0 0 0
  74 O    1     2.3880     4.5126   76 O    0 0 0
  74 O    1     2.3882     4.5130   78 O    0 0 0
  74 O    1     2.5383     4.7966   62 C    0 0 0
  74 O    1     2.5384     4.7968   50 C    0 0 0

  75 O    1     1.3793     2.6065    1 B    0 0 0
  75 O    1     1.3793     2.6065    3 B    0 0 0
  75 O    1     2.3880     4.5126   73 O   -1 0 0
  75 O    1     2.3882     4.5131   77 O    0 1 0
  75 O    1     2.5391     4.7981   37 C    0 0 0
  75 O    1     2.5395     4.7990   49 C   -1 0 0

  76 O    1     1.3793     2.6065    2 B    0 0 0
  76 O    1     1.3793     2.6065    4 B    0 0 0
  76 O    1     2.3880     4.5126   74 O    0 0 0
  76 O    1     2.3882     4.5131   78 O    0 0 0
  76 O    1     2.5391     4.7981   38 C    0 0 0
  76 O    1     2.5395     4.7990   50 C    0 0 0

  77 O    1     1.3793     2.6064    5 B    0 0 0
  77 O    1     1.3793     2.6065    3 B    0-1 0
  77 O    1     2.3882     4.5130   73 O   -1-1 0
  77 O    1     2.3882     4.5131   75 O    0-1 0
  77 O    1     2.5390     4.7980   37 C    0-1 0
  77 O    1     2.5391     4.7982   61 C   -1-1 0

  78 O    1     1.3793     2.6064    6 B    0 0 0
  78 O    1     1.3793     2.6065    4 B    0 0 0
  78 O    1     2.3882     4.5130   74 O    0 0 0
  78 O    1     2.3882     4.5131   76 O    0 0 0
  78 O    1     2.5390     4.7980   38 C    0 0 0
  78 O    1     2.5391     4.7982   62 C    0 0 0

  79 O    1     1.3795     2.6068   11 B    0 0 0
  79 O    1     1.3795     2.6068    7 B    0 0 0
  79 O    1     2.3880     4.5126   83 O    1 0 0
  79 O    1     2.3884     4.5134   81 O    0-1 0
  79 O    1     2.5400     4.7998   47 C    0 0 0
  79 O    1     2.5403     4.8005   59 C    0 0 0

  80 O    1     1.3795     2.6068   12 B    1 1 0
  80 O    1     1.3795     2.6068    8 B    0 0 0
  80 O    1     2.3880     4.5126   84 O    1 0 0
  80 O    1     2.3884     4.5134   82 O    0 0 0
  80 O    1     2.5400     4.7998   48 C    0 0 0
  80 O    1     2.5403     4.8005   60 C    1 1 0

  81 O    1     1.3795     2.6069    9 B    0 0 0
  81 O    1     1.3795     2.6070    7 B    0 1 0
  81 O    1     2.3881     4.5128   83 O    1 1 0
  81 O    1     2.3884     4.5134   79 O    0 1 0
  81 O    1     2.5404     4.8006   47 C    0 1 0
  81 O    1     2.5405     4.8008   71 C    0 0 0

  82 O    1     1.3795     2.6069   10 B    1 0 0
  82 O    1     1.3795     2.6070    8 B    0 0 0
  82 O    1     2.3881     4.5128   84 O    1 0 0
  82 O    1     2.3884     4.5134   80 O    0 0 0
  82 O    1     2.5404     4.8006   48 C    0 0 0
  82 O    1     2.5405     4.8008   72 C    1 0 0

  83 O    1     1.3796     2.6071   11 B   -1 0 0
  83 O    1     1.3797     2.6072    9 B   -1-1 0
  83 O    1     2.3880     4.5126   79 O   -1 0 0
  83 O    1     2.3881     4.5128   81 O   -1-1 0
  83 O    1     2.5409     4.8016   71 C   -1-1 0
  83 O    1     2.5410     4.8019   59 C   -1 0 0

  84 O    1     1.3796     2.6071   12 B    0 1 0
  84 O    1     1.3797     2.6072   10 B    0 0 0
  84 O    1     2.3880     4.5126   80 O   -1 0 0
  84 O    1     2.3881     4.5128   82 O   -1 0 0
  84 O    1     2.5409     4.8016   72 C    0 0 0
  84 O    1     2.5410     4.8019   60 C    0 1 0


 SYMMETRY ALLOWED INTERNAL DEGREE(S) OF FREEDOM: 249
 TTTTTTTTTTTTTTTTTTTTTTTTTTTTTT SYMM        TELAPSE        2.47 TCPU        2.46
 TTTTTTTTTTTTTTTTTTTTTTTTTTTTTT INT_SCREEN  TELAPSE        2.67 TCPU        2.66

 DFT PARAMETERS

     ATOM       ELECTRONS   NET CHARGE   R(ANGSTROM)
   1   5  B       5.0000      0.0000     0.89000000
  13   1  H       1.0000      0.0000     1.11000000
  37   6  C       6.0000      0.0000     0.77000000
  73   8  O       8.0000      0.0000     0.74000000

 SIZE OF GRID=    2615156
 TTTTTTTTTTTTTTTTTTTTTTTTTTTTTT MAKE_GRID2  TELAPSE       20.78 TCPU       20.75
 BECKE WEIGHT FUNCTION
 RADSAFE =     2.00
 TOLERANCES - DENSITY:10**- 6; POTENTIAL:10**- 9; GRID WGT:10**-14

 RADIAL INTEGRATION  - INTERVALS (POINTS,UPPER LIMIT):            1( 75,  4.0*R)

 ANGULAR INTEGRATION - INTERVALS (ACCURACY LEVEL [N. POINTS] UPPER LIMIT):
  1(  4[  86]   0.2)  2(  8[ 194]   0.5)  3( 12[ 350]   0.9)  4( 16[ 974]   3.5)
  5( 12[ 350]9999.0)
 TTTTTTTTTTTTTTTTTTTTTTTTTTTTTT INT_CALC    TELAPSE       21.01 TCPU       20.98
 EEEEEEEEEE INT_CALC TERMINATION  DATE 19 02 2026 TIME 20:16:49.1

 *******************************************************************************
 cof-1_z37_L080_serr                                                             
 CRYSTAL - SCF - TYPE OF CALCULATION :  RESTRICTED CLOSED SHELL
 *******************************************************************************

 CAPPA:IS1  2;IS2  2;IS3  8; K PTS MONK NET  20; SYMMOPS:K SPACE   2;G SPACE   1

 TTTTTTTTTTTTTTTTTTTTTTTTTTTTTT SDIK        TELAPSE       22.90 TCPU       46.72

 AAAAAAAAAAAAAAAAAAAAAAAAAAAAAAAAAAAAAAAAAAAAAAAAAAAAAAAAAAAAAAAAAAAAAAAAAAAAAAA
         ATOMIC WAVEFUNCTION(S)


 NUCLEAR CHARGE  5.0  SYMMETRY SPECIES            S    P
 N. ELECTRONS    5.0  NUMBER OF PRIMITIVE GTOS    8    4
                      NUMBER OF CONTRACTED GTOS   4    2
                      NUMBER OF CLOSED SHELLS     2    0
                      OPEN SHELL OCCUPATION       0    1

  ZNUC  SCFIT    TOTAL HF ENERGY   KINETIC ENERGY   VIRIAL THEOREM ACCURACY
   5.0    11    -2.451164084E+01  2.462155050E+01 -1.995536038E+00  1.5E-06

 NUCLEAR CHARGE  1.0  SYMMETRY SPECIES            S
 N. ELECTRONS    1.0  NUMBER OF PRIMITIVE GTOS    4
                      NUMBER OF CONTRACTED GTOS   2
                      NUMBER OF CLOSED SHELLS     0
                      OPEN SHELL OCCUPATION       1

  ZNUC  SCFIT    TOTAL HF ENERGY   KINETIC ENERGY   VIRIAL THEOREM ACCURACY
   1.0     1    -4.977266687E-01  5.190767460E-01 -1.958869132E+00  0.0E+00

 NUCLEAR CHARGE  6.0  SYMMETRY SPECIES            S    P
 N. ELECTRONS    6.0  NUMBER OF PRIMITIVE GTOS    8    4
                      NUMBER OF CONTRACTED GTOS   4    2
                      NUMBER OF CLOSED SHELLS     2    0
                      OPEN SHELL OCCUPATION       0    2

  ZNUC  SCFIT    TOTAL HF ENERGY   KINETIC ENERGY   VIRIAL THEOREM ACCURACY
   6.0     9    -3.766704647E+01  3.775180683E+01 -1.997754800E+00  1.1E-06

 NUCLEAR CHARGE  8.0  SYMMETRY SPECIES            S    P
 N. ELECTRONS    8.0  NUMBER OF PRIMITIVE GTOS    8    4
                      NUMBER OF CONTRACTED GTOS   4    2
                      NUMBER OF CLOSED SHELLS     2    0
                      OPEN SHELL OCCUPATION       0    4

  ZNUC  SCFIT    TOTAL HF ENERGY   KINETIC ENERGY   VIRIAL THEOREM ACCURACY
   8.0    12    -7.477373220E+01  7.477365593E+01 -2.000001020E+00  3.8E-06

 AAAAAAAAAAAAAAAAAAAAAAAAAAAAAAAAAAAAAAAAAAAAAAAAAAAAAAAAAAAAAAAAAAAAAAAAAAAAAAA

 CHARGE NORMALIZATION FACTOR   1.00000000
 TOTAL ATOMIC CHARGES:
   5.0000000   5.0000000   5.0000000   5.0000000   5.0000000   5.0000000
   5.0000000   5.0000000   5.0000000   5.0000000   5.0000000   5.0000000
   1.0000000   1.0000000   1.0000000   1.0000000   1.0000000   1.0000000
   1.0000000   1.0000000   1.0000000   1.0000000   1.0000000   1.0000000
   1.0000000   1.0000000   1.0000000   1.0000000   1.0000000   1.0000000
   1.0000000   1.0000000   1.0000000   1.0000000   1.0000000   1.0000000
   6.0000000   6.0000000   6.0000000   6.0000000   6.0000000   6.0000000
   6.0000000   6.0000000   6.0000000   6.0000000   6.0000000   6.0000000
   6.0000000   6.0000000   6.0000000   6.0000000   6.0000000   6.0000000
   6.0000000   6.0000000   6.0000000   6.0000000   6.0000000   6.0000000
   6.0000000   6.0000000   6.0000000   6.0000000   6.0000000   6.0000000
   6.0000000   6.0000000   6.0000000   6.0000000   6.0000000   6.0000000
   8.0000000   8.0000000   8.0000000   8.0000000   8.0000000   8.0000000
   8.0000000   8.0000000   8.0000000   8.0000000   8.0000000   8.0000000
 TTTTTTTTTTTTTTTTTTTTTTTTTTTTTT MOQGAD      TELAPSE       22.99 TCPU       49.41
 TTTTTTTTTTTTTTTTTTTTTTTTTTTTTT SHELLXN     TELAPSE       36.69 TCPU      487.21
 TTTTTTTTTTTTTTTTTTTTTTTTTTTTTT MONMO3      TELAPSE       37.23 TCPU      504.25
 NUMERICALLY INTEGRATED DENSITY    395.9998906919
 TTTTTTTTTTTTTTTTTTTTTTTTTTTTTT NUMDFT      TELAPSE       38.58 TCPU      547.52
 CYC   0 ETOT(AU) -2.591917523317E+03 DETOT -2.59E+03 tst  0.00E+00 PX  1.00E+00
 TTTTTTTTTTTTTTTTTTTTTTTTTTTTTT DIIS        TELAPSE       38.68 TCPU      550.78
 TTTTTTTTTTTTTTTTTTTTTTTTTTTTTT FDIK        TELAPSE       40.47 TCPU      607.86
 INSULATING STATE
 TOP OF VALENCE BANDS -    BAND    198; K    2; EIG -3.1000115E-01 AU
 TOP OF VALENCE BANDS -    BAND    198; K    1; EIG -3.1011599E-01 AU
 BOTTOM OF VIRTUAL BANDS - BAND    199; K    1; EIG -1.5892299E-01 AU
 INDIRECT ENERGY BAND GAP:   4.1110 eV
 TTTTTTTTTTTTTTTTTTTTTTTTTTTTTT PDIG        TELAPSE       42.00 TCPU      614.76
 CHARGE NORMALIZATION FACTOR   1.00000000
 TOTAL ATOMIC CHARGES:
   4.1342768   4.1660402   4.1512673   4.1659503   4.1514763   4.1661958
   4.1657824   4.1511216   4.1655555   4.1508614   4.1656520   4.1339525
   0.7856511   0.7850863   0.7852044   0.7857684   0.7858101   0.7850241
   0.7851436   0.7859292   0.7860053   0.7851146   0.7852827   0.7861710
   0.7859950   0.7851040   0.7852447   0.7861329   0.7858121   0.7850266
   0.7852089   0.7859944   0.7856036   0.7850393   0.7851978   0.7857619
   6.0445173   6.0428709   6.2674771   6.2649949   6.2649645   6.2674461
   6.2668058   6.2645478   6.2644939   6.2667606   6.0421509   6.0437752
   6.0514301   6.0423810   6.2678246   6.2649706   6.2650493   6.2679184
   6.2677438   6.2648743   6.2650710   6.2679279   6.0411834   6.0501767
   6.0448936   6.0432365   6.2665761   6.2643157   6.2648629   6.2671397
   6.2671145   6.2646187   6.2652420   6.2677265   6.0416933   6.0433174
   8.7023834   8.6907677   8.7024895   8.6908774   8.7020964   8.6908341
   8.6911967   8.7027726   8.6912392   8.7024777   8.6913730   8.7029554
 TTTTTTTTTTTTTTTTTTTTTTTTTTTTTT MOQGAD      TELAPSE       42.09 TCPU      614.85
 TTTTTTTTTTTTTTTTTTTTTTTTTTTTTT SHELLXN     TELAPSE       56.35 TCPU     1069.38
 TTTTTTTTTTTTTTTTTTTTTTTTTTTTTT MONMO3      TELAPSE       56.88 TCPU     1086.40
 NUMERICALLY INTEGRATED DENSITY    395.9999445935
 TTTTTTTTTTTTTTTTTTTTTTTTTTTTTT NUMDFT      TELAPSE       58.26 TCPU     1130.25
 CYC   1 ETOT(AU) -2.577632298961E+03 DETOT  1.43E+01 tst  0.00E+00 PX  1.00E+00
 TTTTTTTTTTTTTTTTTTTTTTTTTTTTTT DIIS        TELAPSE       58.40 TCPU     1134.70
 DIIS TEST: 0.22320E+01 AT SCF   CYCLE   1 - MIX   30 %
 TTTTTTTTTTTTTTTTTTTTTTTTTTTTTT FDIK        TELAPSE       60.28 TCPU     1194.92
 INSULATING STATE
 TOP OF VALENCE BANDS -    BAND    198; K    2; EIG -2.2061945E-01 AU
 TOP OF VALENCE BANDS -    BAND    198; K    1; EIG -2.2081790E-01 AU
 BOTTOM OF VIRTUAL BANDS - BAND    199; K    1; EIG -8.3463676E-02 AU
 INDIRECT ENERGY BAND GAP:   3.7322 eV
 TTTTTTTTTTTTTTTTTTTTTTTTTTTTTT PDIG        TELAPSE       61.80 TCPU     1201.81
 CHARGE NORMALIZATION FACTOR   1.00000000
 TOTAL ATOMIC CHARGES:
   4.7032490   4.7169818   4.6948344   4.7155750   4.6948278   4.7155754
   4.7156738   4.6947629   4.7156489   4.6947828   4.7170529   4.7032104
   0.9023224   0.9116182   0.9115861   0.9023577   0.9015248   0.9120148
   0.9119805   0.9016306   0.9022451   0.9113551   0.9112897   0.9022799
   0.9022146   0.9113428   0.9112736   0.9022715   0.9015273   0.9120079
   0.9120580   0.9017200   0.9022551   0.9115679   0.9116030   0.9023784
   5.8649066   5.8782988   6.1347391   6.1424540   6.1428267   6.1351908
   6.1163759   6.1445732   6.1451264   6.1169757   5.8808691   5.8673062
   5.8829858   5.8790297   6.1193471   6.1371519   6.1378359   6.1200148
   6.1195635   6.1373843   6.1377297   6.1199152   5.8821445   5.8858940
   5.8648377   5.8782726   6.1164383   6.1446297   6.1449690   6.1168517
   6.1349217   6.1426397   6.1425860   6.1349330   5.8810871   5.8674363
   8.3459211   8.3332118   8.3462680   8.3335757   8.3342684   8.3349374
   8.3330367   8.3457295   8.3346588   8.3339851   8.3334112   8.3461545
 TTTTTTTTTTTTTTTTTTTTTTTTTTTTTT MOQGAD      TELAPSE       61.89 TCPU     1201.89
 TTTTTTTTTTTTTTTTTTTTTTTTTTTTTT SHELLXN     TELAPSE       76.15 TCPU     1656.67
 TTTTTTTTTTTTTTTTTTTTTTTTTTTTTT MONMO3      TELAPSE       76.68 TCPU     1673.69
 NUMERICALLY INTEGRATED DENSITY    395.9999316499
 TTTTTTTTTTTTTTTTTTTTTTTTTTTTTT NUMDFT      TELAPSE       78.06 TCPU     1717.53
 CYC   2 ETOT(AU) -2.578019398047E+03 DETOT -3.87E-01 tst  3.01E-03 PX  1.60E-01
 TTTTTTTTTTTTTTTTTTTTTTTTTTTTTT DIIS        TELAPSE       78.22 TCPU     1722.83
 DIIS TEST: 0.93204E+00 AT SCF   CYCLE   2 - DIIS ACTIVE - HISTORY:     2 CYCLES
 TTTTTTTTTTTTTTTTTTTTTTTTTTTTTT FDIK        TELAPSE       80.09 TCPU     1782.60
 INSULATING STATE
 TOP OF VALENCE BANDS -    BAND    198; K    2; EIG -2.3499227E-01 AU
 TOP OF VALENCE BANDS -    BAND    198; K    1; EIG -2.3520359E-01 AU
 BOTTOM OF VIRTUAL BANDS - BAND    199; K    1; EIG -7.9222632E-02 AU
 INDIRECT ENERGY BAND GAP:   4.2387 eV
 TTTTTTTTTTTTTTTTTTTTTTTTTTTTTT PDIG        TELAPSE       81.60 TCPU     1789.49
 CHARGE NORMALIZATION FACTOR   1.00000000
 TOTAL ATOMIC CHARGES:
   4.4855762   4.5108599   4.4866707   4.5091097   4.4867967   4.5092050
   4.5089526   4.4867271   4.5087848   4.4865773   4.5105567   4.4853912
   0.8820766   0.8890157   0.8892108   0.8821785   0.8800172   0.8901374
   0.8903391   0.8800913   0.8796298   0.8874194   0.8877105   0.8797639
   0.8796556   0.8874499   0.8876553   0.8797041   0.8800144   0.8901461
   0.8903853   0.8801688   0.8820545   0.8890171   0.8891758   0.8821521
   5.9053463   5.8776037   6.1649093   6.1614211   6.1612353   6.1646694
   6.1710377   6.1543706   6.1540023   6.1705581   5.8772185   5.9051678
   5.9027029   5.8820917   6.1681137   6.1610807   6.1608604   6.1679439
   6.1681924   6.1610619   6.1608249   6.1678590   5.8813256   5.9021989
   5.9056151   5.8779421   6.1709682   6.1542920   6.1541294   6.1707438
   6.1648741   6.1612710   6.1612665   6.1646784   5.8769263   5.9048183
   8.5190560   8.5080204   8.5191964   8.5082107   8.5236067   8.5064628
   8.5082860   8.5192670   8.5066202   8.5236613   8.5084734   8.5194404
 TTTTTTTTTTTTTTTTTTTTTTTTTTTTTT MOQGAD      TELAPSE       81.69 TCPU     1789.58
 TTTTTTTTTTTTTTTTTTTTTTTTTTTTTT SHELLXN     TELAPSE       95.98 TCPU     2245.25
 TTTTTTTTTTTTTTTTTTTTTTTTTTTTTT MONMO3      TELAPSE       96.51 TCPU     2262.27
 NUMERICALLY INTEGRATED DENSITY    395.9999346426
 TTTTTTTTTTTTTTTTTTTTTTTTTTTTTT NUMDFT      TELAPSE       97.89 TCPU     2306.32
 CYC   3 ETOT(AU) -2.578210920525E+03 DETOT -1.92E-01 tst  6.56E-04 PX  6.63E-02
 TTTTTTTTTTTTTTTTTTTTTTTTTTTTTT DIIS        TELAPSE       98.08 TCPU     2312.36
 DIIS TEST: 0.28198E-01 AT SCF   CYCLE   3 - DIIS ACTIVE - HISTORY:     3 CYCLES
 TTTTTTTTTTTTTTTTTTTTTTTTTTTTTT FDIK        TELAPSE       99.95 TCPU     2372.17
 INSULATING STATE
 TOP OF VALENCE BANDS -    BAND    198; K    2; EIG -2.4298423E-01 AU
 TOP OF VALENCE BANDS -    BAND    198; K    1; EIG -2.4315254E-01 AU
 BOTTOM OF VIRTUAL BANDS - BAND    199; K    1; EIG -8.6014017E-02 AU
 INDIRECT ENERGY BAND GAP:   4.2714 eV
 TTTTTTTTTTTTTTTTTTTTTTTTTTTTTT PDIG        TELAPSE      101.56 TCPU     2379.15
 CHARGE NORMALIZATION FACTOR   1.00000000
 TOTAL ATOMIC CHARGES:
   4.4925224   4.5134550   4.4924581   4.5112480   4.4925712   4.5113421
   4.5111688   4.4923611   4.5110021   4.4922364   4.5132398   4.4922764
   0.8663406   0.8718921   0.8719379   0.8664047   0.8673561   0.8714262
   0.8714306   0.8674311   0.8669013   0.8718505   0.8718613   0.8669962
   0.8669087   0.8718664   0.8718101   0.8669488   0.8673737   0.8714332
   0.8714921   0.8675002   0.8663221   0.8718774   0.8719131   0.8663789
   5.9264427   5.9531010   6.1676505   6.1730229   6.1731902   6.1679554
   6.1504130   6.1804866   6.1809702   6.1510801   5.9549206   5.9278695
   5.9426592   5.9487582   6.1574822   6.1705413   6.1710916   6.1580198
   6.1574914   6.1705961   6.1710653   6.1580128   5.9507420   5.9442976
   5.9264225   5.9531800   6.1503464   6.1803791   6.1810457   6.1512053
   6.1675368   6.1729097   6.1732442   6.1680026   5.9549524   5.9278245
   8.4913307   8.4768210   8.4916093   8.4770830   8.4810534   8.4798987
   8.4768036   8.4913035   8.4798573   8.4810316   8.4770977   8.4916662
 TTTTTTTTTTTTTTTTTTTTTTTTTTTTTT MOQGAD      TELAPSE      101.65 TCPU     2379.24
 TTTTTTTTTTTTTTTTTTTTTTTTTTTTTT SHELLXN     TELAPSE      115.91 TCPU     2833.94
 TTTTTTTTTTTTTTTTTTTTTTTTTTTTTT MONMO3      TELAPSE      116.44 TCPU     2850.95
 NUMERICALLY INTEGRATED DENSITY    395.9999348753
 TTTTTTTTTTTTTTTTTTTTTTTTTTTTTT NUMDFT      TELAPSE      117.82 TCPU     2894.83
 CYC   4 ETOT(AU) -2.578216177437E+03 DETOT -5.26E-03 tst  3.42E-05 PX  1.79E-02
 TTTTTTTTTTTTTTTTTTTTTTTTTTTTTT DIIS        TELAPSE      118.02 TCPU     2901.40
 DIIS TEST: 0.10586E-01 AT SCF   CYCLE   4 - DIIS ACTIVE - HISTORY:     4 CYCLES
 TTTTTTTTTTTTTTTTTTTTTTTTTTTTTT FDIK        TELAPSE      119.89 TCPU     2961.12
 INSULATING STATE
 TOP OF VALENCE BANDS -    BAND    198; K    2; EIG -2.4242576E-01 AU
 TOP OF VALENCE BANDS -    BAND    198; K    1; EIG -2.4261002E-01 AU
 BOTTOM OF VIRTUAL BANDS - BAND    199; K    1; EIG -8.7243414E-02 AU
 INDIRECT ENERGY BAND GAP:   4.2227 eV
 TTTTTTTTTTTTTTTTTTTTTTTTTTTTTT PDIG        TELAPSE      121.46 TCPU     2968.06
 CHARGE NORMALIZATION FACTOR   1.00000000
 TOTAL ATOMIC CHARGES:
   4.4981397   4.5166307   4.4953723   4.5151710   4.4954894   4.5152613
   4.5151175   4.4954087   4.5149630   4.4952860   4.5164517   4.4979956
   0.8680226   0.8745310   0.8746582   0.8681084   0.8665678   0.8753883
   0.8755375   0.8666784   0.8664900   0.8734938   0.8736848   0.8666089
   0.8664956   0.8735096   0.8736388   0.8665624   0.8665699   0.8753930
   0.8755960   0.8667613   0.8679848   0.8745132   0.8746403   0.8680990
   5.9348188   5.9149288   6.1704827   6.1695216   6.1694970   6.1704662
   6.1686115   6.1639193   6.1637517   6.1683908   5.9152275   5.9351706
   5.9396164   5.9188721   6.1674072   6.1664122   6.1664379   6.1674768
   6.1675153   6.1664435   6.1663831   6.1673987   5.9190621   5.9398907
   5.9349990   5.9151840   6.1685580   6.1638619   6.1638163   6.1685090
   6.1704933   6.1694419   6.1694722   6.1704259   5.9150510   5.9349284
   8.4965819   8.4852084   8.4967620   8.4854391   8.4951950   8.4839390
   8.4853444   8.4966732   8.4839657   8.4951363   8.4855777   8.4969135
 TTTTTTTTTTTTTTTTTTTTTTTTTTTTTT MOQGAD      TELAPSE      121.55 TCPU     2968.15
 TTTTTTTTTTTTTTTTTTTTTTTTTTTTTT SHELLXN     TELAPSE      135.84 TCPU     3423.81
 TTTTTTTTTTTTTTTTTTTTTTTTTTTTTT MONMO3      TELAPSE      136.37 TCPU     3440.84
 NUMERICALLY INTEGRATED DENSITY    395.9999352378
 TTTTTTTTTTTTTTTTTTTTTTTTTTTTTT NUMDFT      TELAPSE      137.74 TCPU     3484.69
 CYC   5 ETOT(AU) -2.578218388311E+03 DETOT -2.21E-03 tst  2.66E-05 PX  9.18E-03
 TTTTTTTTTTTTTTTTTTTTTTTTTTTTTT DIIS        TELAPSE      137.97 TCPU     3491.57
 DIIS TEST: 0.15638E-02 AT SCF   CYCLE   5 - DIIS ACTIVE - HISTORY:     5 CYCLES
 TTTTTTTTTTTTTTTTTTTTTTTTTTTTTT FDIK        TELAPSE      139.85 TCPU     3551.26
 INSULATING STATE
 TOP OF VALENCE BANDS -    BAND    198; K    2; EIG -2.4173292E-01 AU
 TOP OF VALENCE BANDS -    BAND    198; K    1; EIG -2.4191597E-01 AU
 BOTTOM OF VIRTUAL BANDS - BAND    199; K    1; EIG -8.6101123E-02 AU
 INDIRECT ENERGY BAND GAP:   4.2350 eV
 TTTTTTTTTTTTTTTTTTTTTTTTTTTTTT PDIG        TELAPSE      141.38 TCPU     3558.16
 CHARGE NORMALIZATION FACTOR   1.00000000
 TOTAL ATOMIC CHARGES:
   4.4957860   4.5173789   4.4942720   4.5153702   4.4943873   4.5154606
   4.5152786   4.4942445   4.5151211   4.4941225   4.5171581   4.4955827
   0.8691315   0.8758156   0.8759242   0.8692184   0.8685924   0.8760633
   0.8761560   0.8686843   0.8682823   0.8750209   0.8751550   0.8684024
   0.8682930   0.8750401   0.8751042   0.8683536   0.8686006   0.8760689
   0.8762140   0.8687591   0.8691052   0.8758026   0.8759001   0.8691982
   5.9180616   5.9231324   6.1685769   6.1714793   6.1714835   6.1686216
   6.1617625   6.1719296   6.1720236   6.1618904   5.9239310   5.9187540
   5.9248139   5.9237673   6.1636956   6.1699462   6.1701323   6.1638898
   6.1637396   6.1699770   6.1701022   6.1638457   5.9244721   5.9254477
   5.9181680   5.9233271   6.1617020   6.1718424   6.1721108   6.1620336
   6.1685087   6.1713640   6.1715141   6.1686378   5.9238233   5.9185735
   8.4985077   8.4863357   8.4987283   8.4865683   8.4952506   8.4872975
   8.4864409   8.4985855   8.4873410   8.4952642   8.4866881   8.4988630
 TTTTTTTTTTTTTTTTTTTTTTTTTTTTTT MOQGAD      TELAPSE      141.47 TCPU     3558.24
 TTTTTTTTTTTTTTTTTTTTTTTTTTTTTT SHELLXN     TELAPSE      155.73 TCPU     4013.14
 TTTTTTTTTTTTTTTTTTTTTTTTTTTTTT MONMO3      TELAPSE      156.27 TCPU     4030.17
 NUMERICALLY INTEGRATED DENSITY    395.9999350614
 TTTTTTTTTTTTTTTTTTTTTTTTTTTTTT NUMDFT      TELAPSE      157.65 TCPU     4074.24
 CYC   6 ETOT(AU) -2.578218706619E+03 DETOT -3.18E-04 tst  7.69E-06 PX  4.07E-03
 TTTTTTTTTTTTTTTTTTTTTTTTTTTTTT DIIS        TELAPSE      157.90 TCPU     4081.16
 DIIS TEST: 0.46430E-03 AT SCF   CYCLE   6 - DIIS ACTIVE - HISTORY:     6 CYCLES
 TTTTTTTTTTTTTTTTTTTTTTTTTTTTTT FDIK        TELAPSE      159.78 TCPU     4140.81
 INSULATING STATE
 TOP OF VALENCE BANDS -    BAND    198; K    2; EIG -2.4185953E-01 AU
 TOP OF VALENCE BANDS -    BAND    198; K    1; EIG -2.4204099E-01 AU
 BOTTOM OF VIRTUAL BANDS - BAND    199; K    1; EIG -8.6172859E-02 AU
 INDIRECT ENERGY BAND GAP:   4.2365 eV
 TTTTTTTTTTTTTTTTTTTTTTTTTTTTTT PDIG        TELAPSE      161.29 TCPU     4147.69
 CHARGE NORMALIZATION FACTOR   1.00000000
 TOTAL ATOMIC CHARGES:
   4.4960152   4.5170816   4.4947175   4.5151593   4.4948337   4.5152506
   4.5150700   4.4946919   4.5149118   4.4945672   4.5168609   4.4958129
   0.8692191   0.8759322   0.8760363   0.8692992   0.8685455   0.8762822
   0.8763776   0.8686357   0.8682605   0.8751543   0.8752847   0.8683711
   0.8682699   0.8751732   0.8752355   0.8683226   0.8685530   0.8762885
   0.8764346   0.8687120   0.8691914   0.8759197   0.8760126   0.8692808
   5.9239803   5.9205950   6.1695535   6.1695784   6.1696048   6.1696317
   6.1625764   6.1697354   6.1698154   6.1626882   5.9214211   5.9247021
   5.9314860   5.9208617   6.1648566   6.1675973   6.1678062   6.1650864
   6.1649189   6.1676264   6.1677667   6.1650362   5.9216392   5.9322036
   5.9240939   5.9207939   6.1625138   6.1696522   6.1699009   6.1628261
   6.1695005   6.1694661   6.1696257   6.1696391   5.9213073   5.9245190
   8.4980550   8.4853887   8.4982687   8.4856250   8.4941709   8.4860854
   8.4854919   8.4981263   8.4861152   8.4941571   8.4857411   8.4984038
 TTTTTTTTTTTTTTTTTTTTTTTTTTTTTT MOQGAD      TELAPSE      161.38 TCPU     4147.78
 TTTTTTTTTTTTTTTTTTTTTTTTTTTTTT SHELLXN     TELAPSE      175.62 TCPU     4602.08
 TTTTTTTTTTTTTTTTTTTTTTTTTTTTTT MONMO3      TELAPSE      176.16 TCPU     4619.11
 NUMERICALLY INTEGRATED DENSITY    395.9999350738
 TTTTTTTTTTTTTTTTTTTTTTTTTTTTTT NUMDFT      TELAPSE      177.53 TCPU     4662.99
 CYC   7 ETOT(AU) -2.578218824059E+03 DETOT -1.17E-04 tst  1.22E-06 PX  1.52E-03
 TTTTTTTTTTTTTTTTTTTTTTTTTTTTTT DIIS        TELAPSE      177.81 TCPU     4669.87
 DIIS TEST: 0.12355E-04 AT SCF   CYCLE   7 - DIIS ACTIVE - HISTORY:     7 CYCLES
 TTTTTTTTTTTTTTTTTTTTTTTTTTTTTT FDIK        TELAPSE      179.69 TCPU     4729.60
 INSULATING STATE
 TOP OF VALENCE BANDS -    BAND    198; K    2; EIG -2.4188048E-01 AU
 TOP OF VALENCE BANDS -    BAND    198; K    1; EIG -2.4206403E-01 AU
 BOTTOM OF VIRTUAL BANDS - BAND    199; K    1; EIG -8.6213585E-02 AU
 INDIRECT ENERGY BAND GAP:   4.2359 eV
 TTTTTTTTTTTTTTTTTTTTTTTTTTTTTT PDIG        TELAPSE      181.21 TCPU     4736.50
 CHARGE NORMALIZATION FACTOR   1.00000000
 TOTAL ATOMIC CHARGES:
   4.4963157   4.5170591   4.4946755   4.5152096   4.4947918   4.5153004
   4.5151273   4.4946667   4.5149700   4.4945430   4.5168470   4.4961287
   0.8692863   0.8758622   0.8759738   0.8693697   0.8684746   0.8763280
   0.8764361   0.8685693   0.8682147   0.8750374   0.8751846   0.8683304
   0.8682242   0.8750557   0.8751356   0.8682820   0.8684811   0.8763338
   0.8764937   0.8686466   0.8692572   0.8758484   0.8759512   0.8693524
   5.9240075   5.9207003   6.1687712   6.1703485   6.1703542   6.1688148
   6.1633860   6.1688514   6.1688712   6.1634185   5.9213880   5.9246266
   5.9306082   5.9221097   6.1644656   6.1681128   6.1682665   6.1646417
   6.1645316   6.1681452   6.1682263   6.1645863   5.9227201   5.9311873
   5.9241345   5.9209118   6.1633271   6.1687726   6.1689518   6.1635528
   6.1687285   6.1702446   6.1703669   6.1688129   5.9212614   5.9244303
   8.4977188   8.4856079   8.4979273   8.4858415   8.4946870   8.4857879
   8.4857182   8.4977956   8.4858201   8.4946691   8.4859634   8.4980647
 TTTTTTTTTTTTTTTTTTTTTTTTTTTTTT MOQGAD      TELAPSE      181.30 TCPU     4736.58
 TTTTTTTTTTTTTTTTTTTTTTTTTTTTTT SHELLXN     TELAPSE      195.54 TCPU     5190.77
 TTTTTTTTTTTTTTTTTTTTTTTTTTTTTT MONMO3      TELAPSE      196.07 TCPU     5207.80
 NUMERICALLY INTEGRATED DENSITY    395.9999350706
 TTTTTTTTTTTTTTTTTTTTTTTTTTTTTT NUMDFT      TELAPSE      197.45 TCPU     5251.76
 CYC   8 ETOT(AU) -2.578218826408E+03 DETOT -2.35E-06 tst  3.47E-08 PX  2.89E-04
 TTTTTTTTTTTTTTTTTTTTTTTTTTTTTT DIIS        TELAPSE      197.76 TCPU     5258.70
 DIIS TEST: 0.22995E-05 AT SCF   CYCLE   8 - DIIS ACTIVE - HISTORY:     8 CYCLES
 TTTTTTTTTTTTTTTTTTTTTTTTTTTTTT FDIK        TELAPSE      199.62 TCPU     5318.06
 INSULATING STATE
 TOP OF VALENCE BANDS -    BAND    198; K    2; EIG -2.4187203E-01 AU
 TOP OF VALENCE BANDS -    BAND    198; K    1; EIG -2.4205464E-01 AU
 BOTTOM OF VIRTUAL BANDS - BAND    199; K    1; EIG -8.6222891E-02 AU
 INDIRECT ENERGY BAND GAP:   4.2354 eV
 TTTTTTTTTTTTTTTTTTTTTTTTTTTTTT PDIG        TELAPSE      201.20 TCPU     5325.01
 CHARGE NORMALIZATION FACTOR   1.00000000
 TOTAL ATOMIC CHARGES:
   4.4963906   4.5171052   4.4947395   4.5152245   4.4948556   4.5153152
   4.5151409   4.4947265   4.5149836   4.4946031   4.5168919   4.4962004
   0.8692287   0.8758628   0.8759734   0.8693120   0.8684826   0.8762722
   0.8763769   0.8685761   0.8682134   0.8750320   0.8751759   0.8683289
   0.8682229   0.8750505   0.8751265   0.8682804   0.8684894   0.8762779
   0.8764346   0.8686531   0.8692000   0.8758493   0.8759506   0.8692944
   5.9239102   5.9206844   6.1690782   6.1700486   6.1700557   6.1691250
   6.1630744   6.1692015   6.1692385   6.1631283   5.9213994   5.9245499
   5.9307197   5.9218201   6.1645501   6.1679939   6.1681567   6.1647338
   6.1646140   6.1680244   6.1681182   6.1646811   5.9224576   5.9313196
   5.9240334   5.9208922   6.1630148   6.1691221   6.1693196   6.1632634
   6.1690322   6.1699422   6.1700710   6.1691263   5.9212765   5.9243572
   8.4978069   8.4855629   8.4980172   8.4857972   8.4946110   8.4859860
   8.4856719   8.4978827   8.4860194   8.4945976   8.4859178   8.4981535
 TTTTTTTTTTTTTTTTTTTTTTTTTTTTTT MOQGAD      TELAPSE      201.29 TCPU     5325.09
 TTTTTTTTTTTTTTTTTTTTTTTTTTTTTT SHELLXN     TELAPSE      215.57 TCPU     5780.48
 TTTTTTTTTTTTTTTTTTTTTTTTTTTTTT MONMO3      TELAPSE      216.10 TCPU     5797.51
 NUMERICALLY INTEGRATED DENSITY    395.9999350729
 TTTTTTTTTTTTTTTTTTTTTTTTTTTTTT NUMDFT      TELAPSE      217.48 TCPU     5841.40
 CYC   9 ETOT(AU) -2.578218826773E+03 DETOT -3.64E-07 tst  4.25E-09 PX  9.02E-05
 TTTTTTTTTTTTTTTTTTTTTTTTTTTTTT DIIS        TELAPSE      217.80 TCPU     5848.35
 DIIS TEST: 0.55480E-07 AT SCF   CYCLE   9 - DIIS ACTIVE - HISTORY:     9 CYCLES
 TTTTTTTTTTTTTTTTTTTTTTTTTTTTTT FDIK        TELAPSE      219.68 TCPU     5908.00
 INSULATING STATE
 TOP OF VALENCE BANDS -    BAND    198; K    2; EIG -2.4187506E-01 AU
 TOP OF VALENCE BANDS -    BAND    198; K    1; EIG -2.4205787E-01 AU
 BOTTOM OF VIRTUAL BANDS - BAND    199; K    1; EIG -8.6217248E-02 AU
 INDIRECT ENERGY BAND GAP:   4.2357 eV
 TTTTTTTTTTTTTTTTTTTTTTTTTTTTTT PDIG        TELAPSE      221.19 TCPU     5914.89
 CHARGE NORMALIZATION FACTOR   1.00000000
 TOTAL ATOMIC CHARGES:
   4.4963168   4.5171052   4.4947246   4.5152360   4.4948407   4.5153268
   4.5151517   4.4947096   4.5149942   4.4945859   4.5168909   4.4961246
   0.8692359   0.8758528   0.8759619   0.8693184   0.8684722   0.8762755
   0.8763792   0.8685657   0.8682022   0.8750384   0.8751798   0.8683164
   0.8682116   0.8750568   0.8751307   0.8682680   0.8684790   0.8762814
   0.8764367   0.8686426   0.8692072   0.8758395   0.8759390   0.8693007
   5.9238817   5.9206865   6.1690254   6.1701275   6.1701400   6.1690801
   6.1631246   6.1691739   6.1692148   6.1631845   5.9214195   5.9245343
   5.9307371   5.9217332   6.1645954   6.1679860   6.1681587   6.1647898
   6.1646601   6.1680172   6.1681189   6.1647362   5.9223978   5.9313607
   5.9240042   5.9208938   6.1630644   6.1690937   6.1692970   6.1633201
   6.1689790   6.1700208   6.1701555   6.1690816   5.9212972   5.9243423
   8.4978405   8.4855687   8.4980508   8.4858031   8.4945650   8.4859276
   8.4856768   8.4979160   8.4859593   8.4945493   8.4859232   8.4981877
 TTTTTTTTTTTTTTTTTTTTTTTTTTTTTT MOQGAD      TELAPSE      221.28 TCPU     5914.98
 TTTTTTTTTTTTTTTTTTTTTTTTTTTTTT SHELLXN     TELAPSE      235.53 TCPU     6369.63
 +++ ENERGIES IN A.U. +++
 ::: EXT EL-POLE                                  -2.7596921039510E+03
 ::: EXT EL-SPHEROPOLE                             3.0926724037815E+01
 ::: BIELET ZONE E-E                               4.1337600263657E+03
 ::: TOTAL E-E                                     1.4049946464525E+03
 ::: TOTAL E-N + N-E                              -6.4649627691772E+03
 ::: TOTAL N-N                                     1.8929697252403E+02
 ::: KINETIC ENERGY                                2.5598892895926E+03
 ::: PSEUDO TOTAL   ENERGY                        -2.3107818606081E+03
 ::: VIRIAL COEFFICIENT                            1.0511443744204E+00
 TTTTTTTTTTTTTTTTTTTTTTTTTTTTTT MONMO3      TELAPSE      236.07 TCPU     6386.65
 NUMERICALLY INTEGRATED DENSITY    395.9999350719
 EXCHANGE ENERGY: -0.252054530102E+03  CORRELATION ENERGY: -0.153824361524E+02
 TTTTTTTTTTTTTTTTTTTTTTTTTTTTTT NUMDFT      TELAPSE      237.44 TCPU     6430.49
 CYC  10 ETOT(AU) -2.578218826863E+03 DETOT -9.00E-08 tst  1.36E-10 PX  9.02E-05

 == SCF ENDED - CONVERGENCE ON ENERGY      E(AU) -2.5782188268625E+03 CYCLES  10


 ENERGY EXPRESSION=HARTREE+FOCK EXCH*0.00000+(HSESOL     EXCH)*1.00000+PBESOL     CORR


 TOTAL ENERGY(DFT)(AU)( 10) -2.5782188268625E+03 DE-9.0E-08 tester 1.4E-10
 TTTTTTTTTTTTTTTTTTTTTTTTTTTTTT EDFT        TELAPSE      237.44 TCPU     6430.50
 
 INFORMATION **** DFTD3 ENERGY **** CALCULATE DFTD3 ENERGY

           DFT-D V3(BJ)
 DF                                         hsesol3c  
 parameters
 s6       :    1.0000
 s8       :    0.0000
 a1       :    0.5196
 a2       :    4.9385
 k1 k3    :   16.0000   -4.0000
 Cutoff   :   50.2022
 CN-Cutoff:   21.1671
 ABC-Cutoff:   21.1671
 
 Edisp /kcal,au:   -49.3194 -0.07859550

 E6    /kcal :   -52.3095
 E8    /kcal :     0.0000
 E6(ABC) "   :   2.990051
 
 INFORMATION **** DFTD3 ENERGY **** NORMAL TERMINATION OF DFTD3 MODULE

 GCP ENERGY CALCULATION
  level        hsesol3c            basis:hsesol3c
  Nbf            948
  Atoms           84

  Parameters: 
  sigma     1.0000
  eta       1.4281
  alpha     0.2936
  beta      1.9467

  dmp_scal      4.0000
  dmp_exp       6.0000
 cutoffs: 
   distance [bohr] 60.0
   noise    [a.u.] 2.2E-16
 SR-damping   T
 ** gCP correction **
  Egcp:        0.1661177001 / (a.u.) ||     104.2404 / (kcal/mol)
 INFORMATION **** GCP **** NORMAL TERMINATION OF GCP MODULE

 *******************************************************************************

 DFT-D3-GCP DISPERSION AND COUNTERPOISE CORRECTION

 D3 DISPERSION ENERGY (AU)      -7.8595501206256E-02
 GCP ENERGY (AU)                 1.6611770013339E-01
 TOTAL ENERGY + DISP + GCP (AU) -2.5781313046636E+03

 *******************************************************************************

 EIGENVECTORS IN FORTRAN UNIT  8
 TTTTTTTTTTTTTTTTTTTTTTTTTTTTTT END         TELAPSE      240.54 TCPU     6439.51
 EEEEEEEEEE TERMINATION  DATE 19 02 2026 TIME 20:20:28.6
